<?xml version="1.0" encoding="ISO-8859-1"?>
<modeling>
 <generator>
  <i name="program" type="string">vasp </i>
  <i name="version" type="string">6.4.2  </i>
  <i name="subversion" type="string">20Jul23 (build Nov 12 2023 22:16:35) complex                          parallel </i>
  <i name="platform" type="string">LinuxNV </i>
  <i name="date" type="string">2025 03 23 </i>
  <i name="time" type="string">23:28:30 </i>
 </generator>
 <incar>
  <i type="int" name="ISTART">     0</i>
  <i type="string" name="PREC">Normal</i>
  <i type="string" name="ALGO">Fast</i>
  <i type="int" name="ISPIN">     1</i>
  <i type="int" name="ICHARG">     2</i>
  <i type="int" name="IBRION">     2</i>
  <i name="EDIFF">      0.00001000</i>
  <i name="EDIFFG">     -0.00500000</i>
  <i type="int" name="NSW">   300</i>
  <i type="int" name="ISIF">     2</i>
  <i name="ENCUT">    450.00000000</i>
  <i name="NELECT">   1056.00000000</i>
  <i type="string" name="LREAL">Auto</i>
  <i type="logical" name="LPLANE"> T  </i>
  <i type="int" name="ISMEAR">     0</i>
  <i name="SIGMA">      0.05000000</i>
  <i type="logical" name="LWAVE"> F  </i>
  <i type="logical" name="LCHARG"> F  </i>
 </incar>
 <primitive_cell>
  <structure name="primitive_cell" >
   <crystal>
    <varray name="basis" >
     <v>       0.00000000      12.28047342       0.00000000 </v>
     <v>       9.14270205       0.00000000       0.00000000 </v>
     <v>       0.00000000      -2.76826177     -11.30069772 </v>
    </varray>
    <i name="volume">   1268.80515525 </i>
    <varray name="rec_basis" >
     <v>       0.00000000       0.08143009      -0.01994742 </v>
     <v>       0.10937686      -0.00000000       0.00000000 </v>
     <v>       0.00000000       0.00000000      -0.08849011 </v>
    </varray>
   </crystal>
   <varray name="positions" >
    <v>       0.65883830       0.00000000       0.15736517 </v>
    <v>       0.65883830       0.00000000       0.65736517 </v>
    <v>       0.65883830       0.33333333       0.15736517 </v>
    <v>       0.65883830       0.33333333       0.65736517 </v>
    <v>       0.65883830       0.66666667       0.15736517 </v>
    <v>       0.65883830       0.66666667       0.65736517 </v>
    <v>       0.84116170       0.16666667       0.34263483 </v>
    <v>       0.84116170       0.16666667       0.84263483 </v>
    <v>       0.84116170       0.50000000       0.34263483 </v>
    <v>       0.84116170       0.50000000       0.84263483 </v>
    <v>       0.84116170       0.83333333       0.34263483 </v>
    <v>       0.84116170       0.83333333       0.84263483 </v>
    <v>       0.59047440       0.16666667       0.39739300 </v>
    <v>       0.59047440       0.16666667       0.89739300 </v>
    <v>       0.59047440       0.50000000       0.39739300 </v>
    <v>       0.59047440       0.50000000       0.89739300 </v>
    <v>       0.59047440       0.83333333       0.39739300 </v>
    <v>       0.59047440       0.83333333       0.89739300 </v>
    <v>       0.90952560       0.00000000       0.10260700 </v>
    <v>       0.90952560       0.00000000       0.60260700 </v>
    <v>       0.90952560       0.33333333       0.10260700 </v>
    <v>       0.90952560       0.33333333       0.60260700 </v>
    <v>       0.90952560       0.66666667       0.10260700 </v>
    <v>       0.90952560       0.66666667       0.60260700 </v>
    <v>       0.15883830       0.16666667       0.15736517 </v>
    <v>       0.15883830       0.16666667       0.65736517 </v>
    <v>       0.15883830       0.50000000       0.15736517 </v>
    <v>       0.15883830       0.50000000       0.65736517 </v>
    <v>       0.15883830       0.83333333       0.15736517 </v>
    <v>       0.15883830       0.83333333       0.65736517 </v>
    <v>       0.34116170       0.00000000       0.34263483 </v>
    <v>       0.34116170       0.00000000       0.84263483 </v>
    <v>       0.34116170       0.33333333       0.34263483 </v>
    <v>       0.34116170       0.33333333       0.84263483 </v>
    <v>       0.34116170       0.66666667       0.34263483 </v>
    <v>       0.34116170       0.66666667       0.84263483 </v>
    <v>       0.09047440       0.00000000       0.39739300 </v>
    <v>       0.09047440       0.00000000       0.89739300 </v>
    <v>       0.09047440       0.33333333       0.39739300 </v>
    <v>       0.09047440       0.33333333       0.89739300 </v>
    <v>       0.09047440       0.66666667       0.39739300 </v>
    <v>       0.09047440       0.66666667       0.89739300 </v>
    <v>       0.40952560       0.16666667       0.10260700 </v>
    <v>       0.40952560       0.16666667       0.60260700 </v>
    <v>       0.40952560       0.50000000       0.10260700 </v>
    <v>       0.40952560       0.50000000       0.60260700 </v>
    <v>       0.40952560       0.83333333       0.10260700 </v>
    <v>       0.40952560       0.83333333       0.60260700 </v>
    <v>       0.99646913       0.16666667       0.12833205 </v>
    <v>       0.99646913       0.16666667       0.62833205 </v>
    <v>       0.99646913       0.50000000       0.12833205 </v>
    <v>       0.99646913       0.50000000       0.62833205 </v>
    <v>       0.99646913       0.83333333       0.12833205 </v>
    <v>       0.99646913       0.83333333       0.62833205 </v>
    <v>       0.50353087       0.00000000       0.37166795 </v>
    <v>       0.50353087       0.00000000       0.87166795 </v>
    <v>       0.50353087       0.33333333       0.37166795 </v>
    <v>       0.50353087       0.33333333       0.87166795 </v>
    <v>       0.50353087       0.66666667       0.37166795 </v>
    <v>       0.50353087       0.66666667       0.87166795 </v>
    <v>       0.67337106       0.16666667       0.28161508 </v>
    <v>       0.67337106       0.16666667       0.78161508 </v>
    <v>       0.67337106       0.50000000       0.28161508 </v>
    <v>       0.67337106       0.50000000       0.78161508 </v>
    <v>       0.67337106       0.83333333       0.28161508 </v>
    <v>       0.67337106       0.83333333       0.78161508 </v>
    <v>       0.82662894       0.00000000       0.21838492 </v>
    <v>       0.82662894       0.00000000       0.71838492 </v>
    <v>       0.82662894       0.33333333       0.21838492 </v>
    <v>       0.82662894       0.33333333       0.71838492 </v>
    <v>       0.82662894       0.66666667       0.21838492 </v>
    <v>       0.82662894       0.66666667       0.71838492 </v>
    <v>       0.83549502       0.00000000       0.44542296 </v>
    <v>       0.83549502       0.00000000       0.94542296 </v>
    <v>       0.83549502       0.33333333       0.44542296 </v>
    <v>       0.83549502       0.33333333       0.94542296 </v>
    <v>       0.83549502       0.66666667       0.44542296 </v>
    <v>       0.83549502       0.66666667       0.94542296 </v>
    <v>       0.66450498       0.16666667       0.05457704 </v>
    <v>       0.66450498       0.16666667       0.55457704 </v>
    <v>       0.66450498       0.50000000       0.05457704 </v>
    <v>       0.66450498       0.50000000       0.55457704 </v>
    <v>       0.66450498       0.83333333       0.05457704 </v>
    <v>       0.66450498       0.83333333       0.55457704 </v>
    <v>       0.49646913       0.00000000       0.12833205 </v>
    <v>       0.49646913       0.00000000       0.62833205 </v>
    <v>       0.49646913       0.33333333       0.12833205 </v>
    <v>       0.49646913       0.33333333       0.62833205 </v>
    <v>       0.49646913       0.66666667       0.12833205 </v>
    <v>       0.49646913       0.66666667       0.62833205 </v>
    <v>       0.00353087       0.16666667       0.37166795 </v>
    <v>       0.00353087       0.16666667       0.87166795 </v>
    <v>       0.00353087       0.50000000       0.37166795 </v>
    <v>       0.00353087       0.50000000       0.87166795 </v>
    <v>       0.00353087       0.83333333       0.37166795 </v>
    <v>       0.00353087       0.83333333       0.87166795 </v>
    <v>       0.17337106       0.00000000       0.28161508 </v>
    <v>       0.17337106       0.00000000       0.78161508 </v>
    <v>       0.17337106       0.33333333       0.28161508 </v>
    <v>       0.17337106       0.33333333       0.78161508 </v>
    <v>       0.17337106       0.66666667       0.28161508 </v>
    <v>       0.17337106       0.66666667       0.78161508 </v>
    <v>       0.32662894       0.16666667       0.21838492 </v>
    <v>       0.32662894       0.16666667       0.71838492 </v>
    <v>       0.32662894       0.50000000       0.21838492 </v>
    <v>       0.32662894       0.50000000       0.71838492 </v>
    <v>       0.32662894       0.83333333       0.21838492 </v>
    <v>       0.32662894       0.83333333       0.71838492 </v>
    <v>       0.33549502       0.16666667       0.44542296 </v>
    <v>       0.33549502       0.16666667       0.94542296 </v>
    <v>       0.33549502       0.50000000       0.44542296 </v>
    <v>       0.33549502       0.50000000       0.94542296 </v>
    <v>       0.33549502       0.83333333       0.44542296 </v>
    <v>       0.33549502       0.83333333       0.94542296 </v>
    <v>       0.16450498       0.00000000       0.05457704 </v>
    <v>       0.16450498       0.33333333       0.05457704 </v>
    <v>       0.16450498       0.33333333       0.55457704 </v>
    <v>       0.16450498       0.66666667       0.05457704 </v>
    <v>       0.16450498       0.66666667       0.55457704 </v>
    <v>       0.16450498       0.00000000       0.55457704 </v>
   </varray>
  </structure>
  <varray name="primitive_index" >
   <v type="int" >        1 </v>
   <v type="int" >        2 </v>
   <v type="int" >        3 </v>
   <v type="int" >        4 </v>
   <v type="int" >        5 </v>
   <v type="int" >        6 </v>
   <v type="int" >        7 </v>
   <v type="int" >        8 </v>
   <v type="int" >        9 </v>
   <v type="int" >       10 </v>
   <v type="int" >       11 </v>
   <v type="int" >       12 </v>
   <v type="int" >       13 </v>
   <v type="int" >       14 </v>
   <v type="int" >       15 </v>
   <v type="int" >       16 </v>
   <v type="int" >       17 </v>
   <v type="int" >       18 </v>
   <v type="int" >       19 </v>
   <v type="int" >       20 </v>
   <v type="int" >       21 </v>
   <v type="int" >       22 </v>
   <v type="int" >       23 </v>
   <v type="int" >       24 </v>
   <v type="int" >       25 </v>
   <v type="int" >       26 </v>
   <v type="int" >       27 </v>
   <v type="int" >       28 </v>
   <v type="int" >       29 </v>
   <v type="int" >       30 </v>
   <v type="int" >       31 </v>
   <v type="int" >       32 </v>
   <v type="int" >       33 </v>
   <v type="int" >       34 </v>
   <v type="int" >       35 </v>
   <v type="int" >       36 </v>
   <v type="int" >       37 </v>
   <v type="int" >       38 </v>
   <v type="int" >       39 </v>
   <v type="int" >       40 </v>
   <v type="int" >       41 </v>
   <v type="int" >       42 </v>
   <v type="int" >       43 </v>
   <v type="int" >       44 </v>
   <v type="int" >       45 </v>
   <v type="int" >       46 </v>
   <v type="int" >       47 </v>
   <v type="int" >       48 </v>
   <v type="int" >       49 </v>
   <v type="int" >       50 </v>
   <v type="int" >       51 </v>
   <v type="int" >       52 </v>
   <v type="int" >       53 </v>
   <v type="int" >       54 </v>
   <v type="int" >       55 </v>
   <v type="int" >       56 </v>
   <v type="int" >       57 </v>
   <v type="int" >       58 </v>
   <v type="int" >       59 </v>
   <v type="int" >       60 </v>
   <v type="int" >       61 </v>
   <v type="int" >       62 </v>
   <v type="int" >       63 </v>
   <v type="int" >       64 </v>
   <v type="int" >       65 </v>
   <v type="int" >       66 </v>
   <v type="int" >       67 </v>
   <v type="int" >       68 </v>
   <v type="int" >       69 </v>
   <v type="int" >       70 </v>
   <v type="int" >       71 </v>
   <v type="int" >       72 </v>
   <v type="int" >       73 </v>
   <v type="int" >       74 </v>
   <v type="int" >       75 </v>
   <v type="int" >       76 </v>
   <v type="int" >       77 </v>
   <v type="int" >       78 </v>
   <v type="int" >       79 </v>
   <v type="int" >       80 </v>
   <v type="int" >       81 </v>
   <v type="int" >       82 </v>
   <v type="int" >       83 </v>
   <v type="int" >       84 </v>
   <v type="int" >       85 </v>
   <v type="int" >       86 </v>
   <v type="int" >       87 </v>
   <v type="int" >       88 </v>
   <v type="int" >       89 </v>
   <v type="int" >       90 </v>
   <v type="int" >       91 </v>
   <v type="int" >       92 </v>
   <v type="int" >       93 </v>
   <v type="int" >       94 </v>
   <v type="int" >       95 </v>
   <v type="int" >       96 </v>
   <v type="int" >       97 </v>
   <v type="int" >       98 </v>
   <v type="int" >       99 </v>
   <v type="int" >      100 </v>
   <v type="int" >      101 </v>
   <v type="int" >      102 </v>
   <v type="int" >      103 </v>
   <v type="int" >      104 </v>
   <v type="int" >      105 </v>
   <v type="int" >      106 </v>
   <v type="int" >      107 </v>
   <v type="int" >      108 </v>
   <v type="int" >      109 </v>
   <v type="int" >      110 </v>
   <v type="int" >      111 </v>
   <v type="int" >      112 </v>
   <v type="int" >      113 </v>
   <v type="int" >      114 </v>
   <v type="int" >      115 </v>
   <v type="int" >      116 </v>
   <v type="int" >      117 </v>
   <v type="int" >      118 </v>
   <v type="int" >      119 </v>
   <v type="int" >      120 </v>
  </varray>
 </primitive_cell>
 <kpoints>
  <generation param="Gamma">
   <v type="int" name="divisions">       2        2        2 </v>
   <v name="usershift">      0.00000000       0.00000000       0.00000000 </v>
   <v name="genvec1">      0.50000000       0.00000000       0.00000000 </v>
   <v name="genvec2">      0.00000000       0.50000000       0.00000000 </v>
   <v name="genvec3">      0.00000000       0.00000000       0.50000000 </v>
   <v name="shift">      0.00000000       0.00000000       0.00000000 </v>
  </generation>
  <varray name="kpointlist" >
   <v>       0.00000000       0.00000000       0.00000000 </v>
   <v>       0.50000000       0.00000000       0.00000000 </v>
   <v>       0.00000000       0.50000000       0.00000000 </v>
   <v>       0.50000000       0.50000000       0.00000000 </v>
   <v>       0.00000000       0.00000000       0.50000000 </v>
   <v>       0.50000000       0.00000000       0.50000000 </v>
   <v>       0.00000000       0.50000000       0.50000000 </v>
   <v>       0.50000000       0.50000000       0.50000000 </v>
  </varray>
  <varray name="weights" >
   <v>       0.12500000 </v>
   <v>       0.12500000 </v>
   <v>       0.12500000 </v>
   <v>       0.12500000 </v>
   <v>       0.12500000 </v>
   <v>       0.12500000 </v>
   <v>       0.12500000 </v>
   <v>       0.12500000 </v>
  </varray>
 </kpoints>
 <parameters>
  <separator name="general" >
   <i type="string" name="SYSTEM">unknown system</i>
   <i type="logical" name="LCOMPAT"> F  </i>
  </separator>
  <separator name="electronic" >
   <i type="string" name="PREC">normal</i>
   <i name="ENMAX">    450.00000000</i>
   <i name="ENAUG">    627.11200000</i>
   <i name="EDIFF">      0.00001000</i>
   <i type="int" name="IALGO">    68</i>
   <i type="int" name="IWAVPR">    11</i>
   <i type="int" name="NBANDS">   633</i>
   <i type="int" name="NBANDSLOW">    -1</i>
   <i type="int" name="NBANDSHIGH">    -1</i>
   <i name="NELECT">   1056.00000000</i>
   <i type="int" name="TURBO">     0</i>
   <i type="int" name="IRESTART">     0</i>
   <i type="int" name="NREBOOT">     0</i>
   <i type="int" name="NMIN">     0</i>
   <i name="EREF">      0.00000000</i>
   <separator name="electronic smearing" >
    <i type="int" name="ISMEAR">     0</i>
    <i name="SIGMA">      0.05000000</i>
    <i name="KSPACING">      0.50000000</i>
    <i type="logical" name="KGAMMA"> T  </i>
    <i type="logical" name="KBLOWUP"> T  </i>
   </separator>
   <separator name="electronic projectors" >
    <i type="logical" name="LREAL"> T  </i>
    <v name="ROPT">     -0.00050000     -0.00050000     -0.00050000</v>
    <i type="int" name="LMAXPAW">  -100</i>
    <i type="int" name="LMAXMIX">     2</i>
    <i type="logical" name="NLSPLINE"> F  </i>
   </separator>
   <separator name="electronic startup" >
    <i type="int" name="ISTART">     0</i>
    <i type="int" name="ICHARG">     2</i>
    <i type="int" name="INIWAV">     1</i>
   </separator>
   <separator name="electronic spin" >
    <i type="int" name="ISPIN">     1</i>
    <i type="logical" name="LNONCOLLINEAR"> F  </i>
    <v name="MAGMOM">      1.00000000      1.00000000      1.00000000      1.00000000      1.00000000      1.00000000      1.00000000      1.00000000      1.00000000      1.00000000      1.00000000      1.00000000      1.00000000      1.00000000      1.00000000      1.00000000      1.00000000      1.00000000      1.00000000      1.00000000
      1.00000000      1.00000000      1.00000000      1.00000000      1.00000000      1.00000000      1.00000000      1.00000000      1.00000000      1.00000000      1.00000000      1.00000000      1.00000000      1.00000000      1.00000000      1.00000000      1.00000000      1.00000000      1.00000000      1.00000000
      1.00000000      1.00000000      1.00000000      1.00000000      1.00000000      1.00000000      1.00000000      1.00000000      1.00000000      1.00000000      1.00000000      1.00000000      1.00000000      1.00000000      1.00000000      1.00000000      1.00000000      1.00000000      1.00000000      1.00000000
      1.00000000      1.00000000      1.00000000      1.00000000      1.00000000      1.00000000      1.00000000      1.00000000      1.00000000      1.00000000      1.00000000      1.00000000      1.00000000      1.00000000      1.00000000      1.00000000      1.00000000      1.00000000      1.00000000      1.00000000
      1.00000000      1.00000000      1.00000000      1.00000000      1.00000000      1.00000000      1.00000000      1.00000000      1.00000000      1.00000000      1.00000000      1.00000000      1.00000000      1.00000000      1.00000000      1.00000000      1.00000000      1.00000000      1.00000000      1.00000000
      1.00000000      1.00000000      1.00000000      1.00000000      1.00000000      1.00000000      1.00000000      1.00000000      1.00000000      1.00000000      1.00000000      1.00000000      1.00000000      1.00000000      1.00000000      1.00000000      1.00000000      1.00000000      1.00000000      1.00000000
</v>
    <i name="NUPDOWN">     -1.00000000</i>
    <i type="logical" name="LSORBIT"> F  </i>
    <v name="SAXIS">      0.00000000      0.00000000      1.00000000</v>
    <i type="logical" name="LSPIRAL"> F  </i>
    <v name="QSPIRAL">      0.00000000      0.00000000      0.00000000</v>
    <i type="logical" name="LZEROZ"> F  </i>
   </separator>
   <separator name="electronic exchange-correlation" >
    <i type="logical" name="LASPH"> F  </i>
    <i type="logical" name="LMETAGGA"> F  </i>
   </separator>
   <separator name="electronic convergence" >
    <i type="int" name="NELM">    60</i>
    <i type="int" name="NELMDL">    -5</i>
    <i type="int" name="NELMIN">     2</i>
    <i name="ENINI">    450.00000000</i>
    <separator name="electronic convergence detail" >
     <i type="logical" name="LDIAG"> T  </i>
     <i type="logical" name="LSUBROT"> F  </i>
     <i name="WEIMIN">      0.00100000</i>
     <i name="EBREAK">      0.00000000</i>
     <i name="DEPER">      0.30000000</i>
     <i type="int" name="NRMM">     4</i>
     <i name="TIME">      0.40000000</i>
    </separator>
   </separator>
   <separator name="electronic mixer" >
    <i name="AMIX">      0.40000000</i>
    <i name="BMIX">      1.00000000</i>
    <i name="AMIN">      0.10000000</i>
    <i name="AMIX_MAG">      1.60000000</i>
    <i name="BMIX_MAG">      1.00000000</i>
    <separator name="electronic mixer details" >
     <i type="int" name="IMIX">     4</i>
     <i type="logical" name="MIXFIRST"> F  </i>
     <i type="int" name="MAXMIX">   -45</i>
     <i name="WC">    100.00000000</i>
     <i type="int" name="INIMIX">     1</i>
     <i type="int" name="MIXPRE">     1</i>
     <i type="int" name="MREMOVE">     5</i>
    </separator>
   </separator>
   <separator name="electronic dipolcorrection" >
    <i type="logical" name="LDIPOL"> F  </i>
    <i type="logical" name="LMONO"> F  </i>
    <i type="int" name="IDIPOL">     0</i>
    <i name="EPSILON">      1.00000000</i>
    <v name="DIPOL">   -100.00000000   -100.00000000   -100.00000000</v>
    <i name="EFIELD">      0.00000000</i>
   </separator>
  </separator>
  <separator name="grids" >
   <i type="int" name="NGX">    64</i>
   <i type="int" name="NGY">    48</i>
   <i type="int" name="NGZ">    60</i>
   <i type="int" name="NGXF">   128</i>
   <i type="int" name="NGYF">    96</i>
   <i type="int" name="NGZF">   120</i>
   <i type="logical" name="ADDGRID"> F  </i>
  </separator>
  <separator name="ionic" >
   <i type="int" name="NSW">   300</i>
   <i type="int" name="IBRION">     2</i>
   <i type="int" name="MDALGO">     0</i>
   <i type="int" name="ISIF">     2</i>
   <i name="PSTRESS">      0.00000000</i>
   <i name="EDIFFG">     -0.00500000</i>
   <i type="int" name="NFREE">     1</i>
   <i name="POTIM">      0.50000000</i>
   <i name="SMASS">     -3.00000000</i>
   <i name="SCALEE">      1.00000000</i>
  </separator>
  <separator name="ionic md" >
   <i name="TEBEG">      0.00010000</i>
   <i name="TEEND">      0.00010000</i>
   <i type="int" name="NBLOCK">     1</i>
   <i type="int" name="KBLOCK">   300</i>
   <i type="int" name="NPACO">   256</i>
   <i name="APACO">     10.00000000</i>
  </separator>
  <separator name="symmetry" >
   <i type="int" name="ISYM">     2</i>
   <i name="SYMPREC">      0.00001000</i>
  </separator>
  <separator name="dos" >
   <i type="int" name="LORBIT">     0</i>
   <v name="RWIGS">     -1.00000000     -1.00000000     -1.00000000</v>
   <i type="int" name="NEDOS">   301</i>
   <i name="EMIN">     10.00000000</i>
   <i name="EMAX">    -10.00000000</i>
   <i name="EFERMI">      0.00000000</i>
  </separator>
  <separator name="writing" >
   <i type="int" name="NWRITE">     2</i>
   <i type="logical" name="LWAVE"> F  </i>
   <i type="logical" name="LDOWNSAMPLE"> F  </i>
   <i type="logical" name="LCHARG"> F  </i>
   <i type="logical" name="LPARD"> F  </i>
   <i type="logical" name="LVTOT"> F  </i>
   <i type="logical" name="LVHAR"> F  </i>
   <i type="logical" name="LELF"> F  </i>
   <i type="logical" name="LOPTICS"> F  </i>
   <v name="STM">      0.00000000      0.00000000      0.00000000      0.00000000      0.00000000      0.00000000      0.00000000</v>
  </separator>
  <separator name="performance" >
   <i type="int" name="NPAR">     1</i>
   <i type="int" name="NSIM">     4</i>
   <i type="int" name="NBLK">    -1</i>
   <i type="logical" name="LPLANE"> T  </i>
   <i type="logical" name="LSCALAPACK"> T  </i>
   <i type="logical" name="LSCAAWARE"> F  </i>
   <i type="logical" name="LSCALU"> F  </i>
   <i type="logical" name="LASYNC"> F  </i>
   <i type="logical" name="LORBITALREAL"> F  </i>
  </separator>
  <separator name="miscellaneous" >
   <i type="int" name="IDIOT">     3</i>
   <i type="int" name="PHON_NSTRUCT">    -1</i>
   <i type="logical" name="LMUSIC"> F  </i>
   <v name="POMASS">     69.72300000     16.00000000     14.00100000</v>
   <v name="DARWINR">      0.00000000      0.00000000      0.00000000</v>
   <v name="DARWINV">      1.00000000      1.00000000      1.00000000</v>
   <i type="logical" name="LCORR"> T  </i>
  </separator>
  <i type="logical" name="GGA_COMPAT"> T  </i>
  <i type="logical" name="LBERRY"> F  </i>
  <i type="int" name="ICORELEVEL">     0</i>
  <i type="logical" name="LDAU"> F  </i>
  <i type="int" name="I_CONSTRAINED_M">     0</i>
  <separator name="electronic exchange-correlation" >
   <i type="string" name="GGA">--</i>
   <i type="int" name="VOSKOWN">     0</i>
   <i type="logical" name="LHFCALC"> F  </i>
   <i type="string" name="PRECFOCK"></i>
   <i type="logical" name="LSYMGRAD"> F  </i>
   <i type="logical" name="LHFONE"> F  </i>
   <i type="logical" name="LRHFCALC"> F  </i>
   <i type="logical" name="LTHOMAS"> F  </i>
   <i type="logical" name="LMODELHF"> F  </i>
   <i type="logical" name="LFOCKACE"> F  </i>
   <i name="ENCUT4O">     -1.00000000</i>
   <i type="int" name="EXXOEP">     0</i>
   <i type="int" name="FOURORBIT">     0</i>
   <i name="AEXX">      0.00000000</i>
   <i name="HFALPHA">      0.00000000</i>
   <i name="MCALPHA">      0.00000000</i>
   <i name="ALDAX">      1.00000000</i>
   <i name="AGGAX">      1.00000000</i>
   <i name="ALDAC">      1.00000000</i>
   <i name="AGGAC">      1.00000000</i>
   <i type="int" name="NKREDX">     1</i>
   <i type="int" name="NKREDY">     1</i>
   <i type="int" name="NKREDZ">     1</i>
   <i type="logical" name="SHIFTRED"> F  </i>
   <i type="logical" name="ODDONLY"> F  </i>
   <i type="logical" name="EVENONLY"> F  </i>
   <i type="int" name="LMAXFOCK">     0</i>
   <i type="int" name="NMAXFOCKAE">     0</i>
   <i type="logical" name="LFOCKAEDFT"> F  </i>
   <i name="HFSCREEN">      0.00000000</i>
   <i name="HFSCREENC">      0.00000000</i>
   <i type="int" name="NBANDSGWLOW">     0</i>
  </separator>
  <separator name="vdW DFT" >
   <i type="logical" name="LUSE_VDW"> F  </i>
   <i type="int" name="IVDW_NL">     1</i>
   <i type="logical" name="LSPIN_VDW"> F  </i>
   <i name="Zab_VDW">     -0.84910000</i>
   <i name="PARAM1">      0.12340000</i>
   <i name="PARAM2">      1.00000000</i>
   <i name="PARAM3">      0.00000000</i>
  </separator>
  <separator name="model GW" >
   <i type="int" name="MODEL_GW">     0</i>
   <i name="MODEL_EPS0">      6.34402578</i>
   <i name="MODEL_ALPHA">      1.00000000</i>
  </separator>
  <separator name="linear response parameters" >
   <i type="logical" name="LEPSILON"> F  </i>
   <i type="logical" name="LRPA"> F  </i>
   <i type="logical" name="LNABLA"> F  </i>
   <i type="logical" name="LVEL"> F  </i>
   <i name="CSHIFT">      0.10000000</i>
   <i name="OMEGAMAX">     -1.00000000</i>
   <i name="DEG_THRESHOLD">      0.00200000</i>
   <i name="RTIME">     -0.10000000</i>
   <i name="WPLASMAI">      0.00000000</i>
   <v name="DFIELD">      0.00000000      0.00000000      0.00000000</v>
   <v name="WPLASMA">      0.00000000      0.00000000      0.00000000      0.00000000      0.00000000      0.00000000      0.00000000      0.00000000      0.00000000</v>
  </separator>
  <separator name="orbital magnetization" >
   <i type="logical" name="NUCIND"> F  </i>
   <v name="MAGPOS">      0.00000000      0.00000000      0.00000000</v>
   <i type="logical" name="LNICSALL"> T  </i>
   <i type="logical" name="ORBITALMAG"> F  </i>
   <i type="logical" name="LMAGBLOCH"> F  </i>
   <i type="logical" name="LCHIMAG"> F  </i>
   <i type="logical" name="LGAUGE"> T  </i>
   <i type="int" name="MAGATOM">     0</i>
   <v name="MAGDIPOL">      0.00000000      0.00000000      0.00000000</v>
   <v name="AVECCONST">      0.00000000      0.00000000      0.00000000</v>
  </separator>
  <separator name="response functions" >
   <i type="logical" name="LALL_IN_ONE"> F  </i>
   <i type="int" name="IALL_IN_ONE">    -1</i>
   <i type="int" name="NBANDS_WAVE">    -1</i>
   <i type="logical" name="LFINITE_TEMPERATURE"> F  </i>
   <i type="logical" name="LADDER"> F  </i>
   <i type="logical" name="LRPAFORCE"> F  </i>
   <i type="logical" name="LFXC"> F  </i>
   <i type="logical" name="LHARTREE"> T  </i>
   <i type="int" name="IBSE">     0</i>
   <v type="int" name="KPOINT">    -1     0     0     0</v>
   <i type="logical" name="LTCTC"> F  </i>
   <i type="logical" name="LTCTE"> F  </i>
   <i type="logical" name="LTETE"> F  </i>
   <i type="logical" name="LTRIPLET"> F  </i>
   <i type="logical" name="LFXCEPS"> F  </i>
   <i type="logical" name="LFXHEG"> F  </i>
   <i type="int" name="NATURALO">     2</i>
   <i type="logical" name="LHOLEGF"> F  </i>
   <i type="logical" name="L2ORDER"> F  </i>
   <i type="logical" name="LDMP1"> F  </i>
   <i type="logical" name="LMP2LT"> F  </i>
   <i type="logical" name="LSMP2LT"> F  </i>
   <i type="logical" name="LGWLF"> F  </i>
   <i name="ENCUTGW">     -1.60000002</i>
   <i name="ENCUTGWSOFT">     -1.60000002</i>
   <i name="ENCUTLF">     -1.00000000</i>
   <i type="logical" name="LESF_SPLINES"> F  </i>
   <i type="int" name="LMAXMP2">    -1</i>
   <i name="SCISSOR">      0.00000000</i>
   <i type="int" name="NOMEGA">     0</i>
   <i type="int" name="NOMEGAR">     0</i>
   <i type="int" name="NBANDSGW">    -1</i>
   <i type="int" name="NBANDSO">    -1</i>
   <i type="int" name="NBANDSV">    -1</i>
   <i type="int" name="NELMGW">     1</i>
   <i type="int" name="NELMHF">     1</i>
   <i type="int" name="DIM">     3</i>
   <i type="int" name="IESPILON">     4</i>
   <i type="int" name="ANTIRES">     0</i>
   <i name="OMEGAMAX">    -30.00000000</i>
   <i name="OMEGAMIN">    -30.00000000</i>
   <i name="OMEGATL">   -200.00000000</i>
   <i type="int" name="OMEGAGRID">     0</i>
   <i name="CSHIFT">     -0.10000000</i>
   <i type="logical" name="LSELFENERGY"> F  </i>
   <i type="logical" name="LSPECTRAL"> F  </i>
   <i type="logical" name="LSPECTRALGW"> F  </i>
   <i type="logical" name="LSINGLES"> F  </i>
   <i type="logical" name="LFERMIGW"> F  </i>
   <i type="logical" name="ODDONLYGW"> F  </i>
   <i type="logical" name="EVENONLYGW"> F  </i>
   <i type="int" name="NKREDLFX">     1</i>
   <i type="int" name="NKREDLFY">     1</i>
   <i type="int" name="NKREDLFZ">     1</i>
   <i type="int" name="MAXMEM">  2800</i>
   <i type="int" name="TELESCOPE">     0</i>
   <i type="int" name="NTAUPAR">    -1</i>
   <i type="int" name="NOMEGAPAR">    -1</i>
   <i name="DAMP_NEWTON">      0.80000001</i>
   <i name="LAMBDA">      1.00000000</i>
  </separator>
  <separator name="External order field" >
   <i name="OFIELD_KAPPA">      0.00000000</i>
   <v name="OFIELD_K">      0.00000000      0.00000000      0.00000000</v>
   <i name="OFIELD_Q6_NEAR">      0.00000000</i>
   <i name="OFIELD_Q6_FAR">      0.00000000</i>
   <i name="OFIELD_A">      0.00000000</i>
  </separator>
  <separator name="optional k-points parameters" >
   <i type="int" name="KPOINTS_OPT_MODE">     1</i>
   <i type="logical" name="LKPOINTS_OPT"> F  </i>
  </separator>
 </parameters>
 <atominfo>
  <atoms>     120 </atoms>
  <types>       3 </types>
  <array name="atoms" >
   <dimension dim="1">ion</dimension>
   <field type="string">element</field>
   <field type="int">atomtype</field>
   <set>
    <rc><c>Ga</c><c>   1</c></rc>
    <rc><c>Ga</c><c>   1</c></rc>
    <rc><c>Ga</c><c>   1</c></rc>
    <rc><c>Ga</c><c>   1</c></rc>
    <rc><c>Ga</c><c>   1</c></rc>
    <rc><c>Ga</c><c>   1</c></rc>
    <rc><c>Ga</c><c>   1</c></rc>
    <rc><c>Ga</c><c>   1</c></rc>
    <rc><c>Ga</c><c>   1</c></rc>
    <rc><c>Ga</c><c>   1</c></rc>
    <rc><c>Ga</c><c>   1</c></rc>
    <rc><c>Ga</c><c>   1</c></rc>
    <rc><c>Ga</c><c>   1</c></rc>
    <rc><c>Ga</c><c>   1</c></rc>
    <rc><c>Ga</c><c>   1</c></rc>
    <rc><c>Ga</c><c>   1</c></rc>
    <rc><c>Ga</c><c>   1</c></rc>
    <rc><c>Ga</c><c>   1</c></rc>
    <rc><c>Ga</c><c>   1</c></rc>
    <rc><c>Ga</c><c>   1</c></rc>
    <rc><c>Ga</c><c>   1</c></rc>
    <rc><c>Ga</c><c>   1</c></rc>
    <rc><c>Ga</c><c>   1</c></rc>
    <rc><c>Ga</c><c>   1</c></rc>
    <rc><c>Ga</c><c>   1</c></rc>
    <rc><c>Ga</c><c>   1</c></rc>
    <rc><c>Ga</c><c>   1</c></rc>
    <rc><c>Ga</c><c>   1</c></rc>
    <rc><c>Ga</c><c>   1</c></rc>
    <rc><c>Ga</c><c>   1</c></rc>
    <rc><c>Ga</c><c>   1</c></rc>
    <rc><c>Ga</c><c>   1</c></rc>
    <rc><c>Ga</c><c>   1</c></rc>
    <rc><c>Ga</c><c>   1</c></rc>
    <rc><c>Ga</c><c>   1</c></rc>
    <rc><c>Ga</c><c>   1</c></rc>
    <rc><c>Ga</c><c>   1</c></rc>
    <rc><c>Ga</c><c>   1</c></rc>
    <rc><c>Ga</c><c>   1</c></rc>
    <rc><c>Ga</c><c>   1</c></rc>
    <rc><c>Ga</c><c>   1</c></rc>
    <rc><c>Ga</c><c>   1</c></rc>
    <rc><c>Ga</c><c>   1</c></rc>
    <rc><c>Ga</c><c>   1</c></rc>
    <rc><c>Ga</c><c>   1</c></rc>
    <rc><c>Ga</c><c>   1</c></rc>
    <rc><c>Ga</c><c>   1</c></rc>
    <rc><c>Ga</c><c>   1</c></rc>
    <rc><c>O </c><c>   2</c></rc>
    <rc><c>O </c><c>   2</c></rc>
    <rc><c>O </c><c>   2</c></rc>
    <rc><c>O </c><c>   2</c></rc>
    <rc><c>O </c><c>   2</c></rc>
    <rc><c>O </c><c>   2</c></rc>
    <rc><c>O </c><c>   2</c></rc>
    <rc><c>O </c><c>   2</c></rc>
    <rc><c>O </c><c>   2</c></rc>
    <rc><c>O </c><c>   2</c></rc>
    <rc><c>O </c><c>   2</c></rc>
    <rc><c>O </c><c>   2</c></rc>
    <rc><c>O </c><c>   2</c></rc>
    <rc><c>O </c><c>   2</c></rc>
    <rc><c>O </c><c>   2</c></rc>
    <rc><c>O </c><c>   2</c></rc>
    <rc><c>O </c><c>   2</c></rc>
    <rc><c>O </c><c>   2</c></rc>
    <rc><c>O </c><c>   2</c></rc>
    <rc><c>O </c><c>   2</c></rc>
    <rc><c>O </c><c>   2</c></rc>
    <rc><c>O </c><c>   2</c></rc>
    <rc><c>O </c><c>   2</c></rc>
    <rc><c>O </c><c>   2</c></rc>
    <rc><c>O </c><c>   2</c></rc>
    <rc><c>O </c><c>   2</c></rc>
    <rc><c>O </c><c>   2</c></rc>
    <rc><c>O </c><c>   2</c></rc>
    <rc><c>O </c><c>   2</c></rc>
    <rc><c>O </c><c>   2</c></rc>
    <rc><c>O </c><c>   2</c></rc>
    <rc><c>O </c><c>   2</c></rc>
    <rc><c>O </c><c>   2</c></rc>
    <rc><c>O </c><c>   2</c></rc>
    <rc><c>O </c><c>   2</c></rc>
    <rc><c>O </c><c>   2</c></rc>
    <rc><c>O </c><c>   2</c></rc>
    <rc><c>O </c><c>   2</c></rc>
    <rc><c>O </c><c>   2</c></rc>
    <rc><c>O </c><c>   2</c></rc>
    <rc><c>O </c><c>   2</c></rc>
    <rc><c>O </c><c>   2</c></rc>
    <rc><c>O </c><c>   2</c></rc>
    <rc><c>O </c><c>   2</c></rc>
    <rc><c>O </c><c>   2</c></rc>
    <rc><c>O </c><c>   2</c></rc>
    <rc><c>O </c><c>   2</c></rc>
    <rc><c>O </c><c>   2</c></rc>
    <rc><c>O </c><c>   2</c></rc>
    <rc><c>O </c><c>   2</c></rc>
    <rc><c>O </c><c>   2</c></rc>
    <rc><c>O </c><c>   2</c></rc>
    <rc><c>O </c><c>   2</c></rc>
    <rc><c>O </c><c>   2</c></rc>
    <rc><c>O </c><c>   2</c></rc>
    <rc><c>O </c><c>   2</c></rc>
    <rc><c>O </c><c>   2</c></rc>
    <rc><c>O </c><c>   2</c></rc>
    <rc><c>O </c><c>   2</c></rc>
    <rc><c>O </c><c>   2</c></rc>
    <rc><c>O </c><c>   2</c></rc>
    <rc><c>O </c><c>   2</c></rc>
    <rc><c>O </c><c>   2</c></rc>
    <rc><c>O </c><c>   2</c></rc>
    <rc><c>O </c><c>   2</c></rc>
    <rc><c>O </c><c>   2</c></rc>
    <rc><c>O </c><c>   2</c></rc>
    <rc><c>O </c><c>   2</c></rc>
    <rc><c>O </c><c>   2</c></rc>
    <rc><c>O </c><c>   2</c></rc>
    <rc><c>O </c><c>   2</c></rc>
    <rc><c>N </c><c>   3</c></rc>
   </set>
  </array>
  <array name="atomtypes" >
   <dimension dim="1">type</dimension>
   <field type="int">atomspertype</field>
   <field type="string">element</field>
   <field>mass</field>
   <field>valence</field>
   <field type="string">pseudopotential</field>
   <set>
    <rc><c>  48</c><c>Ga</c><c>     69.72300000</c><c>     13.00000000</c><c>  PAW_PBE Ga_d 06Jul2010                </c></rc>
    <rc><c>  71</c><c>O </c><c>     16.00000000</c><c>      6.00000000</c><c>  PAW_PBE O 08Apr2002                   </c></rc>
    <rc><c>   1</c><c>N </c><c>     14.00100000</c><c>      5.00000000</c><c>  PAW_PBE N 08Apr2002                   </c></rc>
   </set>
  </array>
 </atominfo>
 <structure name="initialpos" >
  <crystal>
   <varray name="basis" >
    <v>       0.00000000      12.28047342       0.00000000 </v>
    <v>       9.14270205       0.00000000       0.00000000 </v>
    <v>       0.00000000      -2.76826177     -11.30069772 </v>
   </varray>
   <i name="volume">   1268.80515525 </i>
   <varray name="rec_basis" >
    <v>       0.00000000       0.08143009      -0.01994742 </v>
    <v>       0.10937686      -0.00000000       0.00000000 </v>
    <v>       0.00000000       0.00000000      -0.08849011 </v>
   </varray>
  </crystal>
  <varray name="positions" >
   <v>       0.65883830       0.00000000       0.15736517 </v>
   <v>       0.65883830       0.00000000       0.65736517 </v>
   <v>       0.65883830       0.33333333       0.15736517 </v>
   <v>       0.65883830       0.33333333       0.65736517 </v>
   <v>       0.65883830       0.66666667       0.15736517 </v>
   <v>       0.65883830       0.66666667       0.65736517 </v>
   <v>       0.84116170       0.16666667       0.34263483 </v>
   <v>       0.84116170       0.16666667       0.84263483 </v>
   <v>       0.84116170       0.50000000       0.34263483 </v>
   <v>       0.84116170       0.50000000       0.84263483 </v>
   <v>       0.84116170       0.83333333       0.34263483 </v>
   <v>       0.84116170       0.83333333       0.84263483 </v>
   <v>       0.59047440       0.16666667       0.39739300 </v>
   <v>       0.59047440       0.16666667       0.89739300 </v>
   <v>       0.59047440       0.50000000       0.39739300 </v>
   <v>       0.59047440       0.50000000       0.89739300 </v>
   <v>       0.59047440       0.83333333       0.39739300 </v>
   <v>       0.59047440       0.83333333       0.89739300 </v>
   <v>       0.90952560       0.00000000       0.10260700 </v>
   <v>       0.90952560       0.00000000       0.60260700 </v>
   <v>       0.90952560       0.33333333       0.10260700 </v>
   <v>       0.90952560       0.33333333       0.60260700 </v>
   <v>       0.90952560       0.66666667       0.10260700 </v>
   <v>       0.90952560       0.66666667       0.60260700 </v>
   <v>       0.15883830       0.16666667       0.15736517 </v>
   <v>       0.15883830       0.16666667       0.65736517 </v>
   <v>       0.15883830       0.50000000       0.15736517 </v>
   <v>       0.15883830       0.50000000       0.65736517 </v>
   <v>       0.15883830       0.83333333       0.15736517 </v>
   <v>       0.15883830       0.83333333       0.65736517 </v>
   <v>       0.34116170       0.00000000       0.34263483 </v>
   <v>       0.34116170       0.00000000       0.84263483 </v>
   <v>       0.34116170       0.33333333       0.34263483 </v>
   <v>       0.34116170       0.33333333       0.84263483 </v>
   <v>       0.34116170       0.66666667       0.34263483 </v>
   <v>       0.34116170       0.66666667       0.84263483 </v>
   <v>       0.09047440       0.00000000       0.39739300 </v>
   <v>       0.09047440       0.00000000       0.89739300 </v>
   <v>       0.09047440       0.33333333       0.39739300 </v>
   <v>       0.09047440       0.33333333       0.89739300 </v>
   <v>       0.09047440       0.66666667       0.39739300 </v>
   <v>       0.09047440       0.66666667       0.89739300 </v>
   <v>       0.40952560       0.16666667       0.10260700 </v>
   <v>       0.40952560       0.16666667       0.60260700 </v>
   <v>       0.40952560       0.50000000       0.10260700 </v>
   <v>       0.40952560       0.50000000       0.60260700 </v>
   <v>       0.40952560       0.83333333       0.10260700 </v>
   <v>       0.40952560       0.83333333       0.60260700 </v>
   <v>       0.99646913       0.16666667       0.12833205 </v>
   <v>       0.99646913       0.16666667       0.62833205 </v>
   <v>       0.99646913       0.50000000       0.12833205 </v>
   <v>       0.99646913       0.50000000       0.62833205 </v>
   <v>       0.99646913       0.83333333       0.12833205 </v>
   <v>       0.99646913       0.83333333       0.62833205 </v>
   <v>       0.50353087       0.00000000       0.37166795 </v>
   <v>       0.50353087       0.00000000       0.87166795 </v>
   <v>       0.50353087       0.33333333       0.37166795 </v>
   <v>       0.50353087       0.33333333       0.87166795 </v>
   <v>       0.50353087       0.66666667       0.37166795 </v>
   <v>       0.50353087       0.66666667       0.87166795 </v>
   <v>       0.67337106       0.16666667       0.28161508 </v>
   <v>       0.67337106       0.16666667       0.78161508 </v>
   <v>       0.67337106       0.50000000       0.28161508 </v>
   <v>       0.67337106       0.50000000       0.78161508 </v>
   <v>       0.67337106       0.83333333       0.28161508 </v>
   <v>       0.67337106       0.83333333       0.78161508 </v>
   <v>       0.82662894       0.00000000       0.21838492 </v>
   <v>       0.82662894       0.00000000       0.71838492 </v>
   <v>       0.82662894       0.33333333       0.21838492 </v>
   <v>       0.82662894       0.33333333       0.71838492 </v>
   <v>       0.82662894       0.66666667       0.21838492 </v>
   <v>       0.82662894       0.66666667       0.71838492 </v>
   <v>       0.83549502       0.00000000       0.44542296 </v>
   <v>       0.83549502       0.00000000       0.94542296 </v>
   <v>       0.83549502       0.33333333       0.44542296 </v>
   <v>       0.83549502       0.33333333       0.94542296 </v>
   <v>       0.83549502       0.66666667       0.44542296 </v>
   <v>       0.83549502       0.66666667       0.94542296 </v>
   <v>       0.66450498       0.16666667       0.05457704 </v>
   <v>       0.66450498       0.16666667       0.55457704 </v>
   <v>       0.66450498       0.50000000       0.05457704 </v>
   <v>       0.66450498       0.50000000       0.55457704 </v>
   <v>       0.66450498       0.83333333       0.05457704 </v>
   <v>       0.66450498       0.83333333       0.55457704 </v>
   <v>       0.49646913       0.00000000       0.12833205 </v>
   <v>       0.49646913       0.00000000       0.62833205 </v>
   <v>       0.49646913       0.33333333       0.12833205 </v>
   <v>       0.49646913       0.33333333       0.62833205 </v>
   <v>       0.49646913       0.66666667       0.12833205 </v>
   <v>       0.49646913       0.66666667       0.62833205 </v>
   <v>       0.00353087       0.16666667       0.37166795 </v>
   <v>       0.00353087       0.16666667       0.87166795 </v>
   <v>       0.00353087       0.50000000       0.37166795 </v>
   <v>       0.00353087       0.50000000       0.87166795 </v>
   <v>       0.00353087       0.83333333       0.37166795 </v>
   <v>       0.00353087       0.83333333       0.87166795 </v>
   <v>       0.17337106       0.00000000       0.28161508 </v>
   <v>       0.17337106       0.00000000       0.78161508 </v>
   <v>       0.17337106       0.33333333       0.28161508 </v>
   <v>       0.17337106       0.33333333       0.78161508 </v>
   <v>       0.17337106       0.66666667       0.28161508 </v>
   <v>       0.17337106       0.66666667       0.78161508 </v>
   <v>       0.32662894       0.16666667       0.21838492 </v>
   <v>       0.32662894       0.16666667       0.71838492 </v>
   <v>       0.32662894       0.50000000       0.21838492 </v>
   <v>       0.32662894       0.50000000       0.71838492 </v>
   <v>       0.32662894       0.83333333       0.21838492 </v>
   <v>       0.32662894       0.83333333       0.71838492 </v>
   <v>       0.33549502       0.16666667       0.44542296 </v>
   <v>       0.33549502       0.16666667       0.94542296 </v>
   <v>       0.33549502       0.50000000       0.44542296 </v>
   <v>       0.33549502       0.50000000       0.94542296 </v>
   <v>       0.33549502       0.83333333       0.44542296 </v>
   <v>       0.33549502       0.83333333       0.94542296 </v>
   <v>       0.16450498       0.00000000       0.05457704 </v>
   <v>       0.16450498       0.33333333       0.05457704 </v>
   <v>       0.16450498       0.33333333       0.55457704 </v>
   <v>       0.16450498       0.66666667       0.05457704 </v>
   <v>       0.16450498       0.66666667       0.55457704 </v>
   <v>       0.16450498       0.00000000       0.55457704 </v>
  </varray>
 </structure>
 <calculation>
  <scstep>
   <time name="dav">    1.81    1.81</time>
   <time name="total">    1.94    1.94</time>
   <energy>
    <i name="alphaZ">   5530.94812622 </i>
    <i name="ewald"> -88600.23035105 </i>
    <i name="hartreedc"> -33377.47507995 </i>
    <i name="XCdc">   4139.93984373 </i>
    <i name="pawpsdc"> 101761.42039030 </i>
    <i name="pawaedc">-117900.86270521 </i>
    <i name="eentropy">     -0.00938040 </i>
    <i name="bandstr">  16359.58474177 </i>
    <i name="atom"> 134104.30092448 </i>
    <i name="e_fr_energy">  22017.61650988 </i>
    <i name="e_wo_entrp">  22017.62589029 </i>
    <i name="e_0_energy">  22017.62120009 </i>
   </energy>
  </scstep>
  <scstep>
   <time name="dav">    1.71    1.71</time>
   <time name="total">    1.71    1.71</time>
   <energy>
    <i name="e_fr_energy">   4874.99770989 </i>
    <i name="e_wo_entrp">   4875.02367013 </i>
    <i name="e_0_energy">   4875.01069001 </i>
   </energy>
  </scstep>
  <scstep>
   <time name="dav">    2.09    2.09</time>
   <time name="total">    2.09    2.09</time>
   <energy>
    <i name="e_fr_energy">   -149.58034739 </i>
    <i name="e_wo_entrp">   -149.58034739 </i>
    <i name="e_0_energy">   -149.58034739 </i>
   </energy>
  </scstep>
  <scstep>
   <time name="dav">    2.03    2.03</time>
   <time name="total">    2.03    2.03</time>
   <energy>
    <i name="e_fr_energy">   -777.27086728 </i>
    <i name="e_wo_entrp">   -777.27086728 </i>
    <i name="e_0_energy">   -777.27086728 </i>
   </energy>
  </scstep>
  <scstep>
   <time name="dav">    2.30    2.30</time>
   <time name="total">    2.58    2.58</time>
   <energy>
    <i name="e_fr_energy">   -820.36649439 </i>
    <i name="e_wo_entrp">   -820.36649439 </i>
    <i name="e_0_energy">   -820.36649439 </i>
   </energy>
  </scstep>
  <scstep>
   <time name="diag">    0.24    0.24</time>
   <time name="diis">    2.49    2.49</time>
   <time name="orth">    0.03    0.03</time>
   <time name="total">    3.15    3.15</time>
   <energy>
    <i name="e_fr_energy">   -704.84708027 </i>
    <i name="e_wo_entrp">   -704.84708019 </i>
    <i name="e_0_energy">   -704.84708023 </i>
   </energy>
  </scstep>
  <scstep>
   <time name="diag">    0.24    0.24</time>
   <time name="diis">    2.66    2.66</time>
   <time name="orth">    0.03    0.03</time>
   <time name="total">    3.32    3.32</time>
   <energy>
    <i name="e_fr_energy">   -708.69482828 </i>
    <i name="e_wo_entrp">   -708.68261053 </i>
    <i name="e_0_energy">   -708.68871941 </i>
   </energy>
  </scstep>
  <scstep>
   <time name="diag">    0.24    0.24</time>
   <time name="diis">    2.40    2.40</time>
   <time name="orth">    0.03    0.03</time>
   <time name="total">    3.06    3.06</time>
   <energy>
    <i name="e_fr_energy">   -708.66335089 </i>
    <i name="e_wo_entrp">   -708.66335089 </i>
    <i name="e_0_energy">   -708.66335089 </i>
   </energy>
  </scstep>
  <scstep>
   <time name="diag">    0.24    0.24</time>
   <time name="diis">    2.95    2.95</time>
   <time name="orth">    0.03    0.03</time>
   <time name="total">    3.61    3.61</time>
   <energy>
    <i name="e_fr_energy">   -708.15281806 </i>
    <i name="e_wo_entrp">   -708.13897356 </i>
    <i name="e_0_energy">   -708.14589581 </i>
   </energy>
  </scstep>
  <scstep>
   <time name="diag">    0.24    0.24</time>
   <time name="diis">    2.53    2.53</time>
   <time name="orth">    0.03    0.03</time>
   <time name="total">    3.20    3.20</time>
   <energy>
    <i name="e_fr_energy">   -708.14565627 </i>
    <i name="e_wo_entrp">   -708.14332781 </i>
    <i name="e_0_energy">   -708.14449204 </i>
   </energy>
  </scstep>
  <scstep>
   <time name="diag">    0.24    0.24</time>
   <time name="diis">    3.04    3.04</time>
   <time name="orth">    0.03    0.03</time>
   <time name="total">    3.71    3.71</time>
   <energy>
    <i name="e_fr_energy">   -708.16844790 </i>
    <i name="e_wo_entrp">   -708.15529865 </i>
    <i name="e_0_energy">   -708.16187327 </i>
   </energy>
  </scstep>
  <scstep>
   <time name="diag">    0.24    0.24</time>
   <time name="diis">    2.50    2.50</time>
   <time name="orth">    0.03    0.03</time>
   <time name="total">    3.16    3.16</time>
   <energy>
    <i name="e_fr_energy">   -708.18006321 </i>
    <i name="e_wo_entrp">   -708.17812112 </i>
    <i name="e_0_energy">   -708.17909217 </i>
   </energy>
  </scstep>
  <scstep>
   <time name="diag">    0.24    0.24</time>
   <time name="diis">    2.66    2.65</time>
   <time name="orth">    0.03    0.03</time>
   <time name="total">    3.32    3.32</time>
   <energy>
    <i name="e_fr_energy">   -708.17510487 </i>
    <i name="e_wo_entrp">   -708.16710596 </i>
    <i name="e_0_energy">   -708.17110542 </i>
   </energy>
  </scstep>
  <scstep>
   <time name="diag">    0.24    0.24</time>
   <time name="diis">    2.85    2.85</time>
   <time name="orth">    0.03    0.03</time>
   <time name="total">    3.53    3.53</time>
   <energy>
    <i name="e_fr_energy">   -708.17558734 </i>
    <i name="e_wo_entrp">   -708.16453521 </i>
    <i name="e_0_energy">   -708.17006127 </i>
   </energy>
  </scstep>
  <scstep>
   <time name="diag">    0.24    0.24</time>
   <time name="diis">    2.94    2.94</time>
   <time name="orth">    0.03    0.03</time>
   <time name="total">    3.61    3.61</time>
   <energy>
    <i name="e_fr_energy">   -708.17565618 </i>
    <i name="e_wo_entrp">   -708.16618386 </i>
    <i name="e_0_energy">   -708.17092002 </i>
   </energy>
  </scstep>
  <scstep>
   <time name="diag">    0.24    0.24</time>
   <time name="diis">    2.20    2.20</time>
   <time name="orth">    0.03    0.03</time>
   <time name="total">    2.88    2.88</time>
   <energy>
    <i name="e_fr_energy">   -708.17573390 </i>
    <i name="e_wo_entrp">   -708.16607526 </i>
    <i name="e_0_energy">   -708.17090458 </i>
   </energy>
  </scstep>
  <scstep>
   <time name="diag">    0.24    0.24</time>
   <time name="diis">    1.96    1.96</time>
   <time name="orth">    0.03    0.03</time>
   <time name="total">    2.64    2.64</time>
   <energy>
    <i name="e_fr_energy">   -708.17575997 </i>
    <i name="e_wo_entrp">   -708.16582156 </i>
    <i name="e_0_energy">   -708.17079076 </i>
   </energy>
  </scstep>
  <scstep>
   <time name="diag">    0.24    0.24</time>
   <time name="diis">    1.84    1.84</time>
   <time name="orth">    0.03    0.03</time>
   <time name="total">    2.52    2.52</time>
   <energy>
    <i name="e_fr_energy">   -708.17576966 </i>
    <i name="e_wo_entrp">   -708.16596499 </i>
    <i name="e_0_energy">   -708.17086733 </i>
   </energy>
  </scstep>
  <scstep>
   <time name="diag">    0.24    0.24</time>
   <time name="diis">    1.72    1.72</time>
   <time name="orth">    0.03    0.03</time>
   <time name="total">    2.11    2.11</time>
   <energy>
    <i name="alphaZ">   5530.94812622 </i>
    <i name="ewald"> -88600.23035105 </i>
    <i name="hartreedc"> -33847.22255520 </i>
    <i name="XCdc">   4204.28321502 </i>
    <i name="pawpsdc"> 119898.06416499 </i>
    <i name="pawaedc">-136297.70487078 </i>
    <i name="eentropy">     -0.00978461 </i>
    <i name="bandstr">  -5700.60464202 </i>
    <i name="atom"> 134104.30092448 </i>
    <i name="e_fr_energy">   -708.17577297 </i>
    <i name="e_wo_entrp">   -708.16598835 </i>
    <i name="e_0_energy">   -708.17088066 </i>
   </energy>
  </scstep>
  <structure>
   <crystal>
    <varray name="basis" >
     <v>       0.00000000      12.28047342       0.00000000 </v>
     <v>       9.14270205       0.00000000       0.00000000 </v>
     <v>       0.00000000      -2.76826177     -11.30069772 </v>
    </varray>
    <i name="volume">   1268.80515525 </i>
    <varray name="rec_basis" >
     <v>       0.00000000       0.08143009      -0.01994742 </v>
     <v>       0.10937686      -0.00000000       0.00000000 </v>
     <v>       0.00000000       0.00000000      -0.08849011 </v>
    </varray>
   </crystal>
   <varray name="positions" >
    <v>       0.65883830       0.00000000       0.15736517 </v>
    <v>       0.65883830       0.00000000       0.65736517 </v>
    <v>       0.65883830       0.33333333       0.15736517 </v>
    <v>       0.65883830       0.33333333       0.65736517 </v>
    <v>       0.65883830       0.66666667       0.15736517 </v>
    <v>       0.65883830       0.66666667       0.65736517 </v>
    <v>       0.84116170       0.16666667       0.34263483 </v>
    <v>       0.84116170       0.16666667       0.84263483 </v>
    <v>       0.84116170       0.50000000       0.34263483 </v>
    <v>       0.84116170       0.50000000       0.84263483 </v>
    <v>       0.84116170       0.83333333       0.34263483 </v>
    <v>       0.84116170       0.83333333       0.84263483 </v>
    <v>       0.59047440       0.16666667       0.39739300 </v>
    <v>       0.59047440       0.16666667       0.89739300 </v>
    <v>       0.59047440       0.50000000       0.39739300 </v>
    <v>       0.59047440       0.50000000       0.89739300 </v>
    <v>       0.59047440       0.83333333       0.39739300 </v>
    <v>       0.59047440       0.83333333       0.89739300 </v>
    <v>       0.90952560       0.00000000       0.10260700 </v>
    <v>       0.90952560       0.00000000       0.60260700 </v>
    <v>       0.90952560       0.33333333       0.10260700 </v>
    <v>       0.90952560       0.33333333       0.60260700 </v>
    <v>       0.90952560       0.66666667       0.10260700 </v>
    <v>       0.90952560       0.66666667       0.60260700 </v>
    <v>       0.15883830       0.16666667       0.15736517 </v>
    <v>       0.15883830       0.16666667       0.65736517 </v>
    <v>       0.15883830       0.50000000       0.15736517 </v>
    <v>       0.15883830       0.50000000       0.65736517 </v>
    <v>       0.15883830       0.83333333       0.15736517 </v>
    <v>       0.15883830       0.83333333       0.65736517 </v>
    <v>       0.34116170       0.00000000       0.34263483 </v>
    <v>       0.34116170       0.00000000       0.84263483 </v>
    <v>       0.34116170       0.33333333       0.34263483 </v>
    <v>       0.34116170       0.33333333       0.84263483 </v>
    <v>       0.34116170       0.66666667       0.34263483 </v>
    <v>       0.34116170       0.66666667       0.84263483 </v>
    <v>       0.09047440       0.00000000       0.39739300 </v>
    <v>       0.09047440       0.00000000       0.89739300 </v>
    <v>       0.09047440       0.33333333       0.39739300 </v>
    <v>       0.09047440       0.33333333       0.89739300 </v>
    <v>       0.09047440       0.66666667       0.39739300 </v>
    <v>       0.09047440       0.66666667       0.89739300 </v>
    <v>       0.40952560       0.16666667       0.10260700 </v>
    <v>       0.40952560       0.16666667       0.60260700 </v>
    <v>       0.40952560       0.50000000       0.10260700 </v>
    <v>       0.40952560       0.50000000       0.60260700 </v>
    <v>       0.40952560       0.83333333       0.10260700 </v>
    <v>       0.40952560       0.83333333       0.60260700 </v>
    <v>       0.99646913       0.16666667       0.12833205 </v>
    <v>       0.99646913       0.16666667       0.62833205 </v>
    <v>       0.99646913       0.50000000       0.12833205 </v>
    <v>       0.99646913       0.50000000       0.62833205 </v>
    <v>       0.99646913       0.83333333       0.12833205 </v>
    <v>       0.99646913       0.83333333       0.62833205 </v>
    <v>       0.50353087       0.00000000       0.37166795 </v>
    <v>       0.50353087       0.00000000       0.87166795 </v>
    <v>       0.50353087       0.33333333       0.37166795 </v>
    <v>       0.50353087       0.33333333       0.87166795 </v>
    <v>       0.50353087       0.66666667       0.37166795 </v>
    <v>       0.50353087       0.66666667       0.87166795 </v>
    <v>       0.67337106       0.16666667       0.28161508 </v>
    <v>       0.67337106       0.16666667       0.78161508 </v>
    <v>       0.67337106       0.50000000       0.28161508 </v>
    <v>       0.67337106       0.50000000       0.78161508 </v>
    <v>       0.67337106       0.83333333       0.28161508 </v>
    <v>       0.67337106       0.83333333       0.78161508 </v>
    <v>       0.82662894       0.00000000       0.21838492 </v>
    <v>       0.82662894       0.00000000       0.71838492 </v>
    <v>       0.82662894       0.33333333       0.21838492 </v>
    <v>       0.82662894       0.33333333       0.71838492 </v>
    <v>       0.82662894       0.66666667       0.21838492 </v>
    <v>       0.82662894       0.66666667       0.71838492 </v>
    <v>       0.83549502       0.00000000       0.44542296 </v>
    <v>       0.83549502       0.00000000       0.94542296 </v>
    <v>       0.83549502       0.33333333       0.44542296 </v>
    <v>       0.83549502       0.33333333       0.94542296 </v>
    <v>       0.83549502       0.66666667       0.44542296 </v>
    <v>       0.83549502       0.66666667       0.94542296 </v>
    <v>       0.66450498       0.16666667       0.05457704 </v>
    <v>       0.66450498       0.16666667       0.55457704 </v>
    <v>       0.66450498       0.50000000       0.05457704 </v>
    <v>       0.66450498       0.50000000       0.55457704 </v>
    <v>       0.66450498       0.83333333       0.05457704 </v>
    <v>       0.66450498       0.83333333       0.55457704 </v>
    <v>       0.49646913       0.00000000       0.12833205 </v>
    <v>       0.49646913       0.00000000       0.62833205 </v>
    <v>       0.49646913       0.33333333       0.12833205 </v>
    <v>       0.49646913       0.33333333       0.62833205 </v>
    <v>       0.49646913       0.66666667       0.12833205 </v>
    <v>       0.49646913       0.66666667       0.62833205 </v>
    <v>       0.00353087       0.16666667       0.37166795 </v>
    <v>       0.00353087       0.16666667       0.87166795 </v>
    <v>       0.00353087       0.50000000       0.37166795 </v>
    <v>       0.00353087       0.50000000       0.87166795 </v>
    <v>       0.00353087       0.83333333       0.37166795 </v>
    <v>       0.00353087       0.83333333       0.87166795 </v>
    <v>       0.17337106       0.00000000       0.28161508 </v>
    <v>       0.17337106       0.00000000       0.78161508 </v>
    <v>       0.17337106       0.33333333       0.28161508 </v>
    <v>       0.17337106       0.33333333       0.78161508 </v>
    <v>       0.17337106       0.66666667       0.28161508 </v>
    <v>       0.17337106       0.66666667       0.78161508 </v>
    <v>       0.32662894       0.16666667       0.21838492 </v>
    <v>       0.32662894       0.16666667       0.71838492 </v>
    <v>       0.32662894       0.50000000       0.21838492 </v>
    <v>       0.32662894       0.50000000       0.71838492 </v>
    <v>       0.32662894       0.83333333       0.21838492 </v>
    <v>       0.32662894       0.83333333       0.71838492 </v>
    <v>       0.33549502       0.16666667       0.44542296 </v>
    <v>       0.33549502       0.16666667       0.94542296 </v>
    <v>       0.33549502       0.50000000       0.44542296 </v>
    <v>       0.33549502       0.50000000       0.94542296 </v>
    <v>       0.33549502       0.83333333       0.44542296 </v>
    <v>       0.33549502       0.83333333       0.94542296 </v>
    <v>       0.16450498       0.00000000       0.05457704 </v>
    <v>       0.16450498       0.33333333       0.05457704 </v>
    <v>       0.16450498       0.33333333       0.55457704 </v>
    <v>       0.16450498       0.66666667       0.05457704 </v>
    <v>       0.16450498       0.66666667       0.55457704 </v>
    <v>       0.16450498       0.00000000       0.55457704 </v>
   </varray>
  </structure>
  <varray name="forces" >
   <v>       0.00000000       0.00401465      -0.00858861 </v>
   <v>       0.00000000      -0.11022431       0.07370647 </v>
   <v>      -0.00472376      -0.00015565      -0.00192441 </v>
   <v>      -0.01551547      -0.05909095       0.06039739 </v>
   <v>       0.00472376      -0.00015565      -0.00192441 </v>
   <v>       0.01551547      -0.05909095       0.06039739 </v>
   <v>      -0.05254532       0.47365210      -0.26473935 </v>
   <v>      -0.02005898       0.16822156       0.04752208 </v>
   <v>       0.00000000       0.20319645      -0.18600495 </v>
   <v>       0.00000000       0.10260518       0.04255100 </v>
   <v>       0.05254532       0.47365210      -0.26473935 </v>
   <v>       0.02005898       0.16822156       0.04752208 </v>
   <v>      -0.02254220      -0.04346799      -0.06248490 </v>
   <v>      -0.02041287      -0.09779014       0.05136233 </v>
   <v>       0.00000000      -0.02160790      -0.04686973 </v>
   <v>       0.00000000      -0.06685537       0.02555267 </v>
   <v>       0.02254220      -0.04346799      -0.06248490 </v>
   <v>       0.02041287      -0.09779014       0.05136233 </v>
   <v>       0.00000000       0.07796258      -0.09956234 </v>
   <v>       0.00000000       0.71615084       0.11559399 </v>
   <v>      -0.04986334       0.05066273      -0.07053972 </v>
   <v>      -0.24764608       0.31597441       0.02068825 </v>
   <v>       0.04986334       0.05066273      -0.07053972 </v>
   <v>       0.24764608       0.31597441       0.02068825 </v>
   <v>      -0.21636454      -0.06729677      -0.16899415 </v>
   <v>      -1.29542054       0.28703819       1.28362400 </v>
   <v>       0.00000000      -0.06138698      -0.07599087 </v>
   <v>       0.00000000       0.03078136       0.42712410 </v>
   <v>       0.21636454      -0.06729677      -0.16899415 </v>
   <v>       1.29542054       0.28703819       1.28362400 </v>
   <v>       0.00000000      -0.41245240      -0.31339506 </v>
   <v>       0.00000000      -0.30707248       0.49097065 </v>
   <v>      -0.15899443      -0.11318470      -0.20582043 </v>
   <v>      -0.22018608      -0.03134665       0.26727059 </v>
   <v>       0.15899443      -0.11318470      -0.20582043 </v>
   <v>       0.22018608      -0.03134665       0.26727059 </v>
   <v>       0.00000000       0.43835079      -1.60245162 </v>
   <v>       0.00000000       0.38137642       0.27286009 </v>
   <v>      -0.38238290      -0.09577494      -0.38940737 </v>
   <v>      -0.08305143       0.07745281       0.13131480 </v>
   <v>       0.38238290      -0.09577494      -0.38940737 </v>
   <v>       0.08305143       0.07745281       0.13131480 </v>
   <v>      -0.02152414      -0.10976450       0.08597967 </v>
   <v>      -0.28090529      -0.62849479       0.06189522 </v>
   <v>       0.00000000      -0.04080108       0.05228786 </v>
   <v>       0.00000000      -0.14636194       0.01646525 </v>
   <v>       0.02152414      -0.10976450       0.08597967 </v>
   <v>       0.28090529      -0.62849479       0.06189522 </v>
   <v>       0.03798084      -0.07624763       0.06431364 </v>
   <v>       0.42445448      -0.84752997      -0.13466383 </v>
   <v>       0.00000000      -0.04131872       0.01745790 </v>
   <v>       0.00000000      -0.18841005      -0.05044708 </v>
   <v>      -0.03798084      -0.07624763       0.06431364 </v>
   <v>      -0.42445448      -0.84752997      -0.13466383 </v>
   <v>       0.00000000       0.12256342       0.05259913 </v>
   <v>       0.00000000       0.15278499      -0.06518970 </v>
   <v>       0.04082667       0.10919615       0.04656952 </v>
   <v>       0.04950786       0.13931399      -0.05038077 </v>
   <v>      -0.04082667       0.10919615       0.04656952 </v>
   <v>      -0.04950786       0.13931399      -0.05038077 </v>
   <v>       0.01681181      -0.06305937       0.07152513 </v>
   <v>       0.02038503      -0.02141851      -0.03023658 </v>
   <v>       0.00000000      -0.05775104       0.06570743 </v>
   <v>       0.00000000      -0.03442451      -0.01895576 </v>
   <v>      -0.01681181      -0.06305937       0.07152513 </v>
   <v>      -0.02038503      -0.02141851      -0.03023658 </v>
   <v>       0.00000000      -0.08623161       0.13017423 </v>
   <v>       0.00000000      -0.17440945      -0.13353202 </v>
   <v>       0.05690808      -0.07768133       0.11174648 </v>
   <v>       0.06437567      -0.16389223      -0.12440628 </v>
   <v>      -0.05690808      -0.07768133       0.11174648 </v>
   <v>      -0.06437567      -0.16389223      -0.12440628 </v>
   <v>       0.00000000      -0.38663997       0.11131328 </v>
   <v>       0.00000000      -0.21550932      -0.03896919 </v>
   <v>       0.09661837      -0.30771817       0.06570771 </v>
   <v>       0.01971501      -0.20857567      -0.04199192 </v>
   <v>      -0.09661837      -0.30771817       0.06570771 </v>
   <v>      -0.01971501      -0.20857567      -0.04199192 </v>
   <v>       0.00999120       0.17187577       0.02465371 </v>
   <v>       0.02585345       0.16941722       0.03826072 </v>
   <v>       0.00000000       0.17178113       0.02239079 </v>
   <v>       0.00000000       0.17019840       0.03397482 </v>
   <v>      -0.00999120       0.17187577       0.02465371 </v>
   <v>      -0.02585345       0.16941722       0.03826072 </v>
   <v>       0.00000000       0.06819932      -0.05283983 </v>
   <v>       0.00000000       0.28785457      -0.08400471 </v>
   <v>       0.02569199       0.04983542      -0.04733725 </v>
   <v>       0.07832188       0.14527639      -0.05409353 </v>
   <v>      -0.02569199       0.04983542      -0.04733725 </v>
   <v>      -0.07832188       0.14527639      -0.05409353 </v>
   <v>       0.54640858      -0.58695101       0.59260236 </v>
   <v>       0.07475582      -0.15097748      -0.03738404 </v>
   <v>       0.00000000      -0.11853282       0.14911854 </v>
   <v>       0.00000000      -0.06537001      -0.00916558 </v>
   <v>      -0.54640858      -0.58695101       0.59260236 </v>
   <v>      -0.07475582      -0.15097748      -0.03738404 </v>
   <v>       0.00000000       0.27137114       0.76792986 </v>
   <v>       0.00000000      -0.24241707      -1.23930760 </v>
   <v>       0.08862211       0.07102111       0.17735090 </v>
   <v>       0.10920848      -0.07561672      -0.16291622 </v>
   <v>      -0.08862211       0.07102111       0.17735090 </v>
   <v>      -0.10920848      -0.07561672      -0.16291622 </v>
   <v>       0.05289966       0.15213930       0.07921723 </v>
   <v>       0.42607129       0.56683511      -0.65427518 </v>
   <v>       0.00000000       0.09882233       0.03171723 </v>
   <v>       0.00000000       0.15233733      -0.12242714 </v>
   <v>      -0.05289966       0.15213930       0.07921723 </v>
   <v>      -0.42607129       0.56683511      -0.65427518 </v>
   <v>       0.24267745       0.16940964       0.21047311 </v>
   <v>       0.05982164      -0.10820030      -0.24507208 </v>
   <v>       0.00000000      -0.07857955       0.02401212 </v>
   <v>       0.00000000      -0.13895752      -0.12412817 </v>
   <v>      -0.24267745       0.16940964       0.21047311 </v>
   <v>      -0.05982164      -0.10820030      -0.24507208 </v>
   <v>       0.00000000       0.14781445       0.02444618 </v>
   <v>       0.03750773       0.16900054       0.02397674 </v>
   <v>       0.68121154       0.17596488       0.05176154 </v>
   <v>      -0.03750773       0.16900054       0.02397674 </v>
   <v>      -0.68121154       0.17596488       0.05176154 </v>
   <v>       0.00000000       0.34104505      -0.31921388 </v>
  </varray>
  <varray name="stress" >
   <v>      81.12464701       0.00000000       0.00000000 </v>
   <v>       0.00000000      77.49770666      -2.13311185 </v>
   <v>       0.00000000      -2.13311161      76.15705955 </v>
  </varray>
  <energy>
   <i name="e_fr_energy">   -708.17577297 </i>
   <i name="e_wo_entrp">   -708.16598835 </i>
   <i name="e_0_energy">   -708.17088066 </i>
  </energy>
  <time name="totalsc">   63.70   63.71</time>
 </calculation>
 <calculation>
  <scstep>
   <time name="dav">    2.00    2.00</time>
   <time name="total">    2.38    2.38</time>
   <energy>
    <i name="alphaZ">   5530.94812622 </i>
    <i name="ewald"> -88642.70745451 </i>
    <i name="hartreedc"> -33809.40551155 </i>
    <i name="XCdc">   4204.30158599 </i>
    <i name="pawpsdc"> 119897.97994781 </i>
    <i name="pawaedc">-136297.62240272 </i>
    <i name="eentropy">     -0.00000000 </i>
    <i name="bandstr">  -5694.93577592 </i>
    <i name="atom"> 134104.30092448 </i>
    <i name="e_fr_energy">   -707.14056020 </i>
    <i name="e_wo_entrp">   -707.14056020 </i>
    <i name="e_0_energy">   -707.14056020 </i>
   </energy>
  </scstep>
  <scstep>
   <time name="diag">    0.24    0.24</time>
   <time name="diis">    2.65    2.65</time>
   <time name="orth">    0.03    0.03</time>
   <time name="total">    3.31    3.31</time>
   <energy>
    <i name="e_fr_energy">   -708.30558200 </i>
    <i name="e_wo_entrp">   -708.30558200 </i>
    <i name="e_0_energy">   -708.30558200 </i>
   </energy>
  </scstep>
  <scstep>
   <time name="diag">    0.24    0.24</time>
   <time name="diis">    2.88    2.88</time>
   <time name="orth">    0.03    0.03</time>
   <time name="total">    3.54    3.54</time>
   <energy>
    <i name="e_fr_energy">   -708.52133130 </i>
    <i name="e_wo_entrp">   -708.52133130 </i>
    <i name="e_0_energy">   -708.52133130 </i>
   </energy>
  </scstep>
  <scstep>
   <time name="diag">    0.24    0.24</time>
   <time name="diis">    2.97    2.97</time>
   <time name="orth">    0.03    0.03</time>
   <time name="total">    3.63    3.63</time>
   <energy>
    <i name="e_fr_energy">   -708.50677543 </i>
    <i name="e_wo_entrp">   -708.50677543 </i>
    <i name="e_0_energy">   -708.50677543 </i>
   </energy>
  </scstep>
  <scstep>
   <time name="diag">    0.24    0.24</time>
   <time name="diis">    2.74    2.74</time>
   <time name="orth">    0.03    0.03</time>
   <time name="total">    3.41    3.41</time>
   <energy>
    <i name="e_fr_energy">   -708.48443330 </i>
    <i name="e_wo_entrp">   -708.48443330 </i>
    <i name="e_0_energy">   -708.48443330 </i>
   </energy>
  </scstep>
  <scstep>
   <time name="diag">    0.24    0.24</time>
   <time name="diis">    2.95    2.95</time>
   <time name="orth">    0.03    0.03</time>
   <time name="total">    3.61    3.61</time>
   <energy>
    <i name="e_fr_energy">   -708.48301590 </i>
    <i name="e_wo_entrp">   -708.48301590 </i>
    <i name="e_0_energy">   -708.48301590 </i>
   </energy>
  </scstep>
  <scstep>
   <time name="diag">    0.24    0.24</time>
   <time name="diis">    2.60    2.60</time>
   <time name="orth">    0.03    0.03</time>
   <time name="total">    3.26    3.26</time>
   <energy>
    <i name="e_fr_energy">   -708.48309646 </i>
    <i name="e_wo_entrp">   -708.48309646 </i>
    <i name="e_0_energy">   -708.48309646 </i>
   </energy>
  </scstep>
  <scstep>
   <time name="diag">    0.24    0.24</time>
   <time name="diis">    2.89    2.89</time>
   <time name="orth">    0.03    0.03</time>
   <time name="total">    3.55    3.55</time>
   <energy>
    <i name="e_fr_energy">   -708.48273945 </i>
    <i name="e_wo_entrp">   -708.48273945 </i>
    <i name="e_0_energy">   -708.48273945 </i>
   </energy>
  </scstep>
  <scstep>
   <time name="diag">    0.24    0.24</time>
   <time name="diis">    2.35    2.35</time>
   <time name="orth">    0.03    0.03</time>
   <time name="total">    3.02    3.02</time>
   <energy>
    <i name="e_fr_energy">   -708.48275600 </i>
    <i name="e_wo_entrp">   -708.48275600 </i>
    <i name="e_0_energy">   -708.48275600 </i>
   </energy>
  </scstep>
  <scstep>
   <time name="diag">    0.24    0.24</time>
   <time name="diis">    2.01    2.01</time>
   <time name="orth">    0.03    0.03</time>
   <time name="total">    2.68    2.68</time>
   <energy>
    <i name="e_fr_energy">   -708.48276308 </i>
    <i name="e_wo_entrp">   -708.48276308 </i>
    <i name="e_0_energy">   -708.48276308 </i>
   </energy>
  </scstep>
  <scstep>
   <time name="diag">    0.24    0.24</time>
   <time name="diis">    1.82    1.82</time>
   <time name="orth">    0.03    0.03</time>
   <time name="total">    2.21    2.21</time>
   <energy>
    <i name="alphaZ">   5530.94812622 </i>
    <i name="ewald"> -88642.70745451 </i>
    <i name="hartreedc"> -33806.59410518 </i>
    <i name="XCdc">   4204.28459483 </i>
    <i name="pawpsdc"> 119949.08856339 </i>
    <i name="pawaedc">-136348.99771952 </i>
    <i name="eentropy">     -0.00000000 </i>
    <i name="bandstr">  -5698.80569477 </i>
    <i name="atom"> 134104.30092448 </i>
    <i name="e_fr_energy">   -708.48276506 </i>
    <i name="e_wo_entrp">   -708.48276506 </i>
    <i name="e_0_energy">   -708.48276506 </i>
   </energy>
  </scstep>
  <structure>
   <crystal>
    <varray name="basis" >
     <v>       0.00000000      12.28047342       0.00000000 </v>
     <v>       9.14270205       0.00000000       0.00000000 </v>
     <v>       0.00000000      -2.76826177     -11.30069772 </v>
    </varray>
    <i name="volume">   1268.80515525 </i>
    <varray name="rec_basis" >
     <v>       0.00000000       0.08143009      -0.01994742 </v>
     <v>       0.10937686      -0.00000000       0.00000000 </v>
     <v>       0.00000000       0.00000000      -0.08849011 </v>
    </varray>
   </crystal>
   <varray name="positions" >
    <v>       0.65886234       0.00000000       0.15740183 </v>
    <v>       0.65833437       0.00000000       0.65705052 </v>
    <v>       0.65883954       0.33330841       0.15737339 </v>
    <v>       0.65854805       0.33325146       0.65710733 </v>
    <v>       0.65883954       0.66669159       0.15737339 </v>
    <v>       0.65854805       0.66674854       0.65710733 </v>
    <v>       0.84327716       0.16638940       0.34376500 </v>
    <v>       0.84177681       0.16656082       0.84243196 </v>
    <v>       0.84213893       0.50000000       0.34342888 </v>
    <v>       0.84152383       0.50000000       0.84245318 </v>
    <v>       0.84327716       0.83361060       0.34376500 </v>
    <v>       0.84177681       0.83343918       0.84243196 </v>
    <v>       0.59036377       0.16654772       0.39765975 </v>
    <v>       0.59004081       0.16655896       0.89717373 </v>
    <v>       0.59043462       0.50000000       0.39759309 </v>
    <v>       0.59018718       0.50000000       0.89728392 </v>
    <v>       0.59036377       0.83345228       0.39765975 </v>
    <v>       0.59004081       0.83344104       0.89717373 </v>
    <v>       0.90992768       0.00000000       0.10303203 </v>
    <v>       0.91222769       0.00000000       0.60211353 </v>
    <v>       0.90979251       0.33307022       0.10290813 </v>
    <v>       0.91074697       0.33202660       0.60251868 </v>
    <v>       0.90979251       0.66692978       0.10290813 </v>
    <v>       0.91074697       0.66797340       0.60251868 </v>
    <v>       0.15873656       0.16552499       0.15808661 </v>
    <v>       0.15873065       0.15983121       0.65188538 </v>
    <v>       0.15867027       0.50000000       0.15768957 </v>
    <v>       0.15854819       0.50000000       0.65554178 </v>
    <v>       0.15873656       0.83447501       0.15808661 </v>
    <v>       0.15873065       0.84016879       0.65188538 </v>
    <v>       0.33984301       0.00000000       0.34397271 </v>
    <v>       0.33948293       0.00000000       0.84053888 </v>
    <v>       0.34091513       0.33249438       0.34351348 </v>
    <v>       0.34078136       0.33217149       0.84149385 </v>
    <v>       0.34091513       0.66750562       0.34351348 </v>
    <v>       0.34078136       0.66782851       0.84149385 </v>
    <v>       0.09373848       0.00000000       0.40423386 </v>
    <v>       0.09171002       0.00000000       0.89622816 </v>
    <v>       0.09047289       0.33131564       0.39905538 </v>
    <v>       0.09065230       0.33289510       0.89683242 </v>
    <v>       0.09047289       0.66868436       0.39905538 </v>
    <v>       0.09065230       0.66710490       0.89683242 </v>
    <v>       0.40901166       0.16655309       0.10223995 </v>
    <v>       0.40699706       0.16518443       0.60234277 </v>
    <v>       0.40931500       0.50000000       0.10238378 </v>
    <v>       0.40893479       0.50000000       0.60253671 </v>
    <v>       0.40901166       0.83344691       0.10223995 </v>
    <v>       0.40699706       0.83481557       0.60234277 </v>
    <v>       0.99610771       0.16686708       0.12805749 </v>
    <v>       0.99326928       0.16890636       0.62890692 </v>
    <v>       0.99629001       0.50000000       0.12825752 </v>
    <v>       0.99577753       0.50000000       0.62854740 </v>
    <v>       0.99610771       0.83313292       0.12805749 </v>
    <v>       0.99326928       0.83109364       0.62890692 </v>
    <v>       0.50396173       0.00000000       0.37144341 </v>
    <v>       0.50419380       0.00000000       0.87194625 </v>
    <v>       0.50391502       0.33354876       0.37146915 </v>
    <v>       0.50412663       0.33359457       0.87188303 </v>
    <v>       0.50391502       0.66645124       0.37146915 </v>
    <v>       0.50412663       0.66640543       0.87188303 </v>
    <v>       0.67305451       0.16675538       0.28130974 </v>
    <v>       0.67331602       0.16677423       0.78174416 </v>
    <v>       0.67308096       0.50000000       0.28133458 </v>
    <v>       0.67325407       0.50000000       0.78169600 </v>
    <v>       0.67305451       0.83324462       0.28130974 </v>
    <v>       0.67331602       0.83322577       0.78174416 </v>
    <v>       0.82616491       0.00000000       0.21782921 </v>
    <v>       0.82607228       0.00000000       0.71895497 </v>
    <v>       0.82621624       0.33363362       0.21790787 </v>
    <v>       0.82610482       0.33367302       0.71891601 </v>
    <v>       0.82621624       0.66636638       0.21790787 </v>
    <v>       0.82610482       0.66632698       0.71891601 </v>
    <v>       0.83386902       0.00000000       0.44494776 </v>
    <v>       0.83468591       0.00000000       0.94558932 </v>
    <v>       0.83422295       0.33384315       0.44514245 </v>
    <v>       0.83471606       0.33343736       0.94560222 </v>
    <v>       0.83422295       0.66615685       0.44514245 </v>
    <v>       0.83471606       0.66656264       0.94560222 </v>
    <v>       0.66515645       0.16671939       0.05447179 </v>
    <v>       0.66513370       0.16680309       0.55441371 </v>
    <v>       0.66515826       0.50000000       0.05448145 </v>
    <v>       0.66514089       0.50000000       0.55443200 </v>
    <v>       0.66515645       0.83328061       0.05447179 </v>
    <v>       0.66513370       0.83319691       0.55441371 </v>
    <v>       0.49678789       0.00000000       0.12855762 </v>
    <v>       0.49768078       0.00000000       0.62869066 </v>
    <v>       0.49671046       0.33346890       0.12853413 </v>
    <v>       0.49709189       0.33374661       0.62856297 </v>
    <v>       0.49671046       0.66653110       0.12853413 </v>
    <v>       0.49709189       0.66625339       0.62856297 </v>
    <v>       0.00065482       0.16954986       0.36913814 </v>
    <v>       0.00297374       0.16706113       0.87182755 </v>
    <v>       0.00292173       0.50000000       0.37103137 </v>
    <v>       0.00328289       0.50000000       0.87170708 </v>
    <v>       0.00065482       0.83045014       0.36913814 </v>
    <v>       0.00297374       0.83293887       0.87182755 </v>
    <v>       0.17369813       0.00000000       0.27833679 </v>
    <v>       0.17361136       0.00000000       0.78690568 </v>
    <v>       0.17347940       0.33380096       0.28085797 </v>
    <v>       0.17323079       0.33390959       0.78231057 </v>
    <v>       0.17347940       0.66619904       0.28085797 </v>
    <v>       0.17323079       0.66609041       0.78231057 </v>
    <v>       0.32715037       0.16694580       0.21804674 </v>
    <v>       0.32948531       0.16891489       0.72117802 </v>
    <v>       0.32698663       0.50000000       0.21824952 </v>
    <v>       0.32734519       0.50000000       0.71890756 </v>
    <v>       0.32715037       0.83305420       0.21804674 </v>
    <v>       0.32948531       0.83108511       0.72117802 </v>
    <v>       0.33595799       0.16794719       0.44452445 </v>
    <v>       0.33530580       0.16698232       0.94646917 </v>
    <v>       0.33516322       0.50000000       0.44532045 </v>
    <v>       0.33506859       0.50000000       0.94595286 </v>
    <v>       0.33595799       0.83205281       0.44452445 </v>
    <v>       0.33530580       0.83301768       0.94646917 </v>
[...]
       <r>    -9.7666     0.0000   142.0000 </r>
       <r>    -9.6567     0.3146   142.0346 </r>
       <r>    -9.5468    14.9712   143.6801 </r>
       <r>    -9.4369     2.9104   144.0000 </r>
       <r>    -9.3270     0.0004   144.0000 </r>
       <r>    -9.2171     0.4182   144.0460 </r>
       <r>    -9.1072    89.6934   153.9043 </r>
       <r>    -8.9973   401.2062   198.0012 </r>
       <r>    -8.8874   705.8288   275.5795 </r>
       <r>    -8.7774   758.3885   358.9347 </r>
       <r>    -8.6675   650.7565   430.4600 </r>
       <r>    -8.5576   592.9651   495.6333 </r>
       <r>    -8.4477   271.8381   525.5113 </r>
       <r>    -8.3378   163.1369   543.4418 </r>
       <r>    -8.2279   186.5837   563.9494 </r>
       <r>    -8.1180   152.1356   580.6708 </r>
       <r>    -8.0081   130.3835   595.0014 </r>
       <r>    -7.8982   128.0808   609.0789 </r>
       <r>    -7.7882    79.9254   617.8635 </r>
       <r>    -7.6783    35.4562   621.7606 </r>
       <r>    -7.5684     2.1779   621.9999 </r>
       <r>    -7.4585     0.0005   622.0000 </r>
       <r>    -7.3486     0.0000   622.0000 </r>
       <r>    -7.2387     0.0000   622.0000 </r>
       <r>    -7.1288     0.0000   622.0000 </r>
       <r>    -7.0189     0.0000   622.0000 </r>
       <r>    -6.9090     0.0000   622.0000 </r>
       <r>    -6.7991     0.0000   622.0000 </r>
       <r>    -6.6891     0.0000   622.0000 </r>
       <r>    -6.5792     0.0107   622.0012 </r>
       <r>    -6.4693     7.8384   622.8627 </r>
       <r>    -6.3594    10.3130   623.9962 </r>
       <r>    -6.2495     0.0344   624.0000 </r>
       <r>    -6.1396     0.0000   624.0000 </r>
       <r>    -6.0297     0.0000   624.0000 </r>
       <r>    -5.9198     0.0000   624.0000 </r>
       <r>    -5.8099     0.0000   624.0000 </r>
       <r>    -5.6999     0.0000   624.0000 </r>
       <r>    -5.5900     0.0000   624.0000 </r>
       <r>    -5.4801     0.0000   624.0000 </r>
       <r>    -5.3702     0.0000   624.0000 </r>
       <r>    -5.2603     0.0000   624.0000 </r>
       <r>    -5.1504     0.0000   624.0000 </r>
       <r>    -5.0405     0.0000   624.0000 </r>
       <r>    -4.9306     0.0000   624.0000 </r>
       <r>    -4.8207     0.0000   624.0000 </r>
       <r>    -4.7107     0.0000   624.0000 </r>
       <r>    -4.6008     0.0000   624.0000 </r>
       <r>    -4.4909     0.0000   624.0000 </r>
       <r>    -4.3810     0.0000   624.0000 </r>
       <r>    -4.2711     0.0000   624.0000 </r>
       <r>    -4.1612     0.0000   624.0000 </r>
       <r>    -4.0513     0.0000   624.0000 </r>
       <r>    -3.9414     0.0000   624.0000 </r>
       <r>    -3.8315     0.0000   624.0000 </r>
       <r>    -3.7215     0.0000   624.0000 </r>
       <r>    -3.6116     0.0000   624.0000 </r>
       <r>    -3.5017     0.0000   624.0000 </r>
       <r>    -3.3918     0.0000   624.0000 </r>
       <r>    -3.2819     0.1296   624.0142 </r>
       <r>    -3.1720     5.2213   624.5881 </r>
       <r>    -3.0621    10.7590   625.7707 </r>
       <r>    -2.9522    20.0752   627.9771 </r>
       <r>    -2.8423    28.6212   631.1229 </r>
       <r>    -2.7323    38.3627   635.3394 </r>
       <r>    -2.6224    26.1294   638.2113 </r>
       <r>    -2.5125    50.7888   643.7936 </r>
       <r>    -2.4026    39.4011   648.1242 </r>
       <r>    -2.2927    57.5332   654.4477 </r>
       <r>    -2.1828    60.3322   661.0789 </r>
       <r>    -2.0729    45.7447   666.1067 </r>
       <r>    -1.9630    43.4386   670.8811 </r>
       <r>    -1.8531    61.9304   677.6879 </r>
       <r>    -1.7431    43.0072   682.4149 </r>
       <r>    -1.6332    34.2409   686.1783 </r>
       <r>    -1.5233    32.3877   689.7381 </r>
       <r>    -1.4134    25.9466   692.5899 </r>
       <r>    -1.3035    33.5596   696.2785 </r>
       <r>    -1.1936    35.1688   700.1439 </r>
       <r>    -1.0837    36.9492   704.2050 </r>
       <r>    -0.9738    42.9782   708.9288 </r>
       <r>    -0.8639    36.2891   712.9174 </r>
       <r>    -0.7539    34.9088   716.7542 </r>
       <r>    -0.6440    32.2820   720.3024 </r>
       <r>    -0.5341    40.4180   724.7448 </r>
       <r>    -0.4242    39.4451   729.0802 </r>
       <r>    -0.3143    52.1933   734.8168 </r>
       <r>    -0.2044    38.1890   739.0142 </r>
       <r>    -0.0945    39.2307   743.3261 </r>
       <r>     0.0154    55.8549   749.4651 </r>
       <r>     0.1253    73.4739   757.5407 </r>
       <r>     0.2352    82.1142   766.5660 </r>
       <r>     0.3452    58.3361   772.9778 </r>
       <r>     0.4551    76.1486   781.3473 </r>
       <r>     0.5650    63.7112   788.3499 </r>
       <r>     0.6749    53.2936   794.2075 </r>
       <r>     0.7848    58.7551   800.6653 </r>
       <r>     0.8947    74.6694   808.8723 </r>
       <r>     1.0046    75.6593   817.1881 </r>
       <r>     1.1145    79.7935   825.9582 </r>
       <r>     1.2244    86.0752   835.4188 </r>
       <r>     1.3344    70.2176   843.1365 </r>
       <r>     1.4443    60.7893   849.8179 </r>
       <r>     1.5542    76.4178   858.2171 </r>
       <r>     1.6641    72.7905   866.2175 </r>
       <r>     1.7740    82.7876   875.3168 </r>
       <r>     1.8839    93.5450   885.5984 </r>
       <r>     1.9938    74.0477   893.7371 </r>
       <r>     2.1037    53.0841   899.5716 </r>
       <r>     2.2136    44.0009   904.4078 </r>
       <r>     2.3236    95.8423   914.9419 </r>
       <r>     2.4335   100.6817   926.0079 </r>
       <r>     2.5434    92.5775   936.1832 </r>
       <r>     2.6533    92.2036   946.3174 </r>
       <r>     2.7632   105.9872   957.9665 </r>
       <r>     2.8731   101.7607   969.1512 </r>
       <r>     2.9830   113.3628   981.6110 </r>
       <r>     3.0929   134.2705   996.3688 </r>
       <r>     3.2028   123.1251  1009.9016 </r>
       <r>     3.3128   108.4503  1021.8214 </r>
       <r>     3.4227    67.4403  1029.2339 </r>
       <r>     3.5326    64.7052  1036.3457 </r>
       <r>     3.6425    47.4550  1041.5615 </r>
       <r>     3.7524    66.5016  1048.8708 </r>
       <r>     3.8623    13.5941  1050.3649 </r>
       <r>     3.9722     7.4317  1051.1817 </r>
       <r>     4.0821    15.7367  1052.9113 </r>
       <r>     4.1920     4.1262  1053.3649 </r>
       <r>     4.3020     5.7510  1053.9970 </r>
       <r>     4.4119     0.0277  1054.0000 </r>
       <r>     4.5218     0.0000  1054.0000 </r>
       <r>     4.6317     0.0000  1054.0000 </r>
       <r>     4.7416     0.0000  1054.0000 </r>
       <r>     4.8515     0.0009  1054.0001 </r>
       <r>     4.9614     2.6955  1054.2964 </r>
       <r>     5.0713    14.8837  1055.9322 </r>
       <r>     5.1812     0.6165  1056.0000 </r>
       <r>     5.2912     0.0000  1056.0000 </r>
       <r>     5.4011     0.0000  1056.0000 </r>
       <r>     5.5110     0.0000  1056.0000 </r>
       <r>     5.6209     0.0000  1056.0000 </r>
       <r>     5.7308     0.0000  1056.0000 </r>
       <r>     5.8407     0.0000  1056.0000 </r>
       <r>     5.9506     0.0001  1056.0000 </r>
       <r>     6.0605     0.4174  1056.0459 </r>
       <r>     6.1704     1.8260  1056.2466 </r>
       <r>     6.2804     0.0311  1056.2500 </r>
       <r>     6.3903     0.0000  1056.2500 </r>
       <r>     6.5002     0.0000  1056.2500 </r>
       <r>     6.6101     0.0000  1056.2500 </r>
       <r>     6.7200     0.0000  1056.2500 </r>
       <r>     6.8299     0.0009  1056.2501 </r>
       <r>     6.9398     1.0474  1056.3652 </r>
       <r>     7.0497     6.1459  1057.0407 </r>
       <r>     7.1596     1.9011  1057.2497 </r>
       <r>     7.2695     0.3180  1057.2846 </r>
       <r>     7.3795     5.9835  1057.9423 </r>
       <r>     7.4894     2.7862  1058.2485 </r>
       <r>     7.5993     0.0136  1058.2500 </r>
       <r>     7.7092     0.3862  1058.2925 </r>
       <r>     7.8191     6.3948  1058.9953 </r>
       <r>     7.9290     6.9490  1059.7591 </r>
       <r>     8.0389     7.0167  1060.5303 </r>
       <r>     8.1488     4.1479  1060.9862 </r>
       <r>     8.2587     7.1006  1061.7666 </r>
       <r>     8.3687     2.7343  1062.0671 </r>
       <r>     8.4786     7.1408  1062.8520 </r>
       <r>     8.5885    13.9792  1064.3885 </r>
       <r>     8.6984     5.1324  1064.9526 </r>
       <r>     8.8083     2.8467  1065.2655 </r>
       <r>     8.9182     8.0923  1066.1549 </r>
       <r>     9.0281    16.7080  1067.9913 </r>
       <r>     9.1380    14.2688  1069.5596 </r>
       <r>     9.2479    10.3002  1070.6917 </r>
       <r>     9.3579    10.5945  1071.8561 </r>
       <r>     9.4678    20.4631  1074.1053 </r>
       <r>     9.5777    35.7668  1078.0364 </r>
       <r>     9.6876    24.2849  1080.7056 </r>
       <r>     9.7975    52.8575  1086.5152 </r>
       <r>     9.9074    47.5986  1091.7468 </r>
       <r>    10.0173    47.3586  1096.9520 </r>
       <r>    10.1272    23.8609  1099.5746 </r>
       <r>    10.2371    35.8870  1103.5190 </r>
       <r>    10.3471    30.1491  1106.8327 </r>
       <r>    10.4570    28.5410  1109.9697 </r>
       <r>    10.5669    40.9642  1114.4721 </r>
       <r>    10.6768    48.1375  1119.7629 </r>
       <r>    10.7867    33.3598  1123.4295 </r>
       <r>    10.8966    33.1416  1127.0722 </r>
       <r>    11.0065    33.5428  1130.7589 </r>
       <r>    11.1164    27.4813  1133.7794 </r>
       <r>    11.2263    38.2973  1137.9887 </r>
       <r>    11.3363    40.1953  1142.4066 </r>
       <r>    11.4462    41.2586  1146.9413 </r>
       <r>    11.5561    39.2811  1151.2588 </r>
       <r>    11.6660    48.8231  1156.6250 </r>
       <r>    11.7759    35.3463  1160.5099 </r>
       <r>    11.8858    13.0480  1161.9440 </r>
       <r>    11.9957     5.6339  1162.5632 </r>
       <r>    12.1056    26.2161  1165.4447 </r>
       <r>    12.2155    31.0671  1168.8593 </r>
       <r>    12.3255    33.5944  1172.5517 </r>
       <r>    12.4354    40.3944  1176.9915 </r>
       <r>    12.5453    45.1902  1181.9584 </r>
       <r>    12.6552    42.7111  1186.6528 </r>
       <r>    12.7651    40.1828  1191.0693 </r>
       <r>    12.8750    38.9530  1195.3507 </r>
       <r>    12.9849    35.6305  1199.2669 </r>
       <r>    13.0948    32.8929  1202.8822 </r>
       <r>    13.2047    39.9383  1207.2718 </r>
       <r>    13.3147    33.0959  1210.9094 </r>
       <r>    13.4246    54.9521  1216.9493 </r>
       <r>    13.5345    43.8480  1221.7686 </r>
       <r>    13.6444    37.0835  1225.8445 </r>
       <r>    13.7543    39.7593  1230.2145 </r>
       <r>    13.8642    35.5264  1234.1192 </r>
       <r>    13.9741    31.9544  1237.6314 </r>
       <r>    14.0840    44.7768  1242.5528 </r>
       <r>    14.1939    27.2449  1245.5474 </r>
       <r>    14.3038    25.3390  1248.3324 </r>
       <r>    14.4138    18.0700  1250.3185 </r>
       <r>    14.5237    44.0028  1255.1549 </r>
       <r>    14.6336    34.0020  1258.8921 </r>
       <r>    14.7435    41.2317  1263.4239 </r>
       <r>    14.8534    19.8109  1265.6013 </r>
       <r>    14.9633     3.5681  1265.9935 </r>
       <r>    15.0732     0.0593  1266.0000 </r>
       <r>    15.1831     0.0000  1266.0000 </r>
       <r>    15.2930     0.0000  1266.0000 </r>
       <r>    15.4030     0.0000  1266.0000 </r>
       <r>    15.5129     0.0000  1266.0000 </r>
       <r>    15.6228     0.0000  1266.0000 </r>
       <r>    15.7327     0.0000  1266.0000 </r>
       <r>    15.8426     0.0000  1266.0000 </r>
       <r>    15.9525     0.0000  1266.0000 </r>
       <r>    16.0624     0.0000  1266.0000 </r>
       <r>    16.1723     0.0000  1266.0000 </r>
       <r>    16.2822     0.0000  1266.0000 </r>
       <r>    16.3922     0.0000  1266.0000 </r>
      </set>
     </set>
    </array>
   </total>
  </dos>
 </calculation>
 <structure name="finalpos" >
  <crystal>
   <varray name="basis" >
    <v>       0.00000000      12.28047342       0.00000000 </v>
    <v>       9.14270205       0.00000000       0.00000000 </v>
    <v>       0.00000000      -2.76826177     -11.30069772 </v>
   </varray>
   <i name="volume">   1268.80515525 </i>
   <varray name="rec_basis" >
    <v>       0.00000000       0.08143009      -0.01994742 </v>
    <v>       0.10937686      -0.00000000       0.00000000 </v>
    <v>       0.00000000       0.00000000      -0.08849011 </v>
   </varray>
  </crystal>
  <varray name="positions" >
   <v>       0.65962855       0.00000000       0.15691423 </v>
   <v>       0.65734655       0.00000000       0.65618094 </v>
   <v>       0.65973554       0.33310626       0.15705585 </v>
   <v>       0.65693530       0.33290616       0.65647045 </v>
   <v>       0.65973554       0.66689374       0.15705585 </v>
   <v>       0.65693530       0.66709384       0.65647045 </v>
   <v>       0.84241413       0.16626270       0.34380080 </v>
   <v>       0.84003712       0.16645141       0.84289620 </v>
   <v>       0.84169291       0.50000000       0.34340981 </v>
   <v>       0.84035966       0.50000000       0.84248229 </v>
   <v>       0.84241413       0.83373730       0.34380080 </v>
   <v>       0.84003712       0.83354859       0.84289620 </v>
   <v>       0.59069819       0.16641870       0.39734940 </v>
   <v>       0.58995704       0.16674101       0.89766839 </v>
   <v>       0.59200053       0.50000000       0.39749647 </v>
   <v>       0.59187144       0.50000000       0.89858415 </v>
   <v>       0.59069819       0.83358130       0.39734940 </v>
   <v>       0.58995704       0.83325899       0.89766839 </v>
   <v>       0.90910663       0.00000000       0.10256947 </v>
   <v>       0.91006753       0.00000000       0.60289419 </v>
   <v>       0.90840281       0.33331519       0.10167451 </v>
   <v>       0.90829248       0.33303531       0.60257966 </v>
   <v>       0.90840281       0.66668481       0.10167451 </v>
   <v>       0.90829248       0.66696469       0.60257966 </v>
   <v>       0.15867170       0.16622943       0.15718693 </v>
   <v>       0.16063701       0.16177214       0.65109260 </v>
   <v>       0.15836638       0.50000000       0.15591951 </v>
   <v>       0.15848114       0.50000000       0.65720894 </v>
   <v>       0.15867170       0.83377057       0.15718693 </v>
   <v>       0.16063701       0.83822786       0.65109260 </v>
   <v>       0.33947802       0.00000000       0.34366464 </v>
   <v>       0.33942886       0.00000000       0.84488470 </v>
   <v>       0.34160174       0.33409353       0.34243820 </v>
   <v>       0.34051061       0.33320807       0.84318317 </v>
   <v>       0.34160174       0.66590647       0.34243820 </v>
   <v>       0.34051061       0.66679193       0.84318317 </v>
   <v>       0.09614476       0.00000000       0.40496829 </v>
   <v>       0.09037768       0.00000000       0.89806221 </v>
   <v>       0.09081835       0.33249084       0.39764382 </v>
   <v>       0.09082601       0.33280507       0.89621249 </v>
   <v>       0.09081835       0.66750916       0.39764382 </v>
   <v>       0.09082601       0.66719493       0.89621249 </v>
   <v>       0.40978837       0.16680876       0.10334954 </v>
   <v>       0.40449397       0.16478899       0.60228063 </v>
   <v>       0.40952201       0.50000000       0.10187799 </v>
   <v>       0.40865359       0.50000000       0.60254556 </v>
   <v>       0.40978837       0.83319124       0.10334954 </v>
   <v>       0.40449397       0.83521101       0.60228063 </v>
   <v>       0.99567324       0.16700696       0.12597581 </v>
   <v>       0.99566497       0.16757818       0.62871979 </v>
   <v>       0.99556315       0.50000000       0.12652768 </v>
   <v>       0.99507498       0.50000000       0.62711156 </v>
   <v>       0.99567324       0.83299304       0.12597581 </v>
   <v>       0.99566497       0.83242182       0.62871979 </v>
   <v>       0.50327520       0.00000000       0.37163412 </v>
   <v>       0.50316443       0.00000000       0.87436824 </v>
   <v>       0.50456274       0.33389494       0.37123759 </v>
   <v>       0.50427294       0.33434406       0.87474022 </v>
   <v>       0.50456274       0.66610506       0.37123759 </v>
   <v>       0.50427294       0.66565594       0.87474022 </v>
   <v>       0.67316655       0.16657785       0.28080774 </v>
   <v>       0.67143111       0.16641603       0.78034803 </v>
   <v>       0.67348184       0.50000000       0.28054487 </v>
   <v>       0.67144999       0.50000000       0.78000287 </v>
   <v>       0.67316655       0.83342215       0.28080774 </v>
   <v>       0.67143111       0.83358397       0.78034803 </v>
   <v>       0.82712962       0.00000000       0.21914110 </v>
   <v>       0.82627752       0.00000000       0.71910380 </v>
   <v>       0.82749772       0.33327089       0.21926075 </v>
   <v>       0.82587093       0.33347039       0.71926503 </v>
   <v>       0.82749772       0.66672911       0.21926075 </v>
   <v>       0.82587093       0.66652961       0.71926503 </v>
   <v>       0.83218623       0.00000000       0.44613001 </v>
   <v>       0.83129967       0.00000000       0.94586637 </v>
   <v>       0.83185586       0.33341355       0.44562244 </v>
   <v>       0.83079551       0.33360750       0.94526959 </v>
   <v>       0.83185586       0.66658645       0.44562244 </v>
   <v>       0.83079551       0.66639250       0.94526959 </v>
   <v>       0.66790252       0.16665668       0.05419153 </v>
   <v>       0.66724119       0.16662613       0.55401670 </v>
   <v>       0.66907807       0.50000000       0.05496712 </v>
   <v>       0.66686941       0.50000000       0.55451201 </v>
   <v>       0.66790252       0.83334332       0.05419153 </v>
   <v>       0.66724119       0.83337387       0.55401670 </v>
   <v>       0.49726480       0.00000000       0.12827045 </v>
   <v>       0.49494202       0.00000000       0.62680863 </v>
   <v>       0.49731889       0.33371273       0.12794509 </v>
   <v>       0.49475215       0.33186702       0.62662003 </v>
   <v>       0.49731889       0.66628727       0.12794509 </v>
   <v>       0.49475215       0.66813298       0.62662003 </v>
   <v>       0.00345559       0.16608892       0.36984827 </v>
   <v>       0.00227495       0.16674631       0.87327610 </v>
   <v>       0.00347933       0.50000000       0.37166921 </v>
   <v>       0.00300438       0.50000000       0.87253753 </v>
   <v>       0.00345559       0.83391108       0.36984827 </v>
   <v>       0.00227495       0.83325369       0.87327610 </v>
   <v>       0.17195761       0.00000000       0.27913981 </v>
   <v>       0.17424684       0.00000000       0.78576615 </v>
   <v>       0.17248580       0.33401234       0.28001687 </v>
   <v>       0.17203201       0.33319281       0.77954896 </v>
   <v>       0.17248580       0.66598766       0.28001687 </v>
   <v>       0.17203201       0.66680719       0.77954896 </v>
   <v>       0.32747392       0.16731964       0.21907147 </v>
   <v>       0.33127690       0.17051765       0.72517100 </v>
   <v>       0.32743383       0.50000000       0.21840608 </v>
   <v>       0.32796290       0.50000000       0.72015215 </v>
   <v>       0.32747392       0.83268036       0.21907147 </v>
   <v>       0.33127690       0.82948235       0.72517100 </v>
   <v>       0.33526021       0.16902043       0.44378875 </v>
   <v>       0.33281356       0.16770294       0.94788793 </v>
   <v>       0.33376563       0.50000000       0.44509096 </v>
   <v>       0.33186081       0.50000000       0.94599429 </v>
   <v>       0.33526021       0.83097957       0.44378875 </v>
   <v>       0.33281356       0.83229706       0.94788793 </v>
   <v>       0.16685668       0.00000000       0.05454774 </v>
   <v>       0.16635233       0.33318168       0.05365031 </v>
   <v>       0.16827892       0.33627962       0.55367961 </v>
   <v>       0.16635233       0.66681832       0.05365031 </v>
   <v>       0.16827892       0.66372038       0.55367961 </v>
   <v>       0.18278707       0.00000000       0.55635937 </v>
  </varray>
 </structure>
</modeling>
