<?xml version="1.0" encoding="ISO-8859-1"?>
<modeling>
 <generator>
  <i name="program" type="string">vasp </i>
  <i name="version" type="string">6.4.2  </i>
  <i name="subversion" type="string">20Jul23 (build Nov 12 2023 22:16:35) complex                          parallel </i>
  <i name="platform" type="string">LinuxNV </i>
  <i name="date" type="string">2025 03 11 </i>
  <i name="time" type="string">17:04:17 </i>
 </generator>
 <incar>
  <i type="int" name="ISTART">     0</i>
  <i type="string" name="PREC">Normal</i>
  <i type="string" name="ALGO">All</i>
  <i type="int" name="ISPIN">     1</i>
  <i type="int" name="ICHARG">     0</i>
  <i type="int" name="NELM">   500</i>
  <i type="int" name="IBRION">    -1</i>
  <i name="EDIFF">      0.00001000</i>
  <i name="EDIFFG">     -0.00500000</i>
  <i type="int" name="NSW">     0</i>
  <i type="int" name="ISIF">     2</i>
  <i name="ENCUT">    450.00000000</i>
  <i name="NELECT">   1056.00000000</i>
  <i type="string" name="LREAL">Auto</i>
  <i type="logical" name="LPLANE"> T  </i>
  <i name="TIME">      0.40000000</i>
  <i type="int" name="ISMEAR">     0</i>
  <i name="SIGMA">      0.05000000</i>
  <i type="logical" name="LWAVE"> T  </i>
  <i type="logical" name="LCHARG"> T  </i>
  <i name="HFSCREEN">      0.18000000</i>
  <i type="logical" name="LHFCALC"> T  </i>
  <i type="int" name="LMAXFOCK">     4</i>
  <i name="AEXX">      0.35000000</i>
  <i type="string" name="PRECFOCK">Fast</i>
 </incar>
 <primitive_cell>
  <structure name="primitive_cell" >
   <crystal>
    <varray name="basis" >
     <v>       0.00000000      12.28047342       0.00000000 </v>
     <v>       9.14270205       0.00000000       0.00000000 </v>
     <v>       0.00000000      -2.76826177     -11.30069772 </v>
    </varray>
    <i name="volume">   1268.80515525 </i>
    <varray name="rec_basis" >
     <v>       0.00000000       0.08143009      -0.01994742 </v>
     <v>       0.10937686      -0.00000000       0.00000000 </v>
     <v>       0.00000000       0.00000000      -0.08849011 </v>
    </varray>
   </crystal>
   <varray name="positions" >
    <v>       0.65917164       0.99637482       0.15416426 </v>
    <v>       0.65972067       0.99990543       0.65846473 </v>
    <v>       0.65917164       0.33695852       0.15416426 </v>
    <v>       0.65972067       0.33342790       0.65846473 </v>
    <v>       0.65796709       0.66666667       0.15639475 </v>
    <v>       0.65909380       0.66666667       0.65909411 </v>
    <v>       0.82198609       0.16666667       0.37211775 </v>
    <v>       0.84304034       0.16666667       0.84913818 </v>
    <v>       0.84094921       0.50115186       0.34073401 </v>
    <v>       0.84144428       0.49947845       0.84685008 </v>
    <v>       0.84094921       0.83218148       0.34073401 </v>
    <v>       0.84144428       0.83385489       0.84685008 </v>
    <v>       0.58495363       0.16666667       0.39918721 </v>
    <v>       0.59155833       0.16666667       0.89854422 </v>
    <v>       0.59325927       0.50119846       0.39946789 </v>
    <v>       0.58789285       0.50058174       0.89544903 </v>
    <v>       0.59325927       0.83213487       0.39946789 </v>
    <v>       0.58789285       0.83275160       0.89544903 </v>
    <v>       0.91387483       0.00358287       0.10828368 </v>
    <v>       0.90935030       0.99702546       0.60626287 </v>
    <v>       0.91387483       0.32975046       0.10828368 </v>
    <v>       0.90935030       0.33630787       0.60626287 </v>
    <v>       0.91225247       0.66666667       0.10554886 </v>
    <v>       0.90736866       0.66666667       0.60106800 </v>
    <v>       0.16313046       0.16666667       0.15499846 </v>
    <v>       0.15897564       0.16666667       0.65516926 </v>
    <v>       0.16225771       0.50001092       0.15689959 </v>
    <v>       0.16003960       0.50046252       0.65813360 </v>
    <v>       0.16225771       0.83332242       0.15689959 </v>
    <v>       0.16003960       0.83287082       0.65813360 </v>
    <v>       0.34208422       0.99868873       0.34344733 </v>
    <v>       0.34043092       0.00020369       0.84298292 </v>
    <v>       0.34208422       0.33464460       0.34344733 </v>
    <v>       0.34043092       0.33312964       0.84298292 </v>
    <v>       0.34282950       0.66666667       0.34389360 </v>
    <v>       0.34034445       0.66666667       0.84420213 </v>
    <v>       0.09474555       0.99459855       0.39924819 </v>
    <v>       0.09146559       0.00136122       0.89885256 </v>
    <v>       0.09474555       0.33873478       0.39924819 </v>
    <v>       0.09146559       0.33197212       0.89885256 </v>
    <v>       0.09467888       0.66666667       0.39997504 </v>
    <v>       0.09070231       0.66666667       0.89880286 </v>
    <v>       0.40972426       0.16666667       0.10140893 </v>
    <v>       0.40903643       0.16666667       0.60310410 </v>
    <v>       0.41003309       0.49969626       0.10234006 </v>
    <v>       0.40893898       0.50004501       0.60310052 </v>
    <v>       0.41003309       0.83363708       0.10234006 </v>
    <v>       0.40893898       0.83328833       0.60310052 </v>
    <v>       0.00186202       0.16666667       0.08725118 </v>
    <v>       0.99396150       0.16666667       0.61390670 </v>
    <v>       0.00029059       0.49952551       0.12840054 </v>
    <v>       0.99737943       0.50145598       0.62903347 </v>
    <v>       0.00029059       0.83380782       0.12840054 </v>
    <v>       0.99737943       0.83187735       0.62903347 </v>
    <v>       0.50344497       0.99737478       0.37409586 </v>
    <v>       0.50291012       0.00128076       0.87188916 </v>
    <v>       0.50344497       0.33595855       0.37409586 </v>
    <v>       0.50291012       0.33205258       0.87188916 </v>
    <v>       0.50446692       0.66666667       0.37589088 </v>
    <v>       0.50082601       0.66666667       0.86831317 </v>
    <v>       0.67010072       0.16666667       0.28363515 </v>
    <v>       0.67351669       0.16666667       0.78207207 </v>
    <v>       0.66953946       0.50301652       0.27988743 </v>
    <v>       0.67301270       0.50038925       0.78218309 </v>
    <v>       0.66953946       0.83031682       0.27988743 </v>
    <v>       0.67301270       0.83294409       0.78218309 </v>
    <v>       0.81896310       0.97643693       0.20988858 </v>
    <v>       0.82747834       0.99991407       0.72204003 </v>
    <v>       0.81896310       0.35689640       0.20988858 </v>
    <v>       0.82747834       0.33341927       0.72204003 </v>
    <v>       0.82706221       0.66666667       0.21874989 </v>
    <v>       0.82807755       0.66666667       0.72083624 </v>
    <v>       0.81885735       0.98644141       0.45430551 </v>
    <v>       0.83327123       0.99926837       0.94891998 </v>
    <v>       0.81885735       0.34689193       0.45430551 </v>
    <v>       0.83327123       0.33406496       0.94891998 </v>
    <v>       0.82935730       0.66666667       0.44522368 </v>
    <v>       0.83501509       0.66666667       0.94840137 </v>
    <v>       0.66676886       0.16666667       0.05543438 </v>
    <v>       0.66644800       0.16666667       0.55473185 </v>
    <v>       0.66094183       0.50359732       0.05087734 </v>
    <v>       0.66557572       0.50085454       0.55711042 </v>
    <v>       0.66094183       0.82973601       0.05087734 </v>
    <v>       0.66557572       0.83247879       0.55711042 </v>
    <v>       0.49704461       0.00057857       0.12773134 </v>
    <v>       0.49663269       0.00007000       0.62866472 </v>
    <v>       0.49704461       0.33275476       0.12773134 </v>
    <v>       0.49663269       0.33326334       0.62866472 </v>
    <v>       0.49538778       0.66666667       0.12667861 </v>
    <v>       0.49605195       0.66666667       0.62880528 </v>
    <v>       0.00393463       0.16666667       0.85685013 </v>
    <v>       0.00452001       0.50551120       0.37870024 </v>
    <v>       0.00434597       0.49921296       0.87386543 </v>
    <v>       0.00452001       0.82782213       0.37870024 </v>
    <v>       0.00434597       0.83412037       0.87386543 </v>
    <v>       0.17860213       0.99585012       0.27917288 </v>
    <v>       0.17203981       0.00044560       0.77995038 </v>
    <v>       0.17860213       0.33748321       0.27917288 </v>
    <v>       0.17203981       0.33288774       0.77995038 </v>
    <v>       0.17499874       0.66666667       0.28171842 </v>
    <v>       0.17295148       0.66666667       0.78213410 </v>
    <v>       0.33058848       0.16666667       0.21986720 </v>
    <v>       0.32721475       0.16666667       0.71956943 </v>
    <v>       0.33060477       0.50219169       0.22024800 </v>
    <v>       0.32812900       0.49972763       0.72082782 </v>
    <v>       0.33060477       0.83114164       0.22024800 </v>
    <v>       0.32812900       0.83360570       0.72082782 </v>
    <v>       0.33500250       0.16666667       0.44589365 </v>
    <v>       0.33248916       0.16666667       0.94524214 </v>
    <v>       0.33248018       0.50043968       0.44680600 </v>
    <v>       0.33315108       0.49941589       0.94586198 </v>
    <v>       0.33248018       0.83289366       0.44680600 </v>
    <v>       0.33315108       0.83391745       0.94586198 </v>
    <v>       0.17511738       0.99843133       0.05267644 </v>
    <v>       0.17223928       0.99759528       0.55625647 </v>
    <v>       0.17511738       0.33490200       0.05267644 </v>
    <v>       0.17223928       0.33573805       0.55625647 </v>
    <v>       0.17025292       0.66666667       0.05432661 </v>
    <v>       0.17184894       0.66666667       0.55696354 </v>
    <v>       0.97971258       0.16666667       0.31670799 </v>
   </varray>
  </structure>
  <varray name="primitive_index" >
   <v type="int" >        1 </v>
   <v type="int" >        2 </v>
   <v type="int" >        3 </v>
   <v type="int" >        4 </v>
   <v type="int" >        5 </v>
   <v type="int" >        6 </v>
   <v type="int" >        7 </v>
   <v type="int" >        8 </v>
   <v type="int" >        9 </v>
   <v type="int" >       10 </v>
   <v type="int" >       11 </v>
   <v type="int" >       12 </v>
   <v type="int" >       13 </v>
   <v type="int" >       14 </v>
   <v type="int" >       15 </v>
   <v type="int" >       16 </v>
   <v type="int" >       17 </v>
   <v type="int" >       18 </v>
   <v type="int" >       19 </v>
   <v type="int" >       20 </v>
   <v type="int" >       21 </v>
   <v type="int" >       22 </v>
   <v type="int" >       23 </v>
   <v type="int" >       24 </v>
   <v type="int" >       25 </v>
   <v type="int" >       26 </v>
   <v type="int" >       27 </v>
   <v type="int" >       28 </v>
   <v type="int" >       29 </v>
   <v type="int" >       30 </v>
   <v type="int" >       31 </v>
   <v type="int" >       32 </v>
   <v type="int" >       33 </v>
   <v type="int" >       34 </v>
   <v type="int" >       35 </v>
   <v type="int" >       36 </v>
   <v type="int" >       37 </v>
   <v type="int" >       38 </v>
   <v type="int" >       39 </v>
   <v type="int" >       40 </v>
   <v type="int" >       41 </v>
   <v type="int" >       42 </v>
   <v type="int" >       43 </v>
   <v type="int" >       44 </v>
   <v type="int" >       45 </v>
   <v type="int" >       46 </v>
   <v type="int" >       47 </v>
   <v type="int" >       48 </v>
   <v type="int" >       49 </v>
   <v type="int" >       50 </v>
   <v type="int" >       51 </v>
   <v type="int" >       52 </v>
   <v type="int" >       53 </v>
   <v type="int" >       54 </v>
   <v type="int" >       55 </v>
   <v type="int" >       56 </v>
   <v type="int" >       57 </v>
   <v type="int" >       58 </v>
   <v type="int" >       59 </v>
   <v type="int" >       60 </v>
   <v type="int" >       61 </v>
   <v type="int" >       62 </v>
   <v type="int" >       63 </v>
   <v type="int" >       64 </v>
   <v type="int" >       65 </v>
   <v type="int" >       66 </v>
   <v type="int" >       67 </v>
   <v type="int" >       68 </v>
   <v type="int" >       69 </v>
   <v type="int" >       70 </v>
   <v type="int" >       71 </v>
   <v type="int" >       72 </v>
   <v type="int" >       73 </v>
   <v type="int" >       74 </v>
   <v type="int" >       75 </v>
   <v type="int" >       76 </v>
   <v type="int" >       77 </v>
   <v type="int" >       78 </v>
   <v type="int" >       79 </v>
   <v type="int" >       80 </v>
   <v type="int" >       81 </v>
   <v type="int" >       82 </v>
   <v type="int" >       83 </v>
   <v type="int" >       84 </v>
   <v type="int" >       85 </v>
   <v type="int" >       86 </v>
   <v type="int" >       87 </v>
   <v type="int" >       88 </v>
   <v type="int" >       89 </v>
   <v type="int" >       90 </v>
   <v type="int" >       91 </v>
   <v type="int" >       92 </v>
   <v type="int" >       93 </v>
   <v type="int" >       94 </v>
   <v type="int" >       95 </v>
   <v type="int" >       96 </v>
   <v type="int" >       97 </v>
   <v type="int" >       98 </v>
   <v type="int" >       99 </v>
   <v type="int" >      100 </v>
   <v type="int" >      101 </v>
   <v type="int" >      102 </v>
   <v type="int" >      103 </v>
   <v type="int" >      104 </v>
   <v type="int" >      105 </v>
   <v type="int" >      106 </v>
   <v type="int" >      107 </v>
   <v type="int" >      108 </v>
   <v type="int" >      109 </v>
   <v type="int" >      110 </v>
   <v type="int" >      111 </v>
   <v type="int" >      112 </v>
   <v type="int" >      113 </v>
   <v type="int" >      114 </v>
   <v type="int" >      115 </v>
   <v type="int" >      116 </v>
   <v type="int" >      117 </v>
   <v type="int" >      118 </v>
   <v type="int" >      119 </v>
   <v type="int" >      120 </v>
  </varray>
 </primitive_cell>
 <kpoints>
  <generation param="Gamma">
   <v type="int" name="divisions">       2        2        2 </v>
   <v name="usershift">      0.00000000       0.00000000       0.00000000 </v>
   <v name="genvec1">      0.50000000       0.00000000       0.00000000 </v>
   <v name="genvec2">      0.00000000       0.50000000       0.00000000 </v>
   <v name="genvec3">      0.00000000       0.00000000       0.50000000 </v>
   <v name="shift">      0.00000000       0.00000000       0.00000000 </v>
  </generation>
  <varray name="kpointlist" >
   <v>       0.00000000       0.00000000       0.00000000 </v>
   <v>       0.50000000       0.00000000       0.00000000 </v>
   <v>       0.00000000       0.50000000       0.00000000 </v>
   <v>       0.50000000       0.50000000       0.00000000 </v>
   <v>       0.00000000       0.00000000       0.50000000 </v>
   <v>       0.50000000       0.00000000       0.50000000 </v>
   <v>       0.00000000       0.50000000       0.50000000 </v>
   <v>       0.50000000       0.50000000       0.50000000 </v>
  </varray>
  <varray name="weights" >
   <v>       0.12500000 </v>
   <v>       0.12500000 </v>
   <v>       0.12500000 </v>
   <v>       0.12500000 </v>
   <v>       0.12500000 </v>
   <v>       0.12500000 </v>
   <v>       0.12500000 </v>
   <v>       0.12500000 </v>
  </varray>
 </kpoints>
 <parameters>
  <separator name="general" >
   <i type="string" name="SYSTEM">unknown system</i>
   <i type="logical" name="LCOMPAT"> F  </i>
  </separator>
  <separator name="electronic" >
   <i type="string" name="PREC">normal</i>
   <i name="ENMAX">    450.00000000</i>
   <i name="ENAUG">    605.39200000</i>
   <i name="EDIFF">      0.00001000</i>
   <i type="int" name="IALGO">    58</i>
   <i type="int" name="IWAVPR">    10</i>
   <i type="int" name="NBANDS">   633</i>
   <i type="int" name="NBANDSLOW">    -1</i>
   <i type="int" name="NBANDSHIGH">    -1</i>
   <i name="NELECT">   1056.00000000</i>
   <i type="int" name="TURBO">     0</i>
   <i type="int" name="IRESTART">     0</i>
   <i type="int" name="NREBOOT">     0</i>
   <i type="int" name="NMIN">     0</i>
   <i name="EREF">      0.00000000</i>
   <separator name="electronic smearing" >
    <i type="int" name="ISMEAR">     0</i>
    <i name="SIGMA">      0.05000000</i>
    <i name="KSPACING">      0.50000000</i>
    <i type="logical" name="KGAMMA"> T  </i>
    <i type="logical" name="KBLOWUP"> T  </i>
   </separator>
   <separator name="electronic projectors" >
    <i type="logical" name="LREAL"> T  </i>
    <v name="ROPT">     -0.00050000     -0.00050000     -0.00050000</v>
    <i type="int" name="LMAXPAW">  -100</i>
    <i type="int" name="LMAXMIX">     2</i>
    <i type="logical" name="NLSPLINE"> F  </i>
   </separator>
   <separator name="electronic startup" >
    <i type="int" name="ISTART">     0</i>
    <i type="int" name="ICHARG">     0</i>
    <i type="int" name="INIWAV">     1</i>
   </separator>
   <separator name="electronic spin" >
    <i type="int" name="ISPIN">     1</i>
    <i type="logical" name="LNONCOLLINEAR"> F  </i>
    <v name="MAGMOM">      1.00000000      1.00000000      1.00000000      1.00000000      1.00000000      1.00000000      1.00000000      1.00000000      1.00000000      1.00000000      1.00000000      1.00000000      1.00000000      1.00000000      1.00000000      1.00000000      1.00000000      1.00000000      1.00000000      1.00000000
      1.00000000      1.00000000      1.00000000      1.00000000      1.00000000      1.00000000      1.00000000      1.00000000      1.00000000      1.00000000      1.00000000      1.00000000      1.00000000      1.00000000      1.00000000      1.00000000      1.00000000      1.00000000      1.00000000      1.00000000
      1.00000000      1.00000000      1.00000000      1.00000000      1.00000000      1.00000000      1.00000000      1.00000000      1.00000000      1.00000000      1.00000000      1.00000000      1.00000000      1.00000000      1.00000000      1.00000000      1.00000000      1.00000000      1.00000000      1.00000000
      1.00000000      1.00000000      1.00000000      1.00000000      1.00000000      1.00000000      1.00000000      1.00000000      1.00000000      1.00000000      1.00000000      1.00000000      1.00000000      1.00000000      1.00000000      1.00000000      1.00000000      1.00000000      1.00000000      1.00000000
      1.00000000      1.00000000      1.00000000      1.00000000      1.00000000      1.00000000      1.00000000      1.00000000      1.00000000      1.00000000      1.00000000      1.00000000      1.00000000      1.00000000      1.00000000      1.00000000      1.00000000      1.00000000      1.00000000      1.00000000
      1.00000000      1.00000000      1.00000000      1.00000000      1.00000000      1.00000000      1.00000000      1.00000000      1.00000000      1.00000000      1.00000000      1.00000000      1.00000000      1.00000000      1.00000000      1.00000000      1.00000000      1.00000000      1.00000000      1.00000000
</v>
    <i name="NUPDOWN">     -1.00000000</i>
    <i type="logical" name="LSORBIT"> F  </i>
    <v name="SAXIS">      0.00000000      0.00000000      1.00000000</v>
    <i type="logical" name="LSPIRAL"> F  </i>
    <v name="QSPIRAL">      0.00000000      0.00000000      0.00000000</v>
    <i type="logical" name="LZEROZ"> F  </i>
   </separator>
   <separator name="electronic exchange-correlation" >
    <i type="logical" name="LASPH"> F  </i>
    <i type="logical" name="LMETAGGA"> F  </i>
   </separator>
   <separator name="electronic convergence" >
    <i type="int" name="NELM">   500</i>
    <i type="int" name="NELMDL">    -5</i>
    <i type="int" name="NELMIN">     2</i>
    <i name="ENINI">    450.00000000</i>
    <separator name="electronic convergence detail" >
     <i type="logical" name="LDIAG"> T  </i>
     <i type="logical" name="LSUBROT"> F  </i>
     <i name="WEIMIN">      0.00000000</i>
     <i name="EBREAK">      0.00000000</i>
     <i name="DEPER">      0.30000000</i>
     <i type="int" name="NRMM">     4</i>
     <i name="TIME">      0.40000000</i>
    </separator>
   </separator>
   <separator name="electronic mixer" >
    <i name="AMIX">      0.40000000</i>
    <i name="BMIX">      1.00000000</i>
    <i name="AMIN">      0.10000000</i>
    <i name="AMIX_MAG">      1.60000000</i>
    <i name="BMIX_MAG">      1.00000000</i>
    <separator name="electronic mixer details" >
     <i type="int" name="IMIX">     4</i>
     <i type="logical" name="MIXFIRST"> F  </i>
     <i type="int" name="MAXMIX">   -45</i>
     <i name="WC">    100.00000000</i>
     <i type="int" name="INIMIX">     1</i>
     <i type="int" name="MIXPRE">     1</i>
     <i type="int" name="MREMOVE">     5</i>
    </separator>
   </separator>
   <separator name="electronic dipolcorrection" >
    <i type="logical" name="LDIPOL"> F  </i>
    <i type="logical" name="LMONO"> F  </i>
    <i type="int" name="IDIPOL">     0</i>
    <i name="EPSILON">      1.00000000</i>
    <v name="DIPOL">   -100.00000000   -100.00000000   -100.00000000</v>
    <i name="EFIELD">      0.00000000</i>
   </separator>
  </separator>
  <separator name="grids" >
   <i type="int" name="NGX">    64</i>
   <i type="int" name="NGY">    48</i>
   <i type="int" name="NGZ">    60</i>
   <i type="int" name="NGXF">   128</i>
   <i type="int" name="NGYF">    96</i>
   <i type="int" name="NGZF">   120</i>
   <i type="logical" name="ADDGRID"> F  </i>
  </separator>
  <separator name="ionic" >
   <i type="int" name="NSW">     0</i>
   <i type="int" name="IBRION">    -1</i>
   <i type="int" name="MDALGO">     0</i>
   <i type="int" name="ISIF">     2</i>
   <i name="PSTRESS">      0.00000000</i>
   <i name="EDIFFG">     -0.00500000</i>
   <i type="int" name="NFREE">     0</i>
   <i name="POTIM">      0.50000000</i>
   <i name="SMASS">     -3.00000000</i>
   <i name="SCALEE">      1.00000000</i>
  </separator>
  <separator name="ionic md" >
   <i name="TEBEG">      0.00010000</i>
   <i name="TEEND">      0.00010000</i>
   <i type="int" name="NBLOCK">     1</i>
   <i type="int" name="KBLOCK">     1</i>
   <i type="int" name="NPACO">   256</i>
   <i name="APACO">     10.00000000</i>
  </separator>
  <separator name="symmetry" >
   <i type="int" name="ISYM">     3</i>
   <i name="SYMPREC">      0.00001000</i>
  </separator>
  <separator name="dos" >
   <i type="int" name="LORBIT">     0</i>
   <v name="RWIGS">     -1.00000000     -1.00000000     -1.00000000</v>
   <i type="int" name="NEDOS">   301</i>
   <i name="EMIN">     10.00000000</i>
   <i name="EMAX">    -10.00000000</i>
   <i name="EFERMI">      0.00000000</i>
  </separator>
  <separator name="writing" >
   <i type="int" name="NWRITE">     2</i>
   <i type="logical" name="LWAVE"> T  </i>
   <i type="logical" name="LDOWNSAMPLE"> F  </i>
   <i type="logical" name="LCHARG"> T  </i>
   <i type="logical" name="LPARD"> F  </i>
   <i type="logical" name="LVTOT"> F  </i>
   <i type="logical" name="LVHAR"> F  </i>
   <i type="logical" name="LELF"> F  </i>
   <i type="logical" name="LOPTICS"> F  </i>
   <v name="STM">      0.00000000      0.00000000      0.00000000      0.00000000      0.00000000      0.00000000      0.00000000</v>
  </separator>
  <separator name="performance" >
   <i type="int" name="NPAR">     1</i>
   <i type="int" name="NSIM">     4</i>
   <i type="int" name="NBLK">    -1</i>
   <i type="logical" name="LPLANE"> T  </i>
   <i type="logical" name="LSCALAPACK"> T  </i>
   <i type="logical" name="LSCAAWARE"> F  </i>
   <i type="logical" name="LSCALU"> F  </i>
   <i type="logical" name="LASYNC"> F  </i>
   <i type="logical" name="LORBITALREAL"> F  </i>
  </separator>
  <separator name="miscellaneous" >
   <i type="int" name="IDIOT">     3</i>
   <i type="int" name="PHON_NSTRUCT">    -1</i>
   <i type="logical" name="LMUSIC"> F  </i>
   <v name="POMASS">     69.72300000     16.00000000     30.97400000</v>
   <v name="DARWINR">      0.00000000      0.00000000      0.00000000</v>
   <v name="DARWINV">      1.00000000      1.00000000      1.00000000</v>
   <i type="logical" name="LCORR"> T  </i>
  </separator>
  <i type="logical" name="GGA_COMPAT"> T  </i>
  <i type="logical" name="LBERRY"> F  </i>
  <i type="int" name="ICORELEVEL">     0</i>
  <i type="logical" name="LDAU"> F  </i>
  <i type="int" name="I_CONSTRAINED_M">     0</i>
  <separator name="electronic exchange-correlation" >
   <i type="string" name="GGA">--</i>
   <i type="int" name="VOSKOWN">     0</i>
   <i type="logical" name="LHFCALC"> T  </i>
   <i type="string" name="PRECFOCK">fast</i>
   <i type="logical" name="LSYMGRAD"> F  </i>
   <i type="logical" name="LHFONE"> F  </i>
   <i type="logical" name="LRHFCALC"> F  </i>
   <i type="logical" name="LTHOMAS"> F  </i>
   <i type="logical" name="LMODELHF"> F  </i>
   <i type="logical" name="LFOCKACE"> T  </i>
   <i name="ENCUT4O">     -1.00000000</i>
   <i type="int" name="EXXOEP">     0</i>
   <i type="int" name="FOURORBIT">     0</i>
   <i name="AEXX">      0.35000000</i>
   <i name="HFALPHA">     -1.00000000</i>
   <i name="MCALPHA">      0.00000000</i>
   <i name="ALDAX">      0.65000000</i>
   <i name="AGGAX">      0.65000000</i>
   <i name="ALDAC">      1.00000000</i>
   <i name="AGGAC">      1.00000000</i>
   <i type="int" name="NKREDX">     1</i>
   <i type="int" name="NKREDY">     1</i>
   <i type="int" name="NKREDZ">     1</i>
   <i type="logical" name="SHIFTRED"> F  </i>
   <i type="logical" name="ODDONLY"> F  </i>
   <i type="logical" name="EVENONLY"> F  </i>
   <i type="int" name="LMAXFOCK">     4</i>
   <i type="int" name="NMAXFOCKAE">     1</i>
   <i type="logical" name="LFOCKAEDFT"> F  </i>
   <i name="HFSCREEN">      0.18000000</i>
   <i name="HFSCREENC">      0.18000000</i>
   <i type="int" name="NBANDSGWLOW">     1</i>
  </separator>
  <separator name="vdW DFT" >
   <i type="logical" name="LUSE_VDW"> F  </i>
   <i type="int" name="IVDW_NL">     1</i>
   <i type="logical" name="LSPIN_VDW"> F  </i>
   <i name="Zab_VDW">     -0.84910000</i>
   <i name="PARAM1">      0.12340000</i>
   <i name="PARAM2">      1.00000000</i>
   <i name="PARAM3">      0.00000000</i>
  </separator>
  <separator name="model GW" >
   <i type="int" name="MODEL_GW">     0</i>
   <i name="MODEL_EPS0">      6.34402578</i>
   <i name="MODEL_ALPHA">      1.00000000</i>
  </separator>
  <separator name="linear response parameters" >
   <i type="logical" name="LEPSILON"> F  </i>
   <i type="logical" name="LRPA"> F  </i>
   <i type="logical" name="LNABLA"> F  </i>
   <i type="logical" name="LVEL"> F  </i>
   <i name="CSHIFT">      0.10000000</i>
   <i name="OMEGAMAX">     -1.00000000</i>
   <i name="DEG_THRESHOLD">      0.00200000</i>
   <i name="RTIME">     -0.10000000</i>
   <i name="WPLASMAI">      0.00000000</i>
   <v name="DFIELD">      0.00000000      0.00000000      0.00000000</v>
   <v name="WPLASMA">      0.00000000      0.00000000      0.00000000      0.00000000      0.00000000      0.00000000      0.00000000      0.00000000      0.00000000</v>
  </separator>
  <separator name="orbital magnetization" >
   <i type="logical" name="NUCIND"> F  </i>
   <v name="MAGPOS">      0.00000000      0.00000000      0.00000000</v>
   <i type="logical" name="LNICSALL"> T  </i>
   <i type="logical" name="ORBITALMAG"> F  </i>
   <i type="logical" name="LMAGBLOCH"> F  </i>
   <i type="logical" name="LCHIMAG"> F  </i>
   <i type="logical" name="LGAUGE"> T  </i>
   <i type="int" name="MAGATOM">     0</i>
   <v name="MAGDIPOL">      0.00000000      0.00000000      0.00000000</v>
   <v name="AVECCONST">      0.00000000      0.00000000      0.00000000</v>
  </separator>
  <separator name="response functions" >
   <i type="logical" name="LALL_IN_ONE"> F  </i>
   <i type="int" name="IALL_IN_ONE">    -1</i>
   <i type="int" name="NBANDS_WAVE">    -1</i>
   <i type="logical" name="LFINITE_TEMPERATURE"> F  </i>
   <i type="logical" name="LADDER"> F  </i>
   <i type="logical" name="LRPAFORCE"> F  </i>
   <i type="logical" name="LFXC"> F  </i>
   <i type="logical" name="LHARTREE"> T  </i>
   <i type="int" name="IBSE">     0</i>
   <v type="int" name="KPOINT">    -1     0     0     0</v>
   <i type="logical" name="LTCTC"> F  </i>
   <i type="logical" name="LTCTE"> F  </i>
   <i type="logical" name="LTETE"> F  </i>
   <i type="logical" name="LTRIPLET"> F  </i>
   <i type="logical" name="LFXCEPS"> F  </i>
   <i type="logical" name="LFXHEG"> F  </i>
   <i type="int" name="NATURALO">     2</i>
   <i type="logical" name="LHOLEGF"> F  </i>
   <i type="logical" name="L2ORDER"> F  </i>
   <i type="logical" name="LDMP1"> F  </i>
   <i type="logical" name="LMP2LT"> F  </i>
   <i type="logical" name="LSMP2LT"> F  </i>
   <i type="logical" name="LGWLF"> F  </i>
   <i name="ENCUTGW">     -1.60000002</i>
   <i name="ENCUTGWSOFT">     -1.60000002</i>
   <i name="ENCUTLF">     -1.00000000</i>
   <i type="logical" name="LESF_SPLINES"> F  </i>
   <i type="int" name="LMAXMP2">    -1</i>
   <i name="SCISSOR">      0.00000000</i>
   <i type="int" name="NOMEGA">     0</i>
   <i type="int" name="NOMEGAR">     0</i>
   <i type="int" name="NBANDSGW">    -1</i>
   <i type="int" name="NBANDSO">    -1</i>
   <i type="int" name="NBANDSV">    -1</i>
   <i type="int" name="NELMGW">     1</i>
   <i type="int" name="NELMHF">     1</i>
   <i type="int" name="DIM">     3</i>
   <i type="int" name="IESPILON">     4</i>
   <i type="int" name="ANTIRES">     0</i>
   <i name="OMEGAMAX">    -30.00000000</i>
   <i name="OMEGAMIN">    -30.00000000</i>
   <i name="OMEGATL">   -200.00000000</i>
   <i type="int" name="OMEGAGRID">     0</i>
   <i name="CSHIFT">     -0.10000000</i>
   <i type="logical" name="LSELFENERGY"> F  </i>
   <i type="logical" name="LSPECTRAL"> F  </i>
   <i type="logical" name="LSPECTRALGW"> F  </i>
   <i type="logical" name="LSINGLES"> F  </i>
   <i type="logical" name="LFERMIGW"> F  </i>
   <i type="logical" name="ODDONLYGW"> F  </i>
   <i type="logical" name="EVENONLYGW"> F  </i>
   <i type="int" name="NKREDLFX">     1</i>
   <i type="int" name="NKREDLFY">     1</i>
   <i type="int" name="NKREDLFZ">     1</i>
   <i type="int" name="MAXMEM">  2800</i>
   <i type="int" name="TELESCOPE">     0</i>
   <i type="int" name="NTAUPAR">    -1</i>
   <i type="int" name="NOMEGAPAR">    -1</i>
   <i name="DAMP_NEWTON">      0.80000001</i>
   <i name="LAMBDA">      1.00000000</i>
  </separator>
  <separator name="External order field" >
   <i name="OFIELD_KAPPA">      0.00000000</i>
   <v name="OFIELD_K">      0.00000000      0.00000000      0.00000000</v>
   <i name="OFIELD_Q6_NEAR">      0.00000000</i>
   <i name="OFIELD_Q6_FAR">      0.00000000</i>
   <i name="OFIELD_A">      0.00000000</i>
  </separator>
  <separator name="optional k-points parameters" >
   <i type="int" name="KPOINTS_OPT_MODE">     1</i>
   <i type="logical" name="LKPOINTS_OPT"> F  </i>
  </separator>
 </parameters>
 <atominfo>
  <atoms>     120 </atoms>
  <types>       3 </types>
  <array name="atoms" >
   <dimension dim="1">ion</dimension>
   <field type="string">element</field>
   <field type="int">atomtype</field>
   <set>
    <rc><c>Ga</c><c>   1</c></rc>
    <rc><c>Ga</c><c>   1</c></rc>
    <rc><c>Ga</c><c>   1</c></rc>
    <rc><c>Ga</c><c>   1</c></rc>
    <rc><c>Ga</c><c>   1</c></rc>
    <rc><c>Ga</c><c>   1</c></rc>
    <rc><c>Ga</c><c>   1</c></rc>
    <rc><c>Ga</c><c>   1</c></rc>
    <rc><c>Ga</c><c>   1</c></rc>
    <rc><c>Ga</c><c>   1</c></rc>
    <rc><c>Ga</c><c>   1</c></rc>
    <rc><c>Ga</c><c>   1</c></rc>
    <rc><c>Ga</c><c>   1</c></rc>
    <rc><c>Ga</c><c>   1</c></rc>
    <rc><c>Ga</c><c>   1</c></rc>
    <rc><c>Ga</c><c>   1</c></rc>
    <rc><c>Ga</c><c>   1</c></rc>
    <rc><c>Ga</c><c>   1</c></rc>
    <rc><c>Ga</c><c>   1</c></rc>
    <rc><c>Ga</c><c>   1</c></rc>
    <rc><c>Ga</c><c>   1</c></rc>
    <rc><c>Ga</c><c>   1</c></rc>
    <rc><c>Ga</c><c>   1</c></rc>
    <rc><c>Ga</c><c>   1</c></rc>
    <rc><c>Ga</c><c>   1</c></rc>
    <rc><c>Ga</c><c>   1</c></rc>
    <rc><c>Ga</c><c>   1</c></rc>
    <rc><c>Ga</c><c>   1</c></rc>
    <rc><c>Ga</c><c>   1</c></rc>
    <rc><c>Ga</c><c>   1</c></rc>
    <rc><c>Ga</c><c>   1</c></rc>
    <rc><c>Ga</c><c>   1</c></rc>
    <rc><c>Ga</c><c>   1</c></rc>
    <rc><c>Ga</c><c>   1</c></rc>
    <rc><c>Ga</c><c>   1</c></rc>
    <rc><c>Ga</c><c>   1</c></rc>
    <rc><c>Ga</c><c>   1</c></rc>
    <rc><c>Ga</c><c>   1</c></rc>
    <rc><c>Ga</c><c>   1</c></rc>
    <rc><c>Ga</c><c>   1</c></rc>
    <rc><c>Ga</c><c>   1</c></rc>
    <rc><c>Ga</c><c>   1</c></rc>
    <rc><c>Ga</c><c>   1</c></rc>
    <rc><c>Ga</c><c>   1</c></rc>
    <rc><c>Ga</c><c>   1</c></rc>
    <rc><c>Ga</c><c>   1</c></rc>
    <rc><c>Ga</c><c>   1</c></rc>
    <rc><c>Ga</c><c>   1</c></rc>
    <rc><c>O </c><c>   2</c></rc>
    <rc><c>O </c><c>   2</c></rc>
    <rc><c>O </c><c>   2</c></rc>
    <rc><c>O </c><c>   2</c></rc>
    <rc><c>O </c><c>   2</c></rc>
    <rc><c>O </c><c>   2</c></rc>
    <rc><c>O </c><c>   2</c></rc>
    <rc><c>O </c><c>   2</c></rc>
    <rc><c>O </c><c>   2</c></rc>
    <rc><c>O </c><c>   2</c></rc>
    <rc><c>O </c><c>   2</c></rc>
    <rc><c>O </c><c>   2</c></rc>
    <rc><c>O </c><c>   2</c></rc>
    <rc><c>O </c><c>   2</c></rc>
    <rc><c>O </c><c>   2</c></rc>
    <rc><c>O </c><c>   2</c></rc>
    <rc><c>O </c><c>   2</c></rc>
    <rc><c>O </c><c>   2</c></rc>
    <rc><c>O </c><c>   2</c></rc>
    <rc><c>O </c><c>   2</c></rc>
    <rc><c>O </c><c>   2</c></rc>
    <rc><c>O </c><c>   2</c></rc>
    <rc><c>O </c><c>   2</c></rc>
    <rc><c>O </c><c>   2</c></rc>
    <rc><c>O </c><c>   2</c></rc>
    <rc><c>O </c><c>   2</c></rc>
    <rc><c>O </c><c>   2</c></rc>
    <rc><c>O </c><c>   2</c></rc>
    <rc><c>O </c><c>   2</c></rc>
    <rc><c>O </c><c>   2</c></rc>
    <rc><c>O </c><c>   2</c></rc>
    <rc><c>O </c><c>   2</c></rc>
    <rc><c>O </c><c>   2</c></rc>
    <rc><c>O </c><c>   2</c></rc>
    <rc><c>O </c><c>   2</c></rc>
    <rc><c>O </c><c>   2</c></rc>
    <rc><c>O </c><c>   2</c></rc>
    <rc><c>O </c><c>   2</c></rc>
    <rc><c>O </c><c>   2</c></rc>
    <rc><c>O </c><c>   2</c></rc>
    <rc><c>O </c><c>   2</c></rc>
    <rc><c>O </c><c>   2</c></rc>
    <rc><c>O </c><c>   2</c></rc>
    <rc><c>O </c><c>   2</c></rc>
    <rc><c>O </c><c>   2</c></rc>
    <rc><c>O </c><c>   2</c></rc>
    <rc><c>O </c><c>   2</c></rc>
    <rc><c>O </c><c>   2</c></rc>
    <rc><c>O </c><c>   2</c></rc>
    <rc><c>O </c><c>   2</c></rc>
    <rc><c>O </c><c>   2</c></rc>
    <rc><c>O </c><c>   2</c></rc>
    <rc><c>O </c><c>   2</c></rc>
    <rc><c>O </c><c>   2</c></rc>
    <rc><c>O </c><c>   2</c></rc>
    <rc><c>O </c><c>   2</c></rc>
    <rc><c>O </c><c>   2</c></rc>
    <rc><c>O </c><c>   2</c></rc>
    <rc><c>O </c><c>   2</c></rc>
    <rc><c>O </c><c>   2</c></rc>
    <rc><c>O </c><c>   2</c></rc>
    <rc><c>O </c><c>   2</c></rc>
    <rc><c>O </c><c>   2</c></rc>
    <rc><c>O </c><c>   2</c></rc>
    <rc><c>O </c><c>   2</c></rc>
    <rc><c>O </c><c>   2</c></rc>
    <rc><c>O </c><c>   2</c></rc>
    <rc><c>O </c><c>   2</c></rc>
    <rc><c>O </c><c>   2</c></rc>
    <rc><c>O </c><c>   2</c></rc>
    <rc><c>O </c><c>   2</c></rc>
    <rc><c>P </c><c>   3</c></rc>
   </set>
  </array>
  <array name="atomtypes" >
   <dimension dim="1">type</dimension>
   <field type="int">atomspertype</field>
   <field type="string">element</field>
   <field>mass</field>
   <field>valence</field>
   <field type="string">pseudopotential</field>
   <set>
    <rc><c>  48</c><c>Ga</c><c>     69.72300000</c><c>     13.00000000</c><c>  PAW_PBE Ga_d 06Jul2010                </c></rc>
    <rc><c>  71</c><c>O </c><c>     16.00000000</c><c>      6.00000000</c><c>   PAW_PBE O 08Apr2002                  </c></rc>
    <rc><c>   1</c><c>P </c><c>     30.97400000</c><c>      5.00000000</c><c>  PAW_PBE P 06Sep2000                   </c></rc>
   </set>
  </array>
 </atominfo>
 <structure name="initialpos" >
  <crystal>
   <varray name="basis" >
    <v>       0.00000000      12.28047342       0.00000000 </v>
    <v>       9.14270205       0.00000000       0.00000000 </v>
    <v>       0.00000000      -2.76826177     -11.30069772 </v>
   </varray>
   <i name="volume">   1268.80515525 </i>
   <varray name="rec_basis" >
    <v>       0.00000000       0.08143009      -0.01994742 </v>
    <v>       0.10937686      -0.00000000       0.00000000 </v>
    <v>       0.00000000       0.00000000      -0.08849011 </v>
   </varray>
  </crystal>
  <varray name="positions" >
   <v>       0.65917164       0.99637482       0.15416426 </v>
   <v>       0.65972067       0.99990543       0.65846473 </v>
   <v>       0.65917164       0.33695852       0.15416426 </v>
   <v>       0.65972067       0.33342790       0.65846473 </v>
   <v>       0.65796709       0.66666667       0.15639475 </v>
   <v>       0.65909380       0.66666667       0.65909411 </v>
   <v>       0.82198609       0.16666667       0.37211775 </v>
   <v>       0.84304034       0.16666667       0.84913818 </v>
   <v>       0.84094921       0.50115186       0.34073401 </v>
   <v>       0.84144428       0.49947845       0.84685008 </v>
   <v>       0.84094921       0.83218148       0.34073401 </v>
   <v>       0.84144428       0.83385489       0.84685008 </v>
   <v>       0.58495363       0.16666667       0.39918721 </v>
   <v>       0.59155833       0.16666667       0.89854422 </v>
   <v>       0.59325927       0.50119846       0.39946789 </v>
   <v>       0.58789285       0.50058174       0.89544903 </v>
   <v>       0.59325927       0.83213487       0.39946789 </v>
   <v>       0.58789285       0.83275160       0.89544903 </v>
   <v>       0.91387483       0.00358287       0.10828368 </v>
   <v>       0.90935030       0.99702546       0.60626287 </v>
   <v>       0.91387483       0.32975046       0.10828368 </v>
   <v>       0.90935030       0.33630787       0.60626287 </v>
   <v>       0.91225247       0.66666667       0.10554886 </v>
   <v>       0.90736866       0.66666667       0.60106800 </v>
   <v>       0.16313046       0.16666667       0.15499846 </v>
   <v>       0.15897564       0.16666667       0.65516926 </v>
   <v>       0.16225771       0.50001092       0.15689959 </v>
   <v>       0.16003960       0.50046252       0.65813360 </v>
   <v>       0.16225771       0.83332242       0.15689959 </v>
   <v>       0.16003960       0.83287082       0.65813360 </v>
   <v>       0.34208422       0.99868873       0.34344733 </v>
   <v>       0.34043092       0.00020369       0.84298292 </v>
   <v>       0.34208422       0.33464460       0.34344733 </v>
   <v>       0.34043092       0.33312964       0.84298292 </v>
   <v>       0.34282950       0.66666667       0.34389360 </v>
   <v>       0.34034445       0.66666667       0.84420213 </v>
   <v>       0.09474555       0.99459855       0.39924819 </v>
   <v>       0.09146559       0.00136122       0.89885256 </v>
   <v>       0.09474555       0.33873478       0.39924819 </v>
   <v>       0.09146559       0.33197212       0.89885256 </v>
   <v>       0.09467888       0.66666667       0.39997504 </v>
   <v>       0.09070231       0.66666667       0.89880286 </v>
   <v>       0.40972426       0.16666667       0.10140893 </v>
   <v>       0.40903643       0.16666667       0.60310410 </v>
   <v>       0.41003309       0.49969626       0.10234006 </v>
   <v>       0.40893898       0.50004501       0.60310052 </v>
   <v>       0.41003309       0.83363708       0.10234006 </v>
   <v>       0.40893898       0.83328833       0.60310052 </v>
   <v>       0.00186202       0.16666667       0.08725118 </v>
   <v>       0.99396150       0.16666667       0.61390670 </v>
   <v>       0.00029059       0.49952551       0.12840054 </v>
   <v>       0.99737943       0.50145598       0.62903347 </v>
   <v>       0.00029059       0.83380782       0.12840054 </v>
   <v>       0.99737943       0.83187735       0.62903347 </v>
   <v>       0.50344497       0.99737478       0.37409586 </v>
   <v>       0.50291012       0.00128076       0.87188916 </v>
   <v>       0.50344497       0.33595855       0.37409586 </v>
   <v>       0.50291012       0.33205258       0.87188916 </v>
   <v>       0.50446692       0.66666667       0.37589088 </v>
   <v>       0.50082601       0.66666667       0.86831317 </v>
   <v>       0.67010072       0.16666667       0.28363515 </v>
   <v>       0.67351669       0.16666667       0.78207207 </v>
   <v>       0.66953946       0.50301652       0.27988743 </v>
   <v>       0.67301270       0.50038925       0.78218309 </v>
   <v>       0.66953946       0.83031682       0.27988743 </v>
   <v>       0.67301270       0.83294409       0.78218309 </v>
   <v>       0.81896310       0.97643693       0.20988858 </v>
   <v>       0.82747834       0.99991407       0.72204003 </v>
   <v>       0.81896310       0.35689640       0.20988858 </v>
   <v>       0.82747834       0.33341927       0.72204003 </v>
   <v>       0.82706221       0.66666667       0.21874989 </v>
   <v>       0.82807755       0.66666667       0.72083624 </v>
   <v>       0.81885735       0.98644141       0.45430551 </v>
   <v>       0.83327123       0.99926837       0.94891998 </v>
   <v>       0.81885735       0.34689193       0.45430551 </v>
   <v>       0.83327123       0.33406496       0.94891998 </v>
   <v>       0.82935730       0.66666667       0.44522368 </v>
   <v>       0.83501509       0.66666667       0.94840137 </v>
   <v>       0.66676886       0.16666667       0.05543438 </v>
   <v>       0.66644800       0.16666667       0.55473185 </v>
   <v>       0.66094183       0.50359732       0.05087734 </v>
   <v>       0.66557572       0.50085454       0.55711042 </v>
   <v>       0.66094183       0.82973601       0.05087734 </v>
   <v>       0.66557572       0.83247879       0.55711042 </v>
   <v>       0.49704461       0.00057857       0.12773134 </v>
   <v>       0.49663269       0.00007000       0.62866472 </v>
   <v>       0.49704461       0.33275476       0.12773134 </v>
   <v>       0.49663269       0.33326334       0.62866472 </v>
   <v>       0.49538778       0.66666667       0.12667861 </v>
   <v>       0.49605195       0.66666667       0.62880528 </v>
   <v>       0.00393463       0.16666667       0.85685013 </v>
   <v>       0.00452001       0.50551120       0.37870024 </v>
   <v>       0.00434597       0.49921296       0.87386543 </v>
   <v>       0.00452001       0.82782213       0.37870024 </v>
   <v>       0.00434597       0.83412037       0.87386543 </v>
   <v>       0.17860213       0.99585012       0.27917288 </v>
   <v>       0.17203981       0.00044560       0.77995038 </v>
   <v>       0.17860213       0.33748321       0.27917288 </v>
   <v>       0.17203981       0.33288774       0.77995038 </v>
   <v>       0.17499874       0.66666667       0.28171842 </v>
   <v>       0.17295148       0.66666667       0.78213410 </v>
   <v>       0.33058848       0.16666667       0.21986720 </v>
   <v>       0.32721475       0.16666667       0.71956943 </v>
   <v>       0.33060477       0.50219169       0.22024800 </v>
   <v>       0.32812900       0.49972763       0.72082782 </v>
   <v>       0.33060477       0.83114164       0.22024800 </v>
   <v>       0.32812900       0.83360570       0.72082782 </v>
   <v>       0.33500250       0.16666667       0.44589365 </v>
   <v>       0.33248916       0.16666667       0.94524214 </v>
   <v>       0.33248018       0.50043968       0.44680600 </v>
   <v>       0.33315108       0.49941589       0.94586198 </v>
   <v>       0.33248018       0.83289366       0.44680600 </v>
   <v>       0.33315108       0.83391745       0.94586198 </v>
   <v>       0.17511738       0.99843133       0.05267644 </v>
   <v>       0.17223928       0.99759528       0.55625647 </v>
   <v>       0.17511738       0.33490200       0.05267644 </v>
   <v>       0.17223928       0.33573805       0.55625647 </v>
   <v>       0.17025292       0.66666667       0.05432661 </v>
   <v>       0.17184894       0.66666667       0.55696354 </v>
   <v>       0.97971258       0.16666667       0.31670799 </v>
  </varray>
 </structure>
 <calculation>
  <scstep>
   <time name="total">    4.00    4.00</time>
   <energy>
    <i name="alphaZ">   5529.70323211 </i>
    <i name="ewald"> -88745.69390698 </i>
    <i name="hartreedc">  -2118.39256583 </i>
    <i name="XCdc">   2796.63294179 </i>
    <i name="pawpsdc"> 338284.64019713 </i>
    <i name="pawaedc">-370237.93246448 </i>
    <i name="eentropy">     -0.01453555 </i>
    <i name="bandstr"> -40673.65530561 </i>
    <i name="atom"> 133605.80973787 </i>
    <i name="e_fr_energy"> -21558.90266955 </i>
    <i name="e_wo_entrp"> -21558.88813400 </i>
    <i name="e_0_energy"> -21558.89540177 </i>
   </energy>
  </scstep>
  <scstep>
   <time name="total">    3.14    3.14</time>
   <energy>
    <i name="e_fr_energy"> -66033.96403347 </i>
    <i name="e_wo_entrp"> -66033.94518608 </i>
    <i name="e_0_energy"> -66033.95460977 </i>
   </energy>
  </scstep>
  <scstep>
   <time name="total">    3.32    3.32</time>
   <energy>
    <i name="e_fr_energy"> -70907.32992905 </i>
    <i name="e_wo_entrp"> -70907.29093404 </i>
    <i name="e_0_energy"> -70907.31043154 </i>
   </energy>
  </scstep>
  <scstep>
   <time name="total">    3.72    3.72</time>
   <energy>
    <i name="e_fr_energy"> -71551.96242467 </i>
    <i name="e_wo_entrp"> -71551.93468967 </i>
    <i name="e_0_energy"> -71551.94855717 </i>
   </energy>
  </scstep>
  <scstep>
   <time name="total">  236.67  236.64</time>
   <energy>
    <i name="e_fr_energy"> -38502.61711654 </i>
    <i name="e_wo_entrp"> -38502.61667661 </i>
    <i name="e_0_energy"> -38502.61689658 </i>
   </energy>
  </scstep>
  <scstep>
   <time name="total">  471.00  470.95</time>
   <energy>
    <i name="e_fr_energy">  27434.68924202 </i>
    <i name="e_wo_entrp">  27434.71225668 </i>
    <i name="e_0_energy">  27434.70074935 </i>
   </energy>
  </scstep>
  <scstep>
   <time name="total">  472.35  472.31</time>
   <energy>
    <i name="e_fr_energy">   9003.82171717 </i>
    <i name="e_wo_entrp">   9003.83346956 </i>
    <i name="e_0_energy">   9003.82759336 </i>
   </energy>
  </scstep>
  <scstep>
   <time name="total">  471.37  471.31</time>
   <energy>
    <i name="e_fr_energy">   4747.96986929 </i>
    <i name="e_wo_entrp">   4748.01270581 </i>
    <i name="e_0_energy">   4747.99128755 </i>
   </energy>
  </scstep>
  <scstep>
   <time name="total">  472.59  472.53</time>
   <energy>
    <i name="e_fr_energy">   2946.19874090 </i>
    <i name="e_wo_entrp">   2946.23931218 </i>
    <i name="e_0_energy">   2946.21902654 </i>
   </energy>
  </scstep>
  <scstep>
   <time name="total">  472.22  472.16</time>
   <energy>
    <i name="e_fr_energy">   1677.30589275 </i>
    <i name="e_wo_entrp">   1677.33667750 </i>
    <i name="e_0_energy">   1677.32128513 </i>
   </energy>
  </scstep>
  <scstep>
   <time name="total">  471.29  471.22</time>
   <energy>
    <i name="e_fr_energy">    684.49696922 </i>
    <i name="e_wo_entrp">    684.51432224 </i>
    <i name="e_0_energy">    684.50564573 </i>
   </energy>
  </scstep>
  <scstep>
   <time name="total">  470.69  470.63</time>
   <energy>
    <i name="e_fr_energy">    -56.93646742 </i>
    <i name="e_wo_entrp">    -56.92769066 </i>
    <i name="e_0_energy">    -56.93207904 </i>
   </energy>
  </scstep>
  <scstep>
   <time name="total">  470.63  470.56</time>
   <energy>
    <i name="e_fr_energy">   -503.54119900 </i>
    <i name="e_wo_entrp">   -503.53195479 </i>
    <i name="e_0_energy">   -503.53657689 </i>
   </energy>
  </scstep>
  <scstep>
   <time name="total">  470.38  470.33</time>
   <energy>
    <i name="e_fr_energy">   -774.82536250 </i>
    <i name="e_wo_entrp">   -774.82535893 </i>
    <i name="e_0_energy">   -774.82536071 </i>
   </energy>
  </scstep>
  <scstep>
   <time name="total">  470.06  470.00</time>
   <energy>
    <i name="e_fr_energy">   -885.97344366 </i>
    <i name="e_wo_entrp">   -885.97340784 </i>
    <i name="e_0_energy">   -885.97342575 </i>
   </energy>
  </scstep>
  <scstep>
   <time name="total">  469.91  469.85</time>
   <energy>
    <i name="e_fr_energy">   -933.42441149 </i>
    <i name="e_wo_entrp">   -933.42441149 </i>
    <i name="e_0_energy">   -933.42441149 </i>
   </energy>
  </scstep>
  <scstep>
   <time name="total">  470.10  470.03</time>
   <energy>
    <i name="e_fr_energy">   -953.54778084 </i>
    <i name="e_wo_entrp">   -953.54778084 </i>
    <i name="e_0_energy">   -953.54778084 </i>
   </energy>
  </scstep>
  <scstep>
   <time name="total">  469.89  469.82</time>
   <energy>
    <i name="e_fr_energy">   -964.56001715 </i>
    <i name="e_wo_entrp">   -964.56001715 </i>
    <i name="e_0_energy">   -964.56001715 </i>
   </energy>
  </scstep>
  <scstep>
   <time name="total">  470.17  470.10</time>
   <energy>
    <i name="e_fr_energy">   -969.74470767 </i>
    <i name="e_wo_entrp">   -969.74470767 </i>
    <i name="e_0_energy">   -969.74470767 </i>
   </energy>
  </scstep>
  <scstep>
   <time name="total">  469.98  469.91</time>
   <energy>
    <i name="e_fr_energy">   -972.74419088 </i>
    <i name="e_wo_entrp">   -972.74419088 </i>
    <i name="e_0_energy">   -972.74419088 </i>
   </energy>
  </scstep>
  <scstep>
   <time name="total">  470.30  470.22</time>
   <energy>
    <i name="e_fr_energy">   -974.10150677 </i>
    <i name="e_wo_entrp">   -974.10150677 </i>
    <i name="e_0_energy">   -974.10150677 </i>
   </energy>
  </scstep>
  <scstep>
   <time name="total">  469.92  469.85</time>
   <energy>
    <i name="e_fr_energy">   -974.79416449 </i>
    <i name="e_wo_entrp">   -974.79416449 </i>
    <i name="e_0_energy">   -974.79416449 </i>
   </energy>
  </scstep>
  <scstep>
   <time name="total">  470.20  470.13</time>
   <energy>
    <i name="e_fr_energy">   -975.08624027 </i>
    <i name="e_wo_entrp">   -975.08624027 </i>
    <i name="e_0_energy">   -975.08624027 </i>
   </energy>
  </scstep>
  <scstep>
   <time name="total">  470.14  470.07</time>
   <energy>
    <i name="e_fr_energy">   -975.23473555 </i>
    <i name="e_wo_entrp">   -975.23473555 </i>
    <i name="e_0_energy">   -975.23473555 </i>
   </energy>
  </scstep>
  <scstep>
   <time name="total">  469.72  469.65</time>
   <energy>
    <i name="e_fr_energy">   -975.30018326 </i>
    <i name="e_wo_entrp">   -975.30018326 </i>
    <i name="e_0_energy">   -975.30018326 </i>
   </energy>
  </scstep>
  <scstep>
   <time name="total">  469.93  469.86</time>
   <energy>
    <i name="e_fr_energy">   -975.33660610 </i>
    <i name="e_wo_entrp">   -975.33660610 </i>
    <i name="e_0_energy">   -975.33660610 </i>
   </energy>
  </scstep>
  <scstep>
   <time name="total">  469.82  469.75</time>
   <energy>
    <i name="e_fr_energy">   -975.35528841 </i>
    <i name="e_wo_entrp">   -975.35528841 </i>
    <i name="e_0_energy">   -975.35528841 </i>
   </energy>
  </scstep>
  <scstep>
   <time name="total">  469.85  469.79</time>
   <energy>
    <i name="e_fr_energy">   -975.36434326 </i>
    <i name="e_wo_entrp">   -975.36434326 </i>
    <i name="e_0_energy">   -975.36434326 </i>
   </energy>
  </scstep>
  <scstep>
   <time name="total">  470.08  470.02</time>
   <energy>
    <i name="e_fr_energy">   -975.36877916 </i>
    <i name="e_wo_entrp">   -975.36877916 </i>
    <i name="e_0_energy">   -975.36877916 </i>
   </energy>
  </scstep>
  <scstep>
   <time name="total">  470.15  470.09</time>
   <energy>
    <i name="e_fr_energy">   -975.37080165 </i>
    <i name="e_wo_entrp">   -975.37080165 </i>
    <i name="e_0_energy">   -975.37080165 </i>
   </energy>
  </scstep>
  <scstep>
   <time name="total">  469.80  469.74</time>
   <energy>
    <i name="e_fr_energy">   -975.37188177 </i>
    <i name="e_wo_entrp">   -975.37188177 </i>
    <i name="e_0_energy">   -975.37188177 </i>
   </energy>
  </scstep>
  <scstep>
   <time name="total">  469.95  469.88</time>
   <energy>
    <i name="e_fr_energy">   -975.37243189 </i>
    <i name="e_wo_entrp">   -975.37243189 </i>
    <i name="e_0_energy">   -975.37243189 </i>
   </energy>
  </scstep>
  <scstep>
   <time name="total">  469.90  469.84</time>
   <energy>
    <i name="e_fr_energy">   -975.37273358 </i>
    <i name="e_wo_entrp">   -975.37273358 </i>
    <i name="e_0_energy">   -975.37273358 </i>
   </energy>
  </scstep>
  <scstep>
   <time name="total">  469.79  469.73</time>
   <energy>
    <i name="e_fr_energy">   -975.37288229 </i>
    <i name="e_wo_entrp">   -975.37288229 </i>
    <i name="e_0_energy">   -975.37288229 </i>
   </energy>
  </scstep>
  <scstep>
   <time name="total">  469.86  469.79</time>
   <energy>
    <i name="e_fr_energy">   -975.37295352 </i>
    <i name="e_wo_entrp">   -975.37295352 </i>
    <i name="e_0_energy">   -975.37295352 </i>
   </energy>
  </scstep>
  <scstep>
   <time name="total">  470.13  470.07</time>
   <energy>
    <i name="e_fr_energy">   -975.37298868 </i>
    <i name="e_wo_entrp">   -975.37298868 </i>
    <i name="e_0_energy">   -975.37298868 </i>
   </energy>
  </scstep>
  <scstep>
   <time name="total">  469.71  469.67</time>
   <energy>
    <i name="e_fr_energy">   -975.37300807 </i>
    <i name="e_wo_entrp">   -975.37300807 </i>
    <i name="e_0_energy">   -975.37300807 </i>
   </energy>
  </scstep>
  <scstep>
   <time name="total">  469.92  469.87</time>
   <energy>
    <i name="e_fr_energy">   -975.37302207 </i>
    <i name="e_wo_entrp">   -975.37302207 </i>
    <i name="e_0_energy">   -975.37302207 </i>
   </energy>
  </scstep>
  <scstep>
   <time name="total">  700.77  700.70</time>
   <energy>
    <i name="alphaZ">   5529.70323211 </i>
    <i name="ewald"> -88745.69390698 </i>
    <i name="hartreedc"> -33872.06739066 </i>
    <i name="XCdc">   2786.43785292 </i>
    <i name="pawpsdc"> 122502.86836592 </i>
    <i name="pawaedc">-137995.92164765 </i>
    <i name="eentropy">     -0.00000000 </i>
    <i name="bandstr">  -9094.77876764 </i>
    <i name="atom"> 133605.80973787 </i>
    <i name="e_fr_energy">   -975.37302748 </i>
    <i name="e_wo_entrp">   -975.37302748 </i>
    <i name="e_0_energy">   -975.37302748 </i>
   </energy>
  </scstep>
  <structure>
   <crystal>
    <varray name="basis" >
     <v>       0.00000000      12.28047342       0.00000000 </v>
     <v>       9.14270205       0.00000000       0.00000000 </v>
     <v>       0.00000000      -2.76826177     -11.30069772 </v>
    </varray>
    <i name="volume">   1268.80515525 </i>
    <varray name="rec_basis" >
     <v>       0.00000000       0.08143009      -0.01994742 </v>
     <v>       0.10937686      -0.00000000       0.00000000 </v>
     <v>       0.00000000       0.00000000      -0.08849011 </v>
    </varray>
   </crystal>
   <varray name="positions" >
    <v>       0.65917164       0.99637482       0.15416426 </v>
    <v>       0.65972067       0.99990543       0.65846473 </v>
    <v>       0.65917164       0.33695852       0.15416426 </v>
    <v>       0.65972067       0.33342790       0.65846473 </v>
    <v>       0.65796709       0.66666667       0.15639475 </v>
    <v>       0.65909380       0.66666667       0.65909411 </v>
    <v>       0.82198609       0.16666667       0.37211775 </v>
    <v>       0.84304034       0.16666667       0.84913818 </v>
    <v>       0.84094921       0.50115186       0.34073401 </v>
    <v>       0.84144428       0.49947845       0.84685008 </v>
    <v>       0.84094921       0.83218148       0.34073401 </v>
    <v>       0.84144428       0.83385489       0.84685008 </v>
    <v>       0.58495363       0.16666667       0.39918721 </v>
    <v>       0.59155833       0.16666667       0.89854422 </v>
    <v>       0.59325927       0.50119846       0.39946789 </v>
    <v>       0.58789285       0.50058174       0.89544903 </v>
    <v>       0.59325927       0.83213487       0.39946789 </v>
    <v>       0.58789285       0.83275160       0.89544903 </v>
    <v>       0.91387483       0.00358287       0.10828368 </v>
    <v>       0.90935030       0.99702546       0.60626287 </v>
    <v>       0.91387483       0.32975046       0.10828368 </v>
    <v>       0.90935030       0.33630787       0.60626287 </v>
    <v>       0.91225247       0.66666667       0.10554886 </v>
    <v>       0.90736866       0.66666667       0.60106800 </v>
    <v>       0.16313046       0.16666667       0.15499846 </v>
    <v>       0.15897564       0.16666667       0.65516926 </v>
    <v>       0.16225771       0.50001092       0.15689959 </v>
    <v>       0.16003960       0.50046252       0.65813360 </v>
    <v>       0.16225771       0.83332242       0.15689959 </v>
    <v>       0.16003960       0.83287082       0.65813360 </v>
    <v>       0.34208422       0.99868873       0.34344733 </v>
    <v>       0.34043092       0.00020369       0.84298292 </v>
    <v>       0.34208422       0.33464460       0.34344733 </v>
    <v>       0.34043092       0.33312964       0.84298292 </v>
    <v>       0.34282950       0.66666667       0.34389360 </v>
    <v>       0.34034445       0.66666667       0.84420213 </v>
    <v>       0.09474555       0.99459855       0.39924819 </v>
    <v>       0.09146559       0.00136122       0.89885256 </v>
    <v>       0.09474555       0.33873478       0.39924819 </v>
    <v>       0.09146559       0.33197212       0.89885256 </v>
    <v>       0.09467888       0.66666667       0.39997504 </v>
    <v>       0.09070231       0.66666667       0.89880286 </v>
    <v>       0.40972426       0.16666667       0.10140893 </v>
    <v>       0.40903643       0.16666667       0.60310410 </v>
    <v>       0.41003309       0.49969626       0.10234006 </v>
    <v>       0.40893898       0.50004501       0.60310052 </v>
    <v>       0.41003309       0.83363708       0.10234006 </v>
    <v>       0.40893898       0.83328833       0.60310052 </v>
    <v>       0.00186202       0.16666667       0.08725118 </v>
    <v>       0.99396150       0.16666667       0.61390670 </v>
    <v>       0.00029059       0.49952551       0.12840054 </v>
    <v>       0.99737943       0.50145598       0.62903347 </v>
    <v>       0.00029059       0.83380782       0.12840054 </v>
    <v>       0.99737943       0.83187735       0.62903347 </v>
    <v>       0.50344497       0.99737478       0.37409586 </v>
    <v>       0.50291012       0.00128076       0.87188916 </v>
    <v>       0.50344497       0.33595855       0.37409586 </v>
    <v>       0.50291012       0.33205258       0.87188916 </v>
    <v>       0.50446692       0.66666667       0.37589088 </v>
    <v>       0.50082601       0.66666667       0.86831317 </v>
    <v>       0.67010072       0.16666667       0.28363515 </v>
    <v>       0.67351669       0.16666667       0.78207207 </v>
    <v>       0.66953946       0.50301652       0.27988743 </v>
    <v>       0.67301270       0.50038925       0.78218309 </v>
    <v>       0.66953946       0.83031682       0.27988743 </v>
    <v>       0.67301270       0.83294409       0.78218309 </v>
    <v>       0.81896310       0.97643693       0.20988858 </v>
    <v>       0.82747834       0.99991407       0.72204003 </v>
    <v>       0.81896310       0.35689640       0.20988858 </v>
    <v>       0.82747834       0.33341927       0.72204003 </v>
    <v>       0.82706221       0.66666667       0.21874989 </v>
    <v>       0.82807755       0.66666667       0.72083624 </v>
    <v>       0.81885735       0.98644141       0.45430551 </v>
    <v>       0.83327123       0.99926837       0.94891998 </v>
    <v>       0.81885735       0.34689193       0.45430551 </v>
    <v>       0.83327123       0.33406496       0.94891998 </v>
    <v>       0.82935730       0.66666667       0.44522368 </v>
    <v>       0.83501509       0.66666667       0.94840137 </v>
    <v>       0.66676886       0.16666667       0.05543438 </v>
    <v>       0.66644800       0.16666667       0.55473185 </v>
    <v>       0.66094183       0.50359732       0.05087734 </v>
    <v>       0.66557572       0.50085454       0.55711042 </v>
    <v>       0.66094183       0.82973601       0.05087734 </v>
    <v>       0.66557572       0.83247879       0.55711042 </v>
    <v>       0.49704461       0.00057857       0.12773134 </v>
    <v>       0.49663269       0.00007000       0.62866472 </v>
    <v>       0.49704461       0.33275476       0.12773134 </v>
    <v>       0.49663269       0.33326334       0.62866472 </v>
    <v>       0.49538778       0.66666667       0.12667861 </v>
    <v>       0.49605195       0.66666667       0.62880528 </v>
    <v>       0.00393463       0.16666667       0.85685013 </v>
    <v>       0.00452001       0.50551120       0.37870024 </v>
    <v>       0.00434597       0.49921296       0.87386543 </v>
    <v>       0.00452001       0.82782213       0.37870024 </v>
    <v>       0.00434597       0.83412037       0.87386543 </v>
    <v>       0.17860213       0.99585012       0.27917288 </v>
    <v>       0.17203981       0.00044560       0.77995038 </v>
    <v>       0.17860213       0.33748321       0.27917288 </v>
    <v>       0.17203981       0.33288774       0.77995038 </v>
    <v>       0.17499874       0.66666667       0.28171842 </v>
    <v>       0.17295148       0.66666667       0.78213410 </v>
    <v>       0.33058848       0.16666667       0.21986720 </v>
    <v>       0.32721475       0.16666667       0.71956943 </v>
    <v>       0.33060477       0.50219169       0.22024800 </v>
    <v>       0.32812900       0.49972763       0.72082782 </v>
    <v>       0.33060477       0.83114164       0.22024800 </v>
    <v>       0.32812900       0.83360570       0.72082782 </v>
    <v>       0.33500250       0.16666667       0.44589365 </v>
    <v>       0.33248916       0.16666667       0.94524214 </v>
    <v>       0.33248018       0.50043968       0.44680600 </v>
    <v>       0.33315108       0.49941589       0.94586198 </v>
    <v>       0.33248018       0.83289366       0.44680600 </v>
    <v>       0.33315108       0.83391745       0.94586198 </v>
    <v>       0.17511738       0.99843133       0.05267644 </v>
    <v>       0.17223928       0.99759528       0.55625647 </v>
    <v>       0.17511738       0.33490200       0.05267644 </v>
    <v>       0.17223928       0.33573805       0.55625647 </v>
    <v>       0.17025292       0.66666667       0.05432661 </v>
    <v>       0.17184894       0.66666667       0.55696354 </v>
    <v>       0.97971258       0.16666667       0.31670799 </v>
   </varray>
  </structure>
  <varray name="forces" >
   <v>      -0.10077040       0.18946521       0.02501241 </v>
   <v>      -0.02116926       0.08489151       0.01029731 </v>
   <v>       0.10077040       0.18946521       0.02501241 </v>
   <v>       0.02116926       0.08489151       0.01029731 </v>
   <v>       0.00000000       0.04662292       0.00459791 </v>
   <v>       0.00000000       0.08001215       0.03137125 </v>
   <v>       0.00000000      -0.35371933      -0.00984590 </v>
   <v>       0.00000000      -0.05088223      -0.03611497 </v>
   <v>       0.03937432      -0.10506417       0.09988929 </v>
   <v>      -0.01270495      -0.07361872      -0.05147481 </v>
   <v>      -0.03937432      -0.10506417       0.09988929 </v>
   <v>       0.01270495      -0.07361872      -0.05147481 </v>
   <v>       0.00000000      -0.01198100       0.02509928 </v>
   <v>       0.00000000      -0.03206202       0.00730423 </v>
   <v>       0.01839553      -0.02654051       0.04572991 </v>
   <v>       0.00753996      -0.00557410      -0.03534065 </v>
   <v>      -0.01839553      -0.02654051       0.04572991 </v>
   <v>      -0.00753996      -0.00557410      -0.03534065 </v>
   <v>      -0.12765926      -0.00730109       0.12172742 </v>
   <v>      -0.05458774      -0.04011205      -0.00071966 </v>
   <v>       0.12765926      -0.00730109       0.12172742 </v>
   <v>       0.05458774      -0.04011205      -0.00071966 </v>
   <v>       0.00000000      -0.02384427      -0.00620847 </v>
   <v>       0.00000000       0.02347954      -0.00226284 </v>
   <v>       0.00000000       0.09532246       0.12727197 </v>
   <v>       0.00000000       0.12442997       0.00242674 </v>
   <v>      -0.02386243       0.06957126      -0.01537682 </v>
   <v>      -0.00424176       0.09251055       0.01701043 </v>
   <v>       0.02386243       0.06957126      -0.01537682 </v>
   <v>       0.00424176       0.09251055       0.01701043 </v>
   <v>      -0.02258055      -0.10843147       0.01507171 </v>
   <v>      -0.00071751      -0.06848347      -0.00887747 </v>
   <v>       0.02258055      -0.10843147       0.01507171 </v>
   <v>       0.00071751      -0.06848347      -0.00887747 </v>
   <v>       0.00000000      -0.05738174       0.01514340 </v>
   <v>       0.00000000      -0.05263709      -0.00388933 </v>
   <v>      -0.28412650       0.11151067      -0.00225592 </v>
   <v>      -0.01748236      -0.00108451       0.05090185 </v>
   <v>       0.28412650       0.11151067      -0.00225592 </v>
   <v>       0.01748236      -0.00108451       0.05090185 </v>
   <v>       0.00000000      -0.11500734       0.00553386 </v>
   <v>       0.00000000      -0.00905206       0.01481931 </v>
   <v>       0.00000000       0.03283178      -0.03811146 </v>
   <v>       0.00000000       0.03015605      -0.02093311 </v>
   <v>       0.02695027       0.03100529      -0.03987436 </v>
   <v>       0.01116376       0.02686000      -0.00639296 </v>
   <v>      -0.02695027       0.03100529      -0.03987436 </v>
   <v>      -0.01116376       0.02686000      -0.00639296 </v>
   <v>       0.00000000      -0.25691228      -0.33007129 </v>
   <v>       0.00000000      -0.24326717      -0.06238076 </v>
   <v>       0.00813132      -0.14944611       0.09227341 </v>
   <v>      -0.03535846      -0.19557244       0.12731196 </v>
   <v>      -0.00813132      -0.14944611       0.09227341 </v>
   <v>       0.03535846      -0.19557244       0.12731196 </v>
   <v>       0.07557920       0.16207123      -0.13097254 </v>
   <v>      -0.01624186       0.17512136      -0.12192593 </v>
   <v>      -0.07557920       0.16207123      -0.13097254 </v>
   <v>       0.01624186       0.17512136      -0.12192593 </v>
   <v>       0.00000000       0.18353977      -0.11407265 </v>
   <v>       0.00000000       0.16741891      -0.15220758 </v>
   <v>       0.00000000       0.07640826      -0.37606522 </v>
   <v>       0.00000000      -0.07154546      -0.11737326 </v>
   <v>       0.01862830      -0.09690726      -0.14362503 </v>
   <v>       0.00319070      -0.06742757      -0.11298442 </v>
   <v>      -0.01862830      -0.09690726      -0.14362503 </v>
   <v>      -0.00319070      -0.06742757      -0.11298442 </v>
   <v>      -0.15723720      -0.03131727       0.18723790 </v>
   <v>      -0.02712192       0.05664312       0.16001216 </v>
   <v>       0.15723720      -0.03131727       0.18723790 </v>
   <v>       0.02712192       0.05664312       0.16001216 </v>
   <v>       0.00000000       0.07538993       0.08673927 </v>
   <v>       0.00000000       0.03382848       0.14131290 </v>
   <v>       0.25878230       0.48894768      -0.06804561 </v>
   <v>       0.01772519       0.43027476       0.03853211 </v>
   <v>      -0.25878230       0.48894768      -0.06804561 </v>
   <v>      -0.01772519       0.43027476       0.03853211 </v>
   <v>       0.00000000       0.45477365      -0.11668193 </v>
   <v>       0.00000000       0.42325444      -0.04131506 </v>
   <v>       0.00000000      -0.43617979       0.12612036 </v>
   <v>       0.00000000      -0.42341800       0.08258541 </v>
   <v>      -0.01490001      -0.40513756       0.10418778 </v>
   <v>      -0.00310591      -0.39518425       0.06361165 </v>
   <v>       0.01490001      -0.40513756       0.10418778 </v>
   <v>       0.00310591      -0.39518425       0.06361165 </v>
   <v>      -0.00326816      -0.19533481       0.15350980 </v>
   <v>       0.00766851      -0.19348789       0.12794382 </v>
   <v>       0.00326816      -0.19533481       0.15350980 </v>
   <v>      -0.00766851      -0.19348789       0.12794382 </v>
   <v>       0.00000000      -0.21616107       0.13998205 </v>
   <v>       0.00000000      -0.19999829       0.12267610 </v>
   <v>       0.00000000       0.15838037      -0.35108359 </v>
   <v>       0.05285191       0.25232032      -0.08256496 </v>
   <v>       0.00777209       0.19501609      -0.13319946 </v>
   <v>      -0.05285191       0.25232032      -0.08256496 </v>
   <v>      -0.00777209       0.19501609      -0.13319946 </v>
   <v>      -0.02853424       0.09460814      -0.06656215 </v>
   <v>      -0.00956450      -0.01400995      -0.08923895 </v>
   <v>       0.02853424       0.09460814      -0.06656215 </v>
   <v>       0.00956450      -0.01400995      -0.08923895 </v>
   <v>       0.00000000      -0.02429404      -0.14147004 </v>
   <v>       0.00000000      -0.02193196      -0.11185920 </v>
   <v>       0.00000000       0.02433506       0.15130719 </v>
   <v>       0.00000000       0.04803159       0.13039174 </v>
   <v>      -0.00375701       0.03455249       0.12662329 </v>
   <v>      -0.01135063       0.02709505       0.12552121 </v>
   <v>       0.00375701       0.03455249       0.12662329 </v>
   <v>       0.01135063       0.02709505       0.12552121 </v>
   <v>       0.00000000       0.40457136      -0.10080546 </v>
   <v>       0.00000000       0.43459185      -0.06702750 </v>
   <v>      -0.00228958       0.43621913      -0.09507137 </v>
   <v>       0.00661621       0.42702834      -0.06330698 </v>
   <v>       0.00228958       0.43621913      -0.09507137 </v>
   <v>      -0.00661621       0.42702834      -0.06330698 </v>
   <v>       0.01101186      -0.47280219       0.10864992 </v>
   <v>      -0.00608968      -0.46010692       0.08313313 </v>
   <v>      -0.01101186      -0.47280219       0.10864992 </v>
   <v>       0.00608968      -0.46010692       0.08313313 </v>
   <v>       0.00000000      -0.44234504       0.07745085 </v>
   <v>       0.00000000      -0.45397080       0.06757240 </v>
   <v>       0.00000000       0.03367670      -0.39268345 </v>
  </varray>
  <varray name="stress" >
   <v>     -23.23312154       0.00000000       0.00000000 </v>
   <v>       0.00000000     -21.79426481       3.16330963 </v>
   <v>       0.00000000       3.16331028     -29.72942560 </v>
  </varray>
  <energy>
   <i name="e_fr_energy">   -975.37302748 </i>
   <i name="e_wo_entrp">   -975.37302748 </i>
   <i name="e_0_energy">   -975.37302748 </i>
  </energy>
  <time name="totalsc">17063.8017061.73</time>
  <eigenvalues>
   <array>
    <dimension dim="1">band</dimension>
    <dimension dim="2">kpoint</dimension>
    <dimension dim="3">spin</dimension>
    <field>eigene</field>
    <field>occ</field>
    <set>
     <set comment="spin 1">
      <set comment="kpoint 1">
       <r>  -18.9987    1.0000 </r>
       <r>  -18.7072    1.0000 </r>
       <r>  -18.6594    1.0000 </r>
       <r>  -18.5155    1.0000 </r>
       <r>  -18.4374    1.0000 </r>
       <r>  -18.3155    1.0000 </r>
       <r>  -18.3143    1.0000 </r>
       <r>  -18.2546    1.0000 </r>
       <r>  -18.1501    1.0000 </r>
       <r>  -18.1421    1.0000 </r>
       <r>  -18.0637    1.0000 </r>
       <r>  -18.0579    1.0000 </r>
       <r>  -18.0438    1.0000 </r>
       <r>  -18.0083    1.0000 </r>
       <r>  -18.0024    1.0000 </r>
       <r>  -17.9879    1.0000 </r>
       <r>  -17.9650    1.0000 </r>
       <r>  -17.9335    1.0000 </r>
       <r>  -17.8971    1.0000 </r>
       <r>  -17.8799    1.0000 </r>
       <r>  -17.8669    1.0000 </r>
       <r>  -17.8454    1.0000 </r>
       <r>  -17.7869    1.0000 </r>
       <r>  -17.7835    1.0000 </r>
       <r>  -17.7372    1.0000 </r>
       <r>  -17.7095    1.0000 </r>
       <r>  -17.6976    1.0000 </r>
       <r>  -17.6906    1.0000 </r>
       <r>  -17.6905    1.0000 </r>
       <r>  -17.6659    1.0000 </r>
       <r>  -17.6648    1.0000 </r>
       <r>  -17.6617    1.0000 </r>
       <r>  -17.6340    1.0000 </r>
       <r>  -17.6124    1.0000 </r>
       <r>  -17.5425    1.0000 </r>
       <r>  -17.5381    1.0000 </r>
       <r>  -17.5248    1.0000 </r>
       <r>  -17.5202    1.0000 </r>
       <r>  -17.5031    1.0000 </r>
       <r>  -17.4892    1.0000 </r>
       <r>  -17.4788    1.0000 </r>
       <r>  -17.4699    1.0000 </r>
       <r>  -17.4516    1.0000 </r>
       <r>  -17.4396    1.0000 </r>
       <r>  -17.4029    1.0000 </r>
       <r>  -17.3892    1.0000 </r>
       <r>  -17.3663    1.0000 </r>
       <r>  -17.3656    1.0000 </r>
       <r>  -17.3473    1.0000 </r>
       <r>  -17.3283    1.0000 </r>
       <r>  -17.3235    1.0000 </r>
       <r>  -17.2675    1.0000 </r>
       <r>  -17.2643    1.0000 </r>
       <r>  -17.2608    1.0000 </r>
       <r>  -17.2556    1.0000 </r>
       <r>  -17.2492    1.0000 </r>
       <r>  -17.2274    1.0000 </r>
       <r>  -17.2160    1.0000 </r>
       <r>  -17.2099    1.0000 </r>
       <r>  -17.2094    1.0000 </r>
       <r>  -17.1919    1.0000 </r>
       <r>  -17.1765    1.0000 </r>
       <r>  -17.1592    1.0000 </r>
       <r>  -17.1496    1.0000 </r>
       <r>  -17.1346    1.0000 </r>
       <r>  -17.1010    1.0000 </r>
       <r>  -17.0798    1.0000 </r>
       <r>  -17.0550    1.0000 </r>
       <r>  -17.0206    1.0000 </r>
       <r>  -17.0104    1.0000 </r>
       <r>  -16.9690    1.0000 </r>
       <r>  -13.4507    1.0000 </r>
       <r>  -13.4338    1.0000 </r>
       <r>  -13.4165    1.0000 </r>
       <r>  -13.4005    1.0000 </r>
       <r>  -13.3942    1.0000 </r>
       <r>  -13.3891    1.0000 </r>
       <r>  -13.3833    1.0000 </r>
       <r>  -13.3665    1.0000 </r>
       <r>  -13.3629    1.0000 </r>
       <r>  -13.3566    1.0000 </r>
       <r>  -13.3518    1.0000 </r>
       <r>  -13.3456    1.0000 </r>
       <r>  -13.3393    1.0000 </r>
       <r>  -13.3325    1.0000 </r>
       <r>  -13.3311    1.0000 </r>
       <r>  -13.3239    1.0000 </r>
       <r>  -13.3154    1.0000 </r>
       <r>  -13.3120    1.0000 </r>
       <r>  -13.3116    1.0000 </r>
       <r>  -13.3060    1.0000 </r>
       <r>  -13.3047    1.0000 </r>
       <r>  -13.2972    1.0000 </r>
       <r>  -13.2940    1.0000 </r>
       <r>  -13.2932    1.0000 </r>
       <r>  -13.2929    1.0000 </r>
       <r>  -13.2851    1.0000 </r>
       <r>  -13.2835    1.0000 </r>
       <r>  -13.2802    1.0000 </r>
       <r>  -13.2800    1.0000 </r>
       <r>  -13.2716    1.0000 </r>
       <r>  -13.2699    1.0000 </r>
       <r>  -13.2679    1.0000 </r>
       <r>  -13.2658    1.0000 </r>
       <r>  -13.2639    1.0000 </r>
       <r>  -13.2578    1.0000 </r>
       <r>  -13.2545    1.0000 </r>
       <r>  -13.2529    1.0000 </r>
       <r>  -13.2479    1.0000 </r>
       <r>  -13.2476    1.0000 </r>
       <r>  -13.2442    1.0000 </r>
       <r>  -13.2407    1.0000 </r>
       <r>  -13.2376    1.0000 </r>
       <r>  -13.2373    1.0000 </r>
       <r>  -13.2361    1.0000 </r>
       <r>  -13.2315    1.0000 </r>
       <r>  -13.2301    1.0000 </r>
       <r>  -13.2245    1.0000 </r>
       <r>  -13.2228    1.0000 </r>
       <r>  -13.2194    1.0000 </r>
       <r>  -13.2174    1.0000 </r>
       <r>  -13.2139    1.0000 </r>
       <r>  -13.2068    1.0000 </r>
       <r>  -13.2061    1.0000 </r>
       <r>  -13.2038    1.0000 </r>
       <r>  -13.1996    1.0000 </r>
       <r>  -13.1941    1.0000 </r>
       <r>  -13.1933    1.0000 </r>
       <r>  -13.1879    1.0000 </r>
       <r>  -13.1825    1.0000 </r>
       <r>  -13.1755    1.0000 </r>
       <r>  -13.1726    1.0000 </r>
       <r>  -13.1723    1.0000 </r>
       <r>  -13.1697    1.0000 </r>
       <r>  -13.1664    1.0000 </r>
       <r>  -13.1657    1.0000 </r>
       <r>  -13.1634    1.0000 </r>
       <r>  -13.1563    1.0000 </r>
       <r>  -13.1512    1.0000 </r>
       <r>  -13.1508    1.0000 </r>
       <r>  -13.1492    1.0000 </r>
       <r>  -13.1440    1.0000 </r>
       <r>  -13.1369    1.0000 </r>
       <r>  -13.1352    1.0000 </r>
       <r>  -13.1335    1.0000 </r>
       <r>  -13.1324    1.0000 </r>
       <r>  -13.1301    1.0000 </r>
       <r>  -13.1296    1.0000 </r>
       <r>  -13.1258    1.0000 </r>
       <r>  -13.1224    1.0000 </r>
       <r>  -13.1176    1.0000 </r>
       <r>  -13.1174    1.0000 </r>
       <r>  -13.1152    1.0000 </r>
       <r>  -13.1139    1.0000 </r>
       <r>  -13.1122    1.0000 </r>
       <r>  -13.1045    1.0000 </r>
       <r>  -13.1041    1.0000 </r>
       <r>  -13.1017    1.0000 </r>
       <r>  -13.0947    1.0000 </r>
       <r>  -13.0944    1.0000 </r>
       <r>  -13.0918    1.0000 </r>
       <r>  -13.0913    1.0000 </r>
       <r>  -13.0839    1.0000 </r>
       <r>  -13.0825    1.0000 </r>
       <r>  -13.0792    1.0000 </r>
       <r>  -13.0767    1.0000 </r>
       <r>  -13.0726    1.0000 </r>
       <r>  -13.0701    1.0000 </r>
       <r>  -13.0655    1.0000 </r>
       <r>  -13.0629    1.0000 </r>
       <r>  -13.0609    1.0000 </r>
       <r>  -13.0584    1.0000 </r>
       <r>  -13.0565    1.0000 </r>
       <r>  -13.0536    1.0000 </r>
       <r>  -13.0513    1.0000 </r>
       <r>  -13.0491    1.0000 </r>
       <r>  -13.0465    1.0000 </r>
       <r>  -13.0460    1.0000 </r>
       <r>  -13.0426    1.0000 </r>
       <r>  -13.0422    1.0000 </r>
       <r>  -13.0409    1.0000 </r>
       <r>  -13.0391    1.0000 </r>
       <r>  -13.0373    1.0000 </r>
       <r>  -13.0324    1.0000 </r>
       <r>  -13.0309    1.0000 </r>
       <r>  -13.0239    1.0000 </r>
       <r>  -13.0214    1.0000 </r>
       <r>  -13.0198    1.0000 </r>
       <r>  -13.0181    1.0000 </r>
       <r>  -13.0101    1.0000 </r>
       <r>  -13.0098    1.0000 </r>
       <r>  -13.0019    1.0000 </r>
       <r>  -12.9997    1.0000 </r>
       <r>  -12.9983    1.0000 </r>
       <r>  -12.9898    1.0000 </r>
       <r>  -12.9896    1.0000 </r>
       <r>  -12.9874    1.0000 </r>
       <r>  -12.9855    1.0000 </r>
       <r>  -12.9834    1.0000 </r>
       <r>  -12.9822    1.0000 </r>
       <r>  -12.9810    1.0000 </r>
       <r>  -12.9780    1.0000 </r>
       <r>  -12.9757    1.0000 </r>
       <r>  -12.9745    1.0000 </r>
       <r>  -12.9691    1.0000 </r>
       <r>  -12.9648    1.0000 </r>
       <r>  -12.9625    1.0000 </r>
       <r>  -12.9619    1.0000 </r>
       <r>  -12.9603    1.0000 </r>
       <r>  -12.9574    1.0000 </r>
       <r>  -12.9561    1.0000 </r>
       <r>  -12.9514    1.0000 </r>
       <r>  -12.9474    1.0000 </r>
       <r>  -12.9458    1.0000 </r>
       <r>  -12.9407    1.0000 </r>
       <r>  -12.9398    1.0000 </r>
       <r>  -12.9369    1.0000 </r>
       <r>  -12.9350    1.0000 </r>
       <r>  -12.9344    1.0000 </r>
       <r>  -12.9292    1.0000 </r>
       <r>  -12.9266    1.0000 </r>
       <r>  -12.9261    1.0000 </r>
       <r>  -12.9197    1.0000 </r>
       <r>  -12.9171    1.0000 </r>
       <r>  -12.9143    1.0000 </r>
       <r>  -12.9129    1.0000 </r>
       <r>  -12.9122    1.0000 </r>
       <r>  -12.9077    1.0000 </r>
       <r>  -12.9058    1.0000 </r>
       <r>  -12.8966    1.0000 </r>
       <r>  -12.8933    1.0000 </r>
       <r>  -12.8930    1.0000 </r>
       <r>  -12.8875    1.0000 </r>
       <r>  -12.8874    1.0000 </r>
       <r>  -12.8800    1.0000 </r>
       <r>  -12.8774    1.0000 </r>
       <r>  -12.8765    1.0000 </r>
       <r>  -12.8751    1.0000 </r>
       <r>  -12.8691    1.0000 </r>
       <r>  -12.8627    1.0000 </r>
       <r>  -12.8594    1.0000 </r>
       <r>  -12.8553    1.0000 </r>
       <r>  -12.8430    1.0000 </r>
       <r>  -12.8399    1.0000 </r>
       <r>  -12.8393    1.0000 </r>
       <r>  -12.8337    1.0000 </r>
       <r>  -12.8294    1.0000 </r>
       <r>  -12.8266    1.0000 </r>
       <r>  -12.8219    1.0000 </r>
       <r>  -12.8115    1.0000 </r>
       <r>  -12.8078    1.0000 </r>
       <r>  -12.8048    1.0000 </r>
       <r>  -12.8012    1.0000 </r>
       <r>  -12.7934    1.0000 </r>
       <r>  -12.7859    1.0000 </r>
       <r>  -12.7847    1.0000 </r>
       <r>  -12.7823    1.0000 </r>
       <r>  -12.7771    1.0000 </r>
       <r>  -12.7730    1.0000 </r>
       <r>  -12.7612    1.0000 </r>
       <r>  -12.7571    1.0000 </r>
       <r>  -12.7553    1.0000 </r>
       <r>  -12.7462    1.0000 </r>
       <r>  -12.7368    1.0000 </r>
       <r>  -12.7295    1.0000 </r>
[...]
       <r>   -12.3930   110.5215   575.7080 </r>
       <r>   -12.2564    91.8895   588.2588 </r>
       <r>   -12.1198   112.0446   603.5624 </r>
       <r>   -11.9832    96.5900   616.7551 </r>
       <r>   -11.8466    35.4967   621.6035 </r>
       <r>   -11.7101     2.9030   622.0000 </r>
       <r>   -11.5735     0.0003   622.0000 </r>
       <r>   -11.4369     0.0000   622.0000 </r>
       <r>   -11.3003     0.0000   622.0000 </r>
       <r>   -11.1637     0.0000   622.0000 </r>
       <r>   -11.0271     0.0000   622.0000 </r>
       <r>   -10.8905     0.0000   622.0000 </r>
       <r>   -10.7540     0.0000   622.0000 </r>
       <r>   -10.6174     0.0000   622.0000 </r>
       <r>   -10.4808     0.0000   622.0000 </r>
       <r>   -10.3442     0.0000   622.0000 </r>
       <r>   -10.2076     0.0000   622.0000 </r>
       <r>   -10.0710     0.0000   622.0000 </r>
       <r>    -9.9344     0.0000   622.0000 </r>
       <r>    -9.7979     0.0000   622.0000 </r>
       <r>    -9.6613     0.0000   622.0000 </r>
       <r>    -9.5247     0.0000   622.0000 </r>
       <r>    -9.3881     0.0000   622.0000 </r>
       <r>    -9.2515     0.0000   622.0000 </r>
       <r>    -9.1149     0.0000   622.0000 </r>
       <r>    -8.9784     0.0000   622.0000 </r>
       <r>    -8.8418     0.0000   622.0000 </r>
       <r>    -8.7052     0.0000   622.0000 </r>
       <r>    -8.5686     0.0000   622.0000 </r>
       <r>    -8.4320     0.0000   622.0000 </r>
       <r>    -8.2954     0.0000   622.0000 </r>
       <r>    -8.1588     0.0000   622.0000 </r>
       <r>    -8.0223     0.0000   622.0000 </r>
       <r>    -7.8857     0.0000   622.0000 </r>
       <r>    -7.7491     0.0000   622.0000 </r>
       <r>    -7.6125     0.0000   622.0000 </r>
       <r>    -7.4759     0.0000   622.0000 </r>
       <r>    -7.3393     0.0053   622.0007 </r>
       <r>    -7.2027     8.6121   623.1770 </r>
       <r>    -7.0662     6.0246   623.9999 </r>
       <r>    -6.9296     0.0009   624.0000 </r>
       <r>    -6.7930     0.0000   624.0000 </r>
       <r>    -6.6564     0.0000   624.0000 </r>
       <r>    -6.5198     0.0000   624.0000 </r>
       <r>    -6.3832     0.0000   624.0000 </r>
       <r>    -6.2467     0.0000   624.0000 </r>
       <r>    -6.1101     0.0000   624.0000 </r>
       <r>    -5.9735     0.0000   624.0000 </r>
       <r>    -5.8369     0.0000   624.0000 </r>
       <r>    -5.7003     0.0000   624.0000 </r>
       <r>    -5.5637     0.0000   624.0000 </r>
       <r>    -5.4271     0.0325   624.0044 </r>
       <r>    -5.2906     3.4513   624.4758 </r>
       <r>    -5.1540    10.5374   625.9151 </r>
       <r>    -5.0174    16.0217   628.1034 </r>
       <r>    -4.8808    30.8057   632.3110 </r>
       <r>    -4.7442    27.6869   636.0926 </r>
       <r>    -4.6076    34.7870   640.8440 </r>
       <r>    -4.4710    43.9771   646.8506 </r>
       <r>    -4.3345    50.5362   653.7531 </r>
       <r>    -4.1979    54.2599   661.1642 </r>
       <r>    -4.0613    49.4675   667.9207 </r>
       <r>    -3.9247    41.2408   673.5536 </r>
       <r>    -3.7881    48.3743   680.1608 </r>
       <r>    -3.6515    36.1962   685.1047 </r>
       <r>    -3.5150    38.0680   690.3042 </r>
       <r>    -3.3784    24.2535   693.6169 </r>
       <r>    -3.2418    37.2450   698.7040 </r>
       <r>    -3.1052    31.8484   703.0540 </r>
       <r>    -2.9686    37.8250   708.2203 </r>
       <r>    -2.8320    32.8803   712.7113 </r>
       <r>    -2.6954    38.5938   717.9826 </r>
       <r>    -2.5589    37.5419   723.1102 </r>
       <r>    -2.4223    34.8955   727.8764 </r>
       <r>    -2.2857    50.8751   734.8252 </r>
       <r>    -2.1491    38.8635   740.1334 </r>
       <r>    -2.0125    37.3831   745.2393 </r>
       <r>    -1.8759    70.1943   754.8268 </r>
       <r>    -1.7393    62.8952   763.4174 </r>
       <r>    -1.6028    51.2974   770.4238 </r>
       <r>    -1.4662    65.5178   779.3726 </r>
       <r>    -1.3296    65.3992   788.3051 </r>
       <r>    -1.1930    50.9063   795.2582 </r>
       <r>    -1.0564    49.8364   802.0651 </r>
       <r>    -0.9198    75.4113   812.3651 </r>
       <r>    -0.7833    62.9890   820.9685 </r>
       <r>    -0.6467    75.0444   831.2184 </r>
       <r>    -0.5101    63.1368   839.8419 </r>
       <r>    -0.3735    59.7036   847.9966 </r>
       <r>    -0.2369    72.2849   857.8696 </r>
       <r>    -0.1003    74.3748   868.0281 </r>
       <r>     0.0363    76.6606   878.4988 </r>
       <r>     0.1728    72.5627   888.4097 </r>
       <r>     0.3094    67.3676   897.6112 </r>
       <r>     0.4460    75.6107   907.9384 </r>
       <r>     0.5826    96.3370   921.0966 </r>
       <r>     0.7192    91.0815   933.5370 </r>
       <r>     0.8558    84.1979   945.0372 </r>
       <r>     0.9924    83.6309   956.4599 </r>
       <r>     1.1289   123.4697   973.3240 </r>
       <r>     1.2655   106.8617   987.9197 </r>
       <r>     1.4021   124.7983  1004.9653 </r>
       <r>     1.5387   121.2363  1021.5243 </r>
       <r>     1.6753    89.2550  1033.7152 </r>
       <r>     1.8119    52.2843  1040.8565 </r>
       <r>     1.9485    53.7535  1048.1984 </r>
       <r>     2.0850    13.0562  1049.9817 </r>
       <r>     2.2216     0.1342  1050.0000 </r>
       <r>     2.3582     0.0000  1050.0000 </r>
       <r>     2.4948     0.0000  1050.0000 </r>
       <r>     2.6314     0.0000  1050.0000 </r>
       <r>     2.7680     0.0000  1050.0000 </r>
       <r>     2.9045     0.0000  1050.0000 </r>
       <r>     3.0411     0.0027  1050.0004 </r>
       <r>     3.1777     3.7604  1050.5140 </r>
       <r>     3.3143    17.2107  1052.8647 </r>
       <r>     3.4509     1.1729  1053.0249 </r>
       <r>     3.5875     6.9228  1053.9705 </r>
       <r>     3.7241     0.2163  1054.0000 </r>
       <r>     3.8606     0.0000  1054.0000 </r>
       <r>     3.9972     0.0000  1054.0000 </r>
       <r>     4.1338     0.0001  1054.0000 </r>
       <r>     4.2704     2.2561  1054.3082 </r>
       <r>     4.4070    12.0435  1055.9531 </r>
       <r>     4.5436     0.3432  1056.0000 </r>
       <r>     4.6802     0.0000  1056.0000 </r>
       <r>     4.8167     0.0000  1056.0000 </r>
       <r>     4.9533     0.0000  1056.0000 </r>
       <r>     5.0899     0.0000  1056.0000 </r>
       <r>     5.2265     0.0000  1056.0000 </r>
       <r>     5.3631     0.0000  1056.0000 </r>
       <r>     5.4997     0.0000  1056.0000 </r>
       <r>     5.6362     0.0000  1056.0000 </r>
       <r>     5.7728     0.0000  1056.0000 </r>
       <r>     5.9094     0.0000  1056.0000 </r>
       <r>     6.0460     0.0000  1056.0000 </r>
       <r>     6.1826     0.0000  1056.0000 </r>
       <r>     6.3192     0.0000  1056.0000 </r>
       <r>     6.4558     0.0000  1056.0000 </r>
       <r>     6.5923     0.0000  1056.0000 </r>
       <r>     6.7289     0.0000  1056.0000 </r>
       <r>     6.8655     0.0000  1056.0000 </r>
       <r>     7.0021     0.7593  1056.1037 </r>
       <r>     7.1387     1.0707  1056.2500 </r>
       <r>     7.2753     0.0002  1056.2500 </r>
       <r>     7.4119     0.0000  1056.2500 </r>
       <r>     7.5484     0.0000  1056.2500 </r>
       <r>     7.6850     0.0001  1056.2500 </r>
       <r>     7.8216     1.6242  1056.4719 </r>
       <r>     7.9582     4.1128  1057.0336 </r>
       <r>     8.0948     1.6039  1057.2527 </r>
       <r>     8.2314     2.9399  1057.6542 </r>
       <r>     8.3679     3.8746  1058.1834 </r>
       <r>     8.5045     0.4875  1058.2500 </r>
       <r>     8.6411     0.0728  1058.2599 </r>
       <r>     8.7777     5.8905  1059.0645 </r>
       <r>     8.9143     7.6610  1060.1109 </r>
       <r>     9.0509     3.8884  1060.6420 </r>
       <r>     9.1875     6.1625  1061.4837 </r>
       <r>     9.3240     4.0962  1062.0431 </r>
       <r>     9.4606     3.7401  1062.5540 </r>
       <r>     9.5972    11.8801  1064.1766 </r>
       <r>     9.7338     5.7927  1064.9678 </r>
       <r>     9.8704     2.8511  1065.3572 </r>
       <r>    10.0070    10.3488  1066.7707 </r>
       <r>    10.1436    17.1430  1069.1122 </r>
       <r>    10.2801    15.0475  1071.1675 </r>
       <r>    10.4167    19.3041  1073.8041 </r>
       <r>    10.5533    19.6326  1076.4856 </r>
       <r>    10.6899    27.8389  1080.2880 </r>
       <r>    10.8265    31.4148  1084.5788 </r>
       <r>    10.9631    39.9985  1090.0420 </r>
       <r>    11.0996    38.5291  1095.3045 </r>
       <r>    11.2362    34.1335  1099.9666 </r>
       <r>    11.3728    29.7445  1104.0293 </r>
       <r>    11.5094    31.1133  1108.2789 </r>
       <r>    11.6460    31.5033  1112.5818 </r>
       <r>    11.7826    31.2751  1116.8535 </r>
       <r>    11.9192    31.7844  1121.1948 </r>
       <r>    12.0557    37.0882  1126.2604 </r>
       <r>    12.1923    35.6738  1131.1329 </r>
       <r>    12.3289    32.4389  1135.5636 </r>
       <r>    12.4655    27.2787  1139.2895 </r>
       <r>    12.6021    36.5067  1144.2757 </r>
       <r>    12.7387    40.8354  1149.8533 </r>
       <r>    12.8753    42.5757  1155.6685 </r>
       <r>    13.0118    30.3451  1159.8131 </r>
       <r>    13.1484    23.9583  1163.0855 </r>
       <r>    13.2850    30.1283  1167.2006 </r>
       <r>    13.4216    32.3604  1171.6205 </r>
       <r>    13.5582    37.5742  1176.7526 </r>
       <r>    13.6948    34.8519  1181.5128 </r>
       <r>    13.8313    29.2854  1185.5128 </r>
       <r>    13.9679    31.3636  1189.7966 </r>
       <r>    14.1045    26.1390  1193.3667 </r>
       <r>    14.2411    27.3480  1197.1021 </r>
       <r>    14.3777    27.2702  1200.8268 </r>
       <r>    14.5143    28.2922  1204.6911 </r>
       <r>    14.6509    26.9202  1208.3680 </r>
       <r>    14.7874    28.0765  1212.2028 </r>
       <r>    14.9240    23.9933  1215.4799 </r>
       <r>    15.0606    28.6402  1219.3917 </r>
       <r>    15.1972    20.9337  1222.2510 </r>
       <r>    15.3338    22.8668  1225.3742 </r>
       <r>    15.4704    22.8428  1228.4942 </r>
       <r>    15.6070    28.4982  1232.3867 </r>
       <r>    15.7435    25.7267  1235.9005 </r>
       <r>    15.8801    20.4902  1238.6992 </r>
       <r>    16.0167    22.8211  1241.8162 </r>
       <r>    16.1533    22.1604  1244.8430 </r>
       <r>    16.2899    20.1220  1247.5913 </r>
       <r>    16.4265    19.7681  1250.2914 </r>
       <r>    16.5630    16.3228  1252.5208 </r>
       <r>    16.6996    14.4172  1254.4900 </r>
       <r>    16.8362    18.6555  1257.0381 </r>
       <r>    16.9728    18.4762  1259.5616 </r>
       <r>    17.1094    10.8055  1261.0375 </r>
       <r>    17.2460    11.9861  1262.6746 </r>
       <r>    17.3826     4.9679  1263.3531 </r>
       <r>    17.5191     4.1222  1263.9162 </r>
       <r>    17.6557     3.3488  1264.3736 </r>
       <r>    17.7923     3.0336  1264.7879 </r>
       <r>    17.9289     4.2975  1265.3749 </r>
       <r>    18.0655     2.7445  1265.7498 </r>
       <r>    18.2021     0.1483  1265.7700 </r>
       <r>    18.3387     1.6711  1265.9983 </r>
       <r>    18.4752     0.0128  1266.0000 </r>
       <r>    18.6118     0.0000  1266.0000 </r>
       <r>    18.7484     0.0000  1266.0000 </r>
       <r>    18.8850     0.0000  1266.0000 </r>
       <r>    19.0216     0.0000  1266.0000 </r>
       <r>    19.1582     0.0000  1266.0000 </r>
       <r>    19.2947     0.0000  1266.0000 </r>
       <r>    19.4313     0.0000  1266.0000 </r>
       <r>    19.5679     0.0000  1266.0000 </r>
       <r>    19.7045     0.0000  1266.0000 </r>
       <r>    19.8411     0.0000  1266.0000 </r>
       <r>    19.9777     0.0000  1266.0000 </r>
       <r>    20.1143     0.0000  1266.0000 </r>
      </set>
     </set>
    </array>
   </total>
  </dos>
 </calculation>
 <structure name="finalpos" >
  <crystal>
   <varray name="basis" >
    <v>       0.00000000      12.28047342       0.00000000 </v>
    <v>       9.14270205       0.00000000       0.00000000 </v>
    <v>       0.00000000      -2.76826177     -11.30069772 </v>
   </varray>
   <i name="volume">   1268.80515525 </i>
   <varray name="rec_basis" >
    <v>       0.00000000       0.08143009      -0.01994742 </v>
    <v>       0.10937686      -0.00000000       0.00000000 </v>
    <v>       0.00000000       0.00000000      -0.08849011 </v>
   </varray>
  </crystal>
  <varray name="positions" >
   <v>       0.65917164       0.99637482       0.15416426 </v>
   <v>       0.65972067       0.99990543       0.65846473 </v>
   <v>       0.65917164       0.33695852       0.15416426 </v>
   <v>       0.65972067       0.33342790       0.65846473 </v>
   <v>       0.65796709       0.66666667       0.15639475 </v>
   <v>       0.65909380       0.66666667       0.65909411 </v>
   <v>       0.82198609       0.16666667       0.37211775 </v>
   <v>       0.84304034       0.16666667       0.84913818 </v>
   <v>       0.84094921       0.50115186       0.34073401 </v>
   <v>       0.84144428       0.49947845       0.84685008 </v>
   <v>       0.84094921       0.83218148       0.34073401 </v>
   <v>       0.84144428       0.83385489       0.84685008 </v>
   <v>       0.58495363       0.16666667       0.39918721 </v>
   <v>       0.59155833       0.16666667       0.89854422 </v>
   <v>       0.59325927       0.50119846       0.39946789 </v>
   <v>       0.58789285       0.50058174       0.89544903 </v>
   <v>       0.59325927       0.83213487       0.39946789 </v>
   <v>       0.58789285       0.83275160       0.89544903 </v>
   <v>       0.91387483       0.00358287       0.10828368 </v>
   <v>       0.90935030       0.99702546       0.60626287 </v>
   <v>       0.91387483       0.32975046       0.10828368 </v>
   <v>       0.90935030       0.33630787       0.60626287 </v>
   <v>       0.91225247       0.66666667       0.10554886 </v>
   <v>       0.90736866       0.66666667       0.60106800 </v>
   <v>       0.16313046       0.16666667       0.15499846 </v>
   <v>       0.15897564       0.16666667       0.65516926 </v>
   <v>       0.16225771       0.50001092       0.15689959 </v>
   <v>       0.16003960       0.50046252       0.65813360 </v>
   <v>       0.16225771       0.83332242       0.15689959 </v>
   <v>       0.16003960       0.83287082       0.65813360 </v>
   <v>       0.34208422       0.99868873       0.34344733 </v>
   <v>       0.34043092       0.00020369       0.84298292 </v>
   <v>       0.34208422       0.33464460       0.34344733 </v>
   <v>       0.34043092       0.33312964       0.84298292 </v>
   <v>       0.34282950       0.66666667       0.34389360 </v>
   <v>       0.34034445       0.66666667       0.84420213 </v>
   <v>       0.09474555       0.99459855       0.39924819 </v>
   <v>       0.09146559       0.00136122       0.89885256 </v>
   <v>       0.09474555       0.33873478       0.39924819 </v>
   <v>       0.09146559       0.33197212       0.89885256 </v>
   <v>       0.09467888       0.66666667       0.39997504 </v>
   <v>       0.09070231       0.66666667       0.89880286 </v>
   <v>       0.40972426       0.16666667       0.10140893 </v>
   <v>       0.40903643       0.16666667       0.60310410 </v>
   <v>       0.41003309       0.49969626       0.10234006 </v>
   <v>       0.40893898       0.50004501       0.60310052 </v>
   <v>       0.41003309       0.83363708       0.10234006 </v>
   <v>       0.40893898       0.83328833       0.60310052 </v>
   <v>       0.00186202       0.16666667       0.08725118 </v>
   <v>       0.99396150       0.16666667       0.61390670 </v>
   <v>       0.00029059       0.49952551       0.12840054 </v>
   <v>       0.99737943       0.50145598       0.62903347 </v>
   <v>       0.00029059       0.83380782       0.12840054 </v>
   <v>       0.99737943       0.83187735       0.62903347 </v>
   <v>       0.50344497       0.99737478       0.37409586 </v>
   <v>       0.50291012       0.00128076       0.87188916 </v>
   <v>       0.50344497       0.33595855       0.37409586 </v>
   <v>       0.50291012       0.33205258       0.87188916 </v>
   <v>       0.50446692       0.66666667       0.37589088 </v>
   <v>       0.50082601       0.66666667       0.86831317 </v>
   <v>       0.67010072       0.16666667       0.28363515 </v>
   <v>       0.67351669       0.16666667       0.78207207 </v>
   <v>       0.66953946       0.50301652       0.27988743 </v>
   <v>       0.67301270       0.50038925       0.78218309 </v>
   <v>       0.66953946       0.83031682       0.27988743 </v>
   <v>       0.67301270       0.83294409       0.78218309 </v>
   <v>       0.81896310       0.97643693       0.20988858 </v>
   <v>       0.82747834       0.99991407       0.72204003 </v>
   <v>       0.81896310       0.35689640       0.20988858 </v>
   <v>       0.82747834       0.33341927       0.72204003 </v>
   <v>       0.82706221       0.66666667       0.21874989 </v>
   <v>       0.82807755       0.66666667       0.72083624 </v>
   <v>       0.81885735       0.98644141       0.45430551 </v>
   <v>       0.83327123       0.99926837       0.94891998 </v>
   <v>       0.81885735       0.34689193       0.45430551 </v>
   <v>       0.83327123       0.33406496       0.94891998 </v>
   <v>       0.82935730       0.66666667       0.44522368 </v>
   <v>       0.83501509       0.66666667       0.94840137 </v>
   <v>       0.66676886       0.16666667       0.05543438 </v>
   <v>       0.66644800       0.16666667       0.55473185 </v>
   <v>       0.66094183       0.50359732       0.05087734 </v>
   <v>       0.66557572       0.50085454       0.55711042 </v>
   <v>       0.66094183       0.82973601       0.05087734 </v>
   <v>       0.66557572       0.83247879       0.55711042 </v>
   <v>       0.49704461       0.00057857       0.12773134 </v>
   <v>       0.49663269       0.00007000       0.62866472 </v>
   <v>       0.49704461       0.33275476       0.12773134 </v>
   <v>       0.49663269       0.33326334       0.62866472 </v>
   <v>       0.49538778       0.66666667       0.12667861 </v>
   <v>       0.49605195       0.66666667       0.62880528 </v>
   <v>       0.00393463       0.16666667       0.85685013 </v>
   <v>       0.00452001       0.50551120       0.37870024 </v>
   <v>       0.00434597       0.49921296       0.87386543 </v>
   <v>       0.00452001       0.82782213       0.37870024 </v>
   <v>       0.00434597       0.83412037       0.87386543 </v>
   <v>       0.17860213       0.99585012       0.27917288 </v>
   <v>       0.17203981       0.00044560       0.77995038 </v>
   <v>       0.17860213       0.33748321       0.27917288 </v>
   <v>       0.17203981       0.33288774       0.77995038 </v>
   <v>       0.17499874       0.66666667       0.28171842 </v>
   <v>       0.17295148       0.66666667       0.78213410 </v>
   <v>       0.33058848       0.16666667       0.21986720 </v>
   <v>       0.32721475       0.16666667       0.71956943 </v>
   <v>       0.33060477       0.50219169       0.22024800 </v>
   <v>       0.32812900       0.49972763       0.72082782 </v>
   <v>       0.33060477       0.83114164       0.22024800 </v>
   <v>       0.32812900       0.83360570       0.72082782 </v>
   <v>       0.33500250       0.16666667       0.44589365 </v>
   <v>       0.33248916       0.16666667       0.94524214 </v>
   <v>       0.33248018       0.50043968       0.44680600 </v>
   <v>       0.33315108       0.49941589       0.94586198 </v>
   <v>       0.33248018       0.83289366       0.44680600 </v>
   <v>       0.33315108       0.83391745       0.94586198 </v>
   <v>       0.17511738       0.99843133       0.05267644 </v>
   <v>       0.17223928       0.99759528       0.55625647 </v>
   <v>       0.17511738       0.33490200       0.05267644 </v>
   <v>       0.17223928       0.33573805       0.55625647 </v>
   <v>       0.17025292       0.66666667       0.05432661 </v>
   <v>       0.17184894       0.66666667       0.55696354 </v>
   <v>       0.97971258       0.16666667       0.31670799 </v>
  </varray>
 </structure>
</modeling>
