 running    4 mpi-ranks, on    1 nodes
 distrk:  each k-point on    1 cores,    4 groups
 distr:  one band on    1 cores,    1 groups
 OpenACC runtime initialized ...    4 GPUs detected
 vasp.6.4.2 20Jul23 (build Nov 12 2023 22:16:35) complex                         
 POSCAR found type information on POSCAR GaO 
 POSCAR found :  2 types and     119 ions
 scaLAPACK will be used selectively (only on CPU)
 LDA part: xc-table for Pade appr. of Perdew
 POSCAR, INCAR and KPOINTS ok, starting setup
 FFT: planning ... GRIDC
 FFT: planning ... GRID_SOFT
 FFT: planning ... GRID
 WAVECAR not read
 initial charge from wavefunction
 entering main loop
       N       E                     dE             d eps       ncg     rms          ort
DAV:   1    -0.182121063375E+05   -0.18212E+05   -0.54704E+05  5008   0.750E+03
DAV:   2    -0.625113583249E+05   -0.44299E+05   -0.42798E+05  5008   0.122E+03
DAV:   3    -0.675705964237E+05   -0.50592E+04   -0.45550E+04  5008   0.374E+02
DAV:   4    -0.683329116234E+05   -0.76232E+03   -0.67094E+03  5008   0.120E+02
DAV:   5    -0.388658475890E+05    0.29467E+05   -0.74730E+02  5008   0.571E+01
 gam= 0.000 g(H,U,f)=  0.801E+05 0.133E+05 0.325E-12 ort(H,U,f) = 0.000E+00 0.000E+00 0.000E+00
SDA:   6     0.299173151427E+05    0.68783E+05   -0.74730E+02  5008   0.935E+05 0.000E+00
 gam= 0.000 trial= 0.400  step= 0.413 mean= 0.400
 gam= 0.000 g(H,U,f)=  0.385E+05 0.405E+05 0.352E+04 ort(H,U,f) =-0.747E+04-0.384E+05-0.441E+04
CGA:   7     0.110149633378E+05   -0.18902E+05   -0.19310E+05  5008   0.825E+05-0.503E+05
 gam= 0.000 trial= 0.401  step= 0.229 mean= 0.401
 gam= 0.175 g(H,U,f)=  0.111E+05 0.317E+04 0.142E+03 ort(H,U,f) =-0.348E+03-0.256E+04-0.580E+03
CGA:   8     0.314073533003E+04   -0.78742E+04   -0.94650E+04  5008   0.144E+05-0.349E+04
 gam= 0.175 trial= 0.392  step= 0.231 mean= 0.392
 gam= 0.639 g(H,U,f)=  0.515E+04 0.383E+04 0.244E+03 ort(H,U,f) = 0.173E+04-0.277E+04-0.285E+03
CGA:   9     0.151448022862E+04   -0.16263E+04   -0.15976E+04  5008   0.922E+04-0.133E+04
 gam= 0.639 trial= 0.384  step= 0.230 mean= 0.384
 gam= 0.530 g(H,U,f)=  0.271E+04 0.211E+04 0.621E+02 ort(H,U,f) =-0.201E+02-0.103E+04-0.276E+02
CGA:  10     0.618840297405E+03   -0.89564E+03   -0.96387E+03  5008   0.489E+04-0.108E+04
 gam= 0.530 trial= 0.376  step= 0.328 mean= 0.376
 gam= 0.475 g(H,U,f)=  0.145E+04 0.844E+03 0.241E+02 ort(H,U,f) = 0.208E+03-0.165E+03-0.207E+02
CGA:  11    -0.799963663992E+02   -0.69884E+03   -0.70717E+03  5008   0.232E+04 0.226E+02
 gam= 0.475 trial= 0.374  step= 0.344 mean= 0.374
 gam= 0.319 g(H,U,f)=  0.622E+03 0.117E+03 0.262E+01 ort(H,U,f) = 0.147E+03 0.129E+03-0.702E+00
CGA:  12    -0.471324159128E+03   -0.39133E+03   -0.40104E+03  5008   0.741E+03 0.276E+03
 gam= 0.319 trial= 0.372  step= 0.595 mean= 0.372
 gam= 0.488 g(H,U,f)=  0.290E+03 0.673E+02 0.387E+01 ort(H,U,f) =-0.785E+02 0.833E+02-0.107E+00
CGA:  13    -0.719826286693E+03   -0.24850E+03   -0.24667E+03  5008   0.362E+03 0.464E+01
 gam= 0.488 trial= 0.384  step= 0.649 mean= 0.384
 gam= 0.506 g(H,U,f)=  0.156E+03 0.263E+02 0.498E+00 ort(H,U,f) =-0.565E+02 0.476E+02 0.110E+01
CGA:  14    -0.836670423365E+03   -0.11684E+03   -0.11799E+03  5008   0.183E+03-0.785E+01
 gam= 0.506 trial= 0.397  step= 0.664 mean= 0.397
 gam= 0.487 g(H,U,f)=  0.789E+02 0.103E+02 0.519E-02 ort(H,U,f) =-0.263E+02 0.107E+02 0.230E-01
CGA:  15    -0.893994626739E+03   -0.57324E+02   -0.59502E+02  5008   0.892E+02-0.156E+02
 gam= 0.487 trial= 0.410  step= 0.562 mean= 0.410
 gam= 0.433 g(H,U,f)=  0.338E+02 0.477E+01 0.954E-02 ort(H,U,f) =-0.372E+01 0.285E-01 0.209E-01
CGA:  16    -0.916511458896E+03   -0.22517E+02   -0.22904E+02  5008   0.386E+02-0.367E+01
 gam= 0.433 trial= 0.418  step= 0.584 mean= 0.418
 gam= 0.465 g(H,U,f)=  0.141E+02 0.382E+01 0.438E-03 ort(H,U,f) =-0.115E+01 0.565E+00 0.786E-02
CGA:  17    -0.927274868397E+03   -0.10763E+02   -0.10806E+02  5008   0.179E+02-0.575E+00
 gam= 0.465 trial= 0.426  step= 0.570 mean= 0.426
 gam= 0.608 g(H,U,f)=  0.694E+01 0.384E+01 0.128E+00 ort(H,U,f) =-0.197E+01 0.136E+01-0.166E+00
CGA:  18    -0.932259648053E+03   -0.49848E+01   -0.50423E+01  5008   0.109E+02-0.782E+00
 gam= 0.608 trial= 0.433  step= 0.324 mean= 0.433
 gam= 0.960 g(H,U,f)=  0.479E+01 0.514E+01 0.556E+00 ort(H,U,f) = 0.863E+00-0.742E+00-0.173E+00
CGA:  19    -0.934231756193E+03   -0.19721E+01   -0.16889E+01  5008   0.105E+02-0.522E-01
 gam= 0.960 trial= 0.428  step= 0.342 mean= 0.428
 gam= 0.462 g(H,U,f)=  0.288E+01 0.173E+01 0.232E+00 ort(H,U,f) =-0.128E+01 0.599E+00-0.151E+00
CGA:  20    -0.936186701075E+03   -0.19549E+01   -0.17850E+01  5008   0.484E+01-0.835E+00
 gam= 0.462 trial= 0.424  step= 0.338 mean= 0.424
 gam= 1.105 g(H,U,f)=  0.212E+01 0.305E+01 0.180E+00 ort(H,U,f) = 0.280E+00 0.688E-01-0.385E-01
CGA:  21    -0.936893250511E+03   -0.70655E+00   -0.75302E+00  5008   0.535E+01 0.310E+00
 gam= 1.105 trial= 0.419  step= 0.200 mean= 0.419
 gam= 0.693 g(H,U,f)=  0.158E+01 0.190E+01 0.223E+00 ort(H,U,f) = 0.125E+00-0.787E+00 0.619E-01
CGA:  22    -0.937305442003E+03   -0.41219E+00   -0.56845E+00  5008   0.371E+01-0.600E+00
 gam= 0.693 trial= 0.408  step= 0.253 mean= 0.408
 gam= 0.392 g(H,U,f)=  0.103E+01 0.402E+00 0.199E-01 ort(H,U,f) =-0.116E+00 0.424E-01 0.552E-01
CGA:  23    -0.937698619913E+03   -0.39318E+00   -0.41640E+00  5008   0.145E+01-0.182E-01
 gam= 0.392 trial= 0.401  step= 0.462 mean= 0.401
 gam= 0.724 g(H,U,f)=  0.537E+00 0.505E+00 0.831E-02 ort(H,U,f) =-0.312E-01 0.586E-01 0.928E-02
CGA:  24    -0.938033672443E+03   -0.33505E+00   -0.33336E+00  5008   0.105E+01 0.367E-01
 gam= 0.724 trial= 0.404  step= 0.271 mean= 0.404
 gam= 0.803 g(H,U,f)=  0.390E+00 0.452E+00 0.526E-03 ort(H,U,f) = 0.376E-01-0.334E-01 0.104E-02
CGA:  25    -0.938174687206E+03   -0.14101E+00   -0.14594E+00  5008   0.843E+00 0.524E-02
 gam= 0.803 trial= 0.397  step= 0.365 mean= 0.397
 gam= 0.429 g(H,U,f)=  0.259E+00 0.103E+00 0.145E-05 ort(H,U,f) =-0.107E+00 0.135E+00 0.526E-05
CGA:  26    -0.938328163122E+03   -0.15348E+00   -0.15453E+00  5008   0.362E+00 0.282E-01
 gam= 0.429 trial= 0.395  step= 0.559 mean= 0.395
 gam= 0.713 g(H,U,f)=  0.168E+00 0.896E-01 0.377E-10 ort(H,U,f) =-0.421E-01 0.536E-01-0.377E-09
CGA:  27    -0.938434001134E+03   -0.10584E+00   -0.10461E+00  5008   0.258E+00 0.115E-01
 gam= 0.713 trial= 0.404  step= 0.398 mean= 0.404
 gam= 0.651 g(H,U,f)=  0.110E+00 0.583E-01 0.538E-11 ort(H,U,f) =-0.746E-02 0.103E-01 0.131E-10
CGA:  28    -0.938487029828E+03   -0.53029E-01   -0.53043E-01  5008   0.168E+00 0.285E-02
 gam= 0.651 trial= 0.403  step= 0.429 mean= 0.403
 gam= 0.451 g(H,U,f)=  0.587E-01 0.171E-01 0.249E-14 ort(H,U,f) =-0.712E-02 0.881E-02-0.318E-13
CGA:  29    -0.938523498847E+03   -0.36469E-01   -0.36430E-01  5008   0.758E-01 0.169E-02
 gam= 0.451 trial= 0.405  step= 0.487 mean= 0.405
 gam= 0.687 g(H,U,f)=  0.301E-01 0.220E-01 0.507E-15 ort(H,U,f) = 0.362E-02-0.324E-02-0.451E-16
CGA:  30    -0.938542184613E+03   -0.18686E-01   -0.18663E-01  5008   0.521E-01 0.379E-03
 gam= 0.687 trial= 0.409  step= 0.379 mean= 0.409
 gam= 0.502 g(H,U,f)=  0.174E-01 0.876E-02 0.491E-16 ort(H,U,f) = 0.908E-03-0.984E-03 0.502E-16
CGA:  31    -0.938552106140E+03   -0.99215E-02   -0.99180E-02  5008   0.262E-01-0.760E-04
 gam= 0.502 trial= 0.407  step= 0.588 mean= 0.407
 gam= 0.501 g(H,U,f)=  0.975E-02 0.336E-02 0.210E-15 ort(H,U,f) =-0.260E-02 0.253E-02 0.259E-15
CGA:  32    -0.938559782249E+03   -0.76761E-02   -0.76852E-02  5008   0.131E-01-0.762E-04
 gam= 0.501 trial= 0.416  step= 0.659 mean= 0.416
 gam= 0.685 g(H,U,f)=  0.576E-02 0.323E-02 0.325E-15 ort(H,U,f) =-0.159E-02 0.157E-02 0.104E-14
CGA:  33    -0.938564089063E+03   -0.43068E-02   -0.43099E-02  5008   0.899E-02-0.214E-04
 gam= 0.685 trial= 0.428  step= 0.447 mean= 0.428
 gam= 0.893 g(H,U,f)=  0.407E-02 0.396E-02 0.110E-14 ort(H,U,f) =-0.295E-03 0.248E-03 0.728E-14
CGA:  34    -0.938566092065E+03   -0.20030E-02   -0.20039E-02  5008   0.802E-02-0.468E-04
 gam= 0.893 trial= 0.429  step= 0.390 mean= 0.429
 gam= 0.452 g(H,U,f)=  0.267E-02 0.956E-03 0.369E-15 ort(H,U,f) =-0.988E-03 0.983E-03 0.101E-14
CGA:  35    -0.938567650380E+03   -0.15583E-02   -0.15576E-02  5008   0.363E-02-0.507E-05
 gam= 0.452 trial= 0.427  step= 0.672 mean= 0.427
 gam= 0.631 g(H,U,f)=  0.167E-02 0.622E-03 0.546E-15 ort(H,U,f) =-0.510E-03 0.529E-03-0.140E-14
CGA:  36    -0.938568870155E+03   -0.12198E-02   -0.12176E-02  5008   0.229E-02 0.193E-04
 gam= 0.631 trial= 0.440  step= 0.644 mean= 0.440
 gam= 0.966 g(H,U,f)=  0.120E-02 0.101E-02 0.167E-13 ort(H,U,f) =-0.224E-03 0.234E-03-0.131E-13
CGA:  37    -0.938569612861E+03   -0.74271E-03   -0.74154E-03  5008   0.221E-02 0.106E-04
 gam= 0.966 trial= 0.450  step= 0.396 mean= 0.450
 gam= 0.000 g(H,U,f)=  0.973E-03 0.729E-03 0.299E-13 ort(H,U,f) =-0.272E-03 0.268E-03-0.796E-14
SDA:  38    -0.938570052970E+03   -0.44011E-03   -0.43997E-03  5008   0.170E-02-0.434E-05
 gam= 0.000 trial= 0.447  step= 0.419 mean= 0.447
 gam= 1.143 g(H,U,f)=  0.518E-03 0.143E-02 0.107E-13 ort(H,U,f) = 0.334E-03-0.339E-03 0.453E-14
CGA:  39    -0.938570409458E+03   -0.35649E-03   -0.35642E-03  5008   0.195E-02-0.501E-05
 gam= 1.143 trial= 0.446  step= 0.471 mean= 0.446
 gam= 0.330 g(H,U,f)=  0.370E-03 0.272E-03 0.271E-15 ort(H,U,f) =-0.381E-03 0.377E-03 0.103E-14
CGA:  40    -0.938570866825E+03   -0.45737E-03   -0.45736E-03  5008   0.642E-03-0.398E-05
 gam= 0.330 trial= 0.447  step= 0.674 mean= 0.447
 gam= 1.281 g(H,U,f)=  0.278E-03 0.545E-03 0.201E-14 ort(H,U,f) =-0.116E-03 0.113E-03-0.314E-14
CGA:  41    -0.938571082217E+03   -0.21539E-03   -0.21584E-03  5008   0.823E-03-0.361E-05
 gam= 1.281 trial= 0.458  step= 0.446 mean= 0.458
 gam= 0.676 g(H,U,f)=  0.323E-03 0.233E-03 0.112E-14 ort(H,U,f) =-0.198E-03 0.202E-03 0.165E-14
CGA:  42    -0.938571264405E+03   -0.18219E-03   -0.18225E-03  5008   0.556E-03 0.329E-05
 gam= 0.676 trial= 0.458  step= 0.783 mean= 0.458
 gam= 1.087 g(H,U,f)=  0.375E-03 0.229E-03 0.235E-14 ort(H,U,f) =-0.201E-03 0.191E-03-0.321E-14
CGA:  43    -0.938571481117E+03   -0.21671E-03   -0.21837E-03  5008   0.604E-03-0.975E-05
 gam= 1.087 trial= 0.474  step= 0.890 mean= 0.474
 gam= 1.119 g(H,U,f)=  0.419E-03 0.257E-03 0.142E-15 ort(H,U,f) =-0.215E-03 0.209E-03-0.126E-15
CGA:  44    -0.938571744107E+03   -0.26299E-03   -0.26405E-03  5008   0.676E-03-0.512E-05
 gam= 1.119 trial= 0.495  step= 0.982 mean= 0.495
 gam= 1.230 g(H,U,f)=  0.570E-03 0.262E-03 0.254E-15 ort(H,U,f) =-0.271E-03 0.296E-03-0.158E-15
CGA:  45    -0.938572079123E+03   -0.33502E-03   -0.32884E-03  5008   0.831E-03 0.246E-04
 gam= 1.230 trial= 0.519  step= 0.704 mean= 0.519
 gam= 1.650 g(H,U,f)=  0.444E-03 0.928E-03 0.140E-15 ort(H,U,f) =-0.132E-03 0.834E-04 0.706E-16
CGA:  46    -0.938572376311E+03   -0.29719E-03   -0.30304E-03  5008   0.137E-02-0.482E-04
 gam= 1.650 trial= 0.528  step= 0.376 mean= 0.528
 gam= 0.452 g(H,U,f)=  0.503E-03 0.117E-03 0.656E-16 ort(H,U,f) =-0.296E-03 0.303E-03 0.152E-15
CGA:  47    -0.938572614691E+03   -0.23838E-03   -0.24267E-03  5008   0.620E-03 0.681E-05
 gam= 0.452 trial= 0.521  step= 0.558 mean= 0.521
 gam= 0.751 g(H,U,f)=  0.285E-03 0.181E-03 0.514E-15 ort(H,U,f) =-0.695E-04 0.759E-04 0.266E-14
CGA:  48    -0.938572788806E+03   -0.17412E-03   -0.17390E-03  5008   0.465E-03 0.641E-05
 gam= 0.751 trial= 0.523  step= 0.340 mean= 0.523
 gam= 0.647 g(H,U,f)=  0.155E-03 0.146E-03 0.178E-16 ort(H,U,f) = 0.319E-04-0.300E-04 0.148E-16
CGA:  49    -0.938572868992E+03   -0.80186E-04   -0.79838E-04  5008   0.301E-03 0.181E-05
 gam= 0.647 trial= 0.513  step= 0.435 mean= 0.513
 gam= 0.532 g(H,U,f)=  0.106E-03 0.539E-04 0.211E-15 ort(H,U,f) =-0.441E-04 0.472E-04 0.416E-15
CGA:  50    -0.938572934653E+03   -0.65661E-04   -0.65788E-04  5008   0.160E-03 0.315E-05
 gam= 0.532 trial= 0.510  step= 0.547 mean= 0.510
 gam= 1.149 g(H,U,f)=  0.704E-04 0.114E-03 0.916E-15 ort(H,U,f) =-0.136E-04 0.156E-04-0.464E-15
CGA:  51    -0.938572979005E+03   -0.44352E-04   -0.44315E-04  5008   0.184E-03 0.205E-05
 gam= 1.149 trial= 0.511  step= 0.464 mean= 0.511
 gam= 0.887 g(H,U,f)=  0.992E-04 0.642E-04 0.598E-16 ort(H,U,f) =-0.626E-04 0.644E-04-0.103E-15
CGA:  52    -0.938573022205E+03   -0.43200E-04   -0.43259E-04  5008   0.163E-03 0.181E-05
 gam= 0.887 trial= 0.509  step= 0.668 mean= 0.509
 gam= 1.479 g(H,U,f)=  0.113E-03 0.128E-03 0.320E-15 ort(H,U,f) =-0.682E-04 0.678E-04-0.209E-16
CGA:  53    -0.938573077264E+03   -0.55059E-04   -0.55127E-04  5008   0.242E-03-0.437E-06
 gam= 1.479 trial= 0.517  step= 0.479 mean= 0.517
 gam= 1.066 g(H,U,f)=  0.171E-03 0.866E-04 0.555E-14 ort(H,U,f) =-0.101E-03 0.101E-03 0.996E-14
CGA:  54    -0.938573134968E+03   -0.57704E-04   -0.57682E-04  5008   0.258E-03 0.412E-07
 gam= 1.066 trial= 0.515  step= 0.722 mean= 0.515
 gam= 1.176 g(H,U,f)=  0.216E-03 0.867E-04 0.327E-14 ort(H,U,f) =-0.126E-03 0.132E-03 0.715E-14
CGA:  55    -0.938573228821E+03   -0.93853E-04   -0.93002E-04  5008   0.303E-03 0.689E-05
 gam= 1.176 trial= 0.525  step= 0.441 mean= 0.525
 gam= 1.136 g(H,U,f)=  0.170E-03 0.174E-03 0.717E-16 ort(H,U,f) =-0.620E-04 0.604E-04-0.510E-15
CGA:  56    -0.938573297845E+03   -0.69024E-04   -0.68633E-04  5008   0.344E-03-0.164E-05
 gam= 1.136 trial= 0.521  step= 0.487 mean= 0.521
 gam= 0.722 g(H,U,f)=  0.203E-03 0.457E-04 0.131E-15 ort(H,U,f) =-0.119E-03 0.121E-03 0.183E-16
CGA:  57    -0.938573381121E+03   -0.83276E-04   -0.83351E-04  5008   0.249E-03 0.261E-05
 gam= 0.722 trial= 0.520  step= 0.566 mean= 0.520
 gam= 1.109 g(H,U,f)=  0.132E-03 0.144E-03 0.402E-14 ort(H,U,f) =-0.290E-04 0.332E-04 0.528E-14
CGA:  58    -0.938573452104E+03   -0.70984E-04   -0.70809E-04  5008   0.276E-03 0.418E-05
 gam= 1.109 trial= 0.522  step= 0.326 mean= 0.522
 gam= 0.605 g(H,U,f)=  0.115E-03 0.522E-04 0.291E-16 ort(H,U,f) =-0.180E-04 0.182E-04 0.262E-16
CGA:  59    -0.938573498789E+03   -0.46684E-04   -0.45644E-04  5008   0.167E-03 0.190E-06
 gam= 0.605 trial= 0.512  step= 0.591 mean= 0.512
 gam= 0.845 g(H,U,f)=  0.910E-04 0.500E-04 0.146E-15 ort(H,U,f) =-0.233E-04 0.219E-04-0.352E-15
CGA:  60    -0.938573548013E+03   -0.49224E-04   -0.49286E-04  5008   0.141E-03-0.137E-05
 gam= 0.845 trial= 0.516  step= 0.366 mean= 0.516
 gam= 0.820 g(H,U,f)=  0.635E-04 0.522E-04 0.314E-16 ort(H,U,f) = 0.486E-05-0.506E-05-0.214E-15
CGA:  61    -0.938573573466E+03   -0.25454E-04   -0.25582E-04  5008   0.116E-03-0.201E-06
 gam= 0.820 trial= 0.508  step= 0.429 mean= 0.508
 gam= 0.572 g(H,U,f)=  0.514E-04 0.148E-04 0.178E-15 ort(H,U,f) =-0.112E-04 0.104E-04 0.182E-15
CGA:  62    -0.938573598283E+03   -0.24817E-04   -0.24750E-04  5008   0.662E-04-0.781E-06
 gam= 0.572 trial= 0.504  step= 0.539 mean= 0.504
 gam= 0.966 g(H,U,f)=  0.316E-04 0.323E-04 0.939E-17 ort(H,U,f) =-0.277E-05 0.240E-05-0.153E-16
CGA:  63    -0.938573615994E+03   -0.17711E-04   -0.17720E-04  5008   0.639E-04-0.373E-06
 gam= 0.966 trial= 0.506  step= 0.348 mean= 0.506
 gam= 0.674 g(H,U,f)=  0.270E-04 0.160E-04 0.416E-17 ort(H,U,f) =-0.378E-05 0.361E-05-0.665E-17
CGA:  64    -0.938573627038E+03   -0.11044E-04   -0.11044E-04  5008   0.431E-04-0.166E-06
 gam= 0.674 trial= 0.498  step= 0.577 mean= 0.498
 gam= 0.779 g(H,U,f)=  0.221E-04 0.115E-04 0.204E-16 ort(H,U,f) =-0.103E-04 0.982E-05-0.757E-16
CGA:  65    -0.938573639409E+03   -0.12371E-04   -0.12390E-04  5008   0.335E-04-0.484E-06
 gam= 0.779 trial= 0.502  step= 0.460 mean= 0.502
 gam= 1.036 g(H,U,f)=  0.167E-04 0.181E-04 0.195E-16 ort(H,U,f) =-0.401E-05 0.374E-05 0.370E-16
CGA:  66    -0.938573647048E+03   -0.76395E-05   -0.76342E-05  5008   0.348E-04-0.272E-06
 gam= 1.036 trial= 0.500  step= 0.442 mean= 0.500
 final diagonalization
   1 F= -.93857365E+03 E0= -.93857365E+03  d E =-.360857E-11
 writing wavefunctions
Warning: ieee_invalid is signaling
Warning: ieee_divide_by_zero is signaling
Warning: ieee_underflow is signaling
Warning: ieee_inexact is signaling
FORTRAN STOP
Warning: ieee_invalid is signaling
Warning: ieee_divide_by_zero is signaling
Warning: ieee_underflow is signaling
Warning: ieee_inexact is signaling
FORTRAN STOP
Warning: ieee_invalid is signaling
Warning: ieee_divide_by_zero is signaling
Warning: ieee_underflow is signaling
Warning: ieee_inexact is signaling
FORTRAN STOP
Warning: ieee_invalid is signaling
Warning: ieee_divide_by_zero is signaling
Warning: ieee_underflow is signaling
Warning: ieee_inexact is signaling
FORTRAN STOP
