       N       E                     dE             d eps       ncg     rms          ort
DAV:   1    -0.182121063375E+05   -0.18212E+05   -0.54704E+05  5008   0.750E+03
DAV:   2    -0.625113583249E+05   -0.44299E+05   -0.42798E+05  5008   0.122E+03
DAV:   3    -0.675705964237E+05   -0.50592E+04   -0.45550E+04  5008   0.374E+02
DAV:   4    -0.683329116234E+05   -0.76232E+03   -0.67094E+03  5008   0.120E+02
DAV:   5    -0.388658475890E+05    0.29467E+05   -0.74730E+02  5008   0.571E+01
SDA:   6     0.299173151427E+05    0.68783E+05   -0.74730E+02  5008   0.935E+05 0.000E+00
CGA:   7     0.110149633378E+05   -0.18902E+05   -0.19310E+05  5008   0.825E+05-0.503E+05
CGA:   8     0.314073533003E+04   -0.78742E+04   -0.94650E+04  5008   0.144E+05-0.349E+04
CGA:   9     0.151448022862E+04   -0.16263E+04   -0.15976E+04  5008   0.922E+04-0.133E+04
CGA:  10     0.618840297405E+03   -0.89564E+03   -0.96387E+03  5008   0.489E+04-0.108E+04
CGA:  11    -0.799963663992E+02   -0.69884E+03   -0.70717E+03  5008   0.232E+04 0.226E+02
CGA:  12    -0.471324159128E+03   -0.39133E+03   -0.40104E+03  5008   0.741E+03 0.276E+03
CGA:  13    -0.719826286693E+03   -0.24850E+03   -0.24667E+03  5008   0.362E+03 0.464E+01
CGA:  14    -0.836670423365E+03   -0.11684E+03   -0.11799E+03  5008   0.183E+03-0.785E+01
CGA:  15    -0.893994626739E+03   -0.57324E+02   -0.59502E+02  5008   0.892E+02-0.156E+02
CGA:  16    -0.916511458896E+03   -0.22517E+02   -0.22904E+02  5008   0.386E+02-0.367E+01
CGA:  17    -0.927274868397E+03   -0.10763E+02   -0.10806E+02  5008   0.179E+02-0.575E+00
CGA:  18    -0.932259648053E+03   -0.49848E+01   -0.50423E+01  5008   0.109E+02-0.782E+00
CGA:  19    -0.934231756193E+03   -0.19721E+01   -0.16889E+01  5008   0.105E+02-0.522E-01
CGA:  20    -0.936186701075E+03   -0.19549E+01   -0.17850E+01  5008   0.484E+01-0.835E+00
CGA:  21    -0.936893250511E+03   -0.70655E+00   -0.75302E+00  5008   0.535E+01 0.310E+00
CGA:  22    -0.937305442003E+03   -0.41219E+00   -0.56845E+00  5008   0.371E+01-0.600E+00
CGA:  23    -0.937698619913E+03   -0.39318E+00   -0.41640E+00  5008   0.145E+01-0.182E-01
CGA:  24    -0.938033672443E+03   -0.33505E+00   -0.33336E+00  5008   0.105E+01 0.367E-01
CGA:  25    -0.938174687206E+03   -0.14101E+00   -0.14594E+00  5008   0.843E+00 0.524E-02
CGA:  26    -0.938328163122E+03   -0.15348E+00   -0.15453E+00  5008   0.362E+00 0.282E-01
CGA:  27    -0.938434001134E+03   -0.10584E+00   -0.10461E+00  5008   0.258E+00 0.115E-01
CGA:  28    -0.938487029828E+03   -0.53029E-01   -0.53043E-01  5008   0.168E+00 0.285E-02
CGA:  29    -0.938523498847E+03   -0.36469E-01   -0.36430E-01  5008   0.758E-01 0.169E-02
CGA:  30    -0.938542184613E+03   -0.18686E-01   -0.18663E-01  5008   0.521E-01 0.379E-03
CGA:  31    -0.938552106140E+03   -0.99215E-02   -0.99180E-02  5008   0.262E-01-0.760E-04
CGA:  32    -0.938559782249E+03   -0.76761E-02   -0.76852E-02  5008   0.131E-01-0.762E-04
CGA:  33    -0.938564089063E+03   -0.43068E-02   -0.43099E-02  5008   0.899E-02-0.214E-04
CGA:  34    -0.938566092065E+03   -0.20030E-02   -0.20039E-02  5008   0.802E-02-0.468E-04
CGA:  35    -0.938567650380E+03   -0.15583E-02   -0.15576E-02  5008   0.363E-02-0.507E-05
CGA:  36    -0.938568870155E+03   -0.12198E-02   -0.12176E-02  5008   0.229E-02 0.193E-04
CGA:  37    -0.938569612861E+03   -0.74271E-03   -0.74154E-03  5008   0.221E-02 0.106E-04
SDA:  38    -0.938570052970E+03   -0.44011E-03   -0.43997E-03  5008   0.170E-02-0.434E-05
CGA:  39    -0.938570409458E+03   -0.35649E-03   -0.35642E-03  5008   0.195E-02-0.501E-05
CGA:  40    -0.938570866825E+03   -0.45737E-03   -0.45736E-03  5008   0.642E-03-0.398E-05
CGA:  41    -0.938571082217E+03   -0.21539E-03   -0.21584E-03  5008   0.823E-03-0.361E-05
CGA:  42    -0.938571264405E+03   -0.18219E-03   -0.18225E-03  5008   0.556E-03 0.329E-05
CGA:  43    -0.938571481117E+03   -0.21671E-03   -0.21837E-03  5008   0.604E-03-0.975E-05
CGA:  44    -0.938571744107E+03   -0.26299E-03   -0.26405E-03  5008   0.676E-03-0.512E-05
CGA:  45    -0.938572079123E+03   -0.33502E-03   -0.32884E-03  5008   0.831E-03 0.246E-04
CGA:  46    -0.938572376311E+03   -0.29719E-03   -0.30304E-03  5008   0.137E-02-0.482E-04
CGA:  47    -0.938572614691E+03   -0.23838E-03   -0.24267E-03  5008   0.620E-03 0.681E-05
CGA:  48    -0.938572788806E+03   -0.17412E-03   -0.17390E-03  5008   0.465E-03 0.641E-05
CGA:  49    -0.938572868992E+03   -0.80186E-04   -0.79838E-04  5008   0.301E-03 0.181E-05
CGA:  50    -0.938572934653E+03   -0.65661E-04   -0.65788E-04  5008   0.160E-03 0.315E-05
CGA:  51    -0.938572979005E+03   -0.44352E-04   -0.44315E-04  5008   0.184E-03 0.205E-05
CGA:  52    -0.938573022205E+03   -0.43200E-04   -0.43259E-04  5008   0.163E-03 0.181E-05
CGA:  53    -0.938573077264E+03   -0.55059E-04   -0.55127E-04  5008   0.242E-03-0.437E-06
CGA:  54    -0.938573134968E+03   -0.57704E-04   -0.57682E-04  5008   0.258E-03 0.412E-07
CGA:  55    -0.938573228821E+03   -0.93853E-04   -0.93002E-04  5008   0.303E-03 0.689E-05
CGA:  56    -0.938573297845E+03   -0.69024E-04   -0.68633E-04  5008   0.344E-03-0.164E-05
CGA:  57    -0.938573381121E+03   -0.83276E-04   -0.83351E-04  5008   0.249E-03 0.261E-05
CGA:  58    -0.938573452104E+03   -0.70984E-04   -0.70809E-04  5008   0.276E-03 0.418E-05
CGA:  59    -0.938573498789E+03   -0.46684E-04   -0.45644E-04  5008   0.167E-03 0.190E-06
CGA:  60    -0.938573548013E+03   -0.49224E-04   -0.49286E-04  5008   0.141E-03-0.137E-05
CGA:  61    -0.938573573466E+03   -0.25454E-04   -0.25582E-04  5008   0.116E-03-0.201E-06
CGA:  62    -0.938573598283E+03   -0.24817E-04   -0.24750E-04  5008   0.662E-04-0.781E-06
CGA:  63    -0.938573615994E+03   -0.17711E-04   -0.17720E-04  5008   0.639E-04-0.373E-06
CGA:  64    -0.938573627038E+03   -0.11044E-04   -0.11044E-04  5008   0.431E-04-0.166E-06
CGA:  65    -0.938573639409E+03   -0.12371E-04   -0.12390E-04  5008   0.335E-04-0.484E-06
CGA:  66    -0.938573647048E+03   -0.76395E-05   -0.76342E-05  5008   0.348E-04-0.272E-06
   1 F= -.93857365E+03 E0= -.93857365E+03  d E =-.360857E-11
