 vasp.6.4.2 20Jul23 (build Nov 12 2023 22:16:35) complex                         
 executed on              LinuxNV date 2025.03.21  23:10:40
 running    4 mpi-ranks, on    1 nodes
 distrk:  each k-point on    1 cores,    4 groups
 distr:  one band on NCORE=   1 cores,    1 groups
 OpenACC runtime initialized ...    4 GPUs detected


--------------------------------------------------------------------------------------------------------


 INCAR:
   PREC = Normal
   ENCUT = 450
   NELM = 500
   IBRION = -1
   ISPIN = 1
   NSW = 0
   ISIF = 2
   EDIFF = 1E-5
   EDIFFG = -5E-3
   ISTART = 0
   ICHARG = 0
   ISMEAR = 0
   SIGMA = 0.05
   LWAVE = .T.
   LCHARG = .T.
   LREAL = Auto
   LPLANE = .TRUE.
   NPAR = 1
   KPAR = 4
   NCORE = 1
   ALGO = All
   LHFCALC = .TRUE.
   HSE06 = .TRUE.
   HFSCREEN = 0.2
   TIME = 0.4
   AEXX = 0.32
   LMAXFOCK = 4
   PRECFOCK = Fast
   NELECT = 1044

 POTCAR:    PAW_PBE Ga_d 06Jul2010                
 POTCAR:    PAW_PBE O 08Apr2002                   
 POTCAR:    PAW_PBE Ga_d 06Jul2010                
   SHA256 =  a60ddf36e14f00ea098d9e3914b3745f1b7105e68786148f49ae384e44b4226c Ga_d/POTCAR           
   COPYR  = (c) Copyright 06Jul2010 Georg Kresse                                                    
   COPYR  = This file is part of the software VASP. Any use, copying, and all other rights are regul
   COPYR  = If you do not have a valid VASP license, you may not use, copy or distribute this file. 
   VRHFIN =Ga: s2p1                                                                                 
   LEXCH  = PE                                                                                      
   EATOM  =  2148.8298 eV,  157.9345 Ry                                                             
                                                                                                    
   TITEL  = PAW_PBE Ga_d 06Jul2010                                                                  
   LULTRA =        F    use ultrasoft PP ?                                                          
   IUNSCR =        1    unscreen: 0-lin 1-nonlin 2-no                                               
   RPACOR =    1.700    partial core radius                                                         
   POMASS =   69.723; ZVAL   =   13.000    mass and valenz                                          
   RCORE  =    2.300    outmost cutoff radius                                                       
   RWIGS  =    2.300; RWIGS  =    1.217    wigner-seitz radius (au A)                               
   ENMAX  =  282.691; ENMIN  =  212.018 eV                                                          
   ICORE  =        3    local potential                                                             
   LCOR   =        T    correct aug charges                                                         
   LPAW   =        T    paw PP                                                                      
   EAUG   =  490.690                                                                                
   DEXC   =    0.000                                                                                
   RMAX   =    2.341    core radius for proj-oper                                                   
   RAUG   =    1.300    factor for augmentation sphere                                              
   RDEP   =    2.413    radius for radial grids                                                     
   RDEPT  =    1.856    core radius for aug-charge                                                  
                                                                                                    
   Atomic configuration                                                                             
    9 entries                                                                                       
     n  l   j            E        occ.                                                              
     1  0  0.50    -10228.7831   2.0000                                                             
     2  0  0.50     -1262.1604   2.0000                                                             
     2  1  1.50     -1098.6333   6.0000                                                             
     3  0  0.50      -148.1110   2.0000                                                             
     3  1  1.50       -98.8436   6.0000                                                             
     3  2  2.50       -19.1549  10.0000                                                             
     4  0  0.50        -8.9483   2.0000                                                             
     4  1  0.50        -2.5791   1.0000                                                             
     4  3  2.50        -2.7416   0.0000                                                             
   Description                                                                                      
     l       E           TYP  RCUT    TYP  RCUT                                                     
     2    -19.1549037     23  2.300                                                                 
     2     -5.4423304     23  2.300                                                                 
     0     -8.9483111     23  2.300                                                                 
     0     68.0291300     23  2.300                                                                 
     1     -2.5790802     23  2.100                                                                 
     1     81.6349560     23  2.300                                                                 
     3      6.8029130     23  2.300                                                                 
  local pseudopotential read in
  partial core-charges read in
  partial kinetic energy density read in
  atomic valenz-charges read in
  non local Contribution for L=            2  read in
    real space projection operators read in
  non local Contribution for L=            2  read in
    real space projection operators read in
  non local Contribution for L=            0  read in
    real space projection operators read in
  non local Contribution for L=            0  read in
    real space projection operators read in
  non local Contribution for L=            1  read in
    real space projection operators read in
  non local Contribution for L=            1  read in
    real space projection operators read in
    PAW grid and wavefunctions read in
 
   number of l-projection  operators is LMAX  =            6
   number of lm-projection operators is LMMAX =           18
 
 POTCAR:    PAW_PBE O 08Apr2002                   
   SHA256 =  818f92134a0a090dccd8ba1447fa70422a3b330e708bb4f08108d8ae51209ddf O/POTCAR              
   COPYR  = (c) Copyright 08Apr2002 Georg Kresse                                                    
   COPYR  = This file is part of the software VASP. Any use, copying, and all other rights are regul
   COPYR  = If you do not have a valid VASP license, you may not use, copy or distribute this file. 
   VRHFIN =O: s2p4                                                                                  
   LEXCH  = PE                                                                                      
   EATOM  =   432.3788 eV,   31.7789 Ry                                                             
                                                                                                    
   TITEL  = PAW_PBE O 08Apr2002                                                                     
   LULTRA =        F    use ultrasoft PP ?                                                          
   IUNSCR =        1    unscreen: 0-lin 1-nonlin 2-no                                               
   RPACOR =    1.200    partial core radius                                                         
   POMASS =   16.000; ZVAL   =    6.000    mass and valenz                                          
   RCORE  =    1.520    outmost cutoff radius                                                       
   RWIGS  =    1.550; RWIGS  =    0.820    wigner-seitz radius (au A)                               
   ENMAX  =  400.000; ENMIN  =  300.000 eV                                                          
   ICORE  =        2    local potential                                                             
   LCOR   =        T    correct aug charges                                                         
   LPAW   =        T    paw PP                                                                      
   EAUG   =  605.392                                                                                
   DEXC   =    0.000                                                                                
   RMAX   =    1.553    core radius for proj-oper                                                   
   RAUG   =    1.300    factor for augmentation sphere                                              
   RDEP   =    1.550    radius for radial grids                                                     
   RDEPT  =    1.329    core radius for aug-charge                                                  
                                                                                                    
   Atomic configuration                                                                             
    4 entries                                                                                       
     n  l   j            E        occ.                                                              
     1  0  0.50      -514.6923   2.0000                                                             
     2  0  0.50       -23.9615   2.0000                                                             
     2  1  0.50        -9.0305   4.0000                                                             
     3  2  1.50        -9.5241   0.0000                                                             
   Description                                                                                      
     l       E           TYP  RCUT    TYP  RCUT                                                     
     0    -23.9615318     23  1.200                                                                 
     0     -9.5240782     23  1.200                                                                 
     1     -9.0304911     23  1.520                                                                 
     1      8.1634956     23  1.520                                                                 
     2     -9.5240782      7  1.500                                                                 
  local pseudopotential read in
  partial core-charges read in
  partial kinetic energy density read in
  kinetic energy density of atom read in
  atomic valenz-charges read in
  non local Contribution for L=            0  read in
    real space projection operators read in
  non local Contribution for L=            0  read in
    real space projection operators read in
  non local Contribution for L=            1  read in
    real space projection operators read in
  non local Contribution for L=            1  read in
    real space projection operators read in
    PAW grid and wavefunctions read in
 
   number of l-projection  operators is LMAX  =            4
   number of lm-projection operators is LMMAX =            8
 
 Optimization of the real space projectors (new method)

 maximal supplied QI-value         = 16.25
 optimisation between [QCUT,QGAM] = [ 10.73, 21.61] = [ 32.22,130.83] Ry 
 Optimized for a Real-space Cutoff    1.42 Angstroem

   l    n(q)    QCUT    max X(q) W(low)/X(q) W(high)/X(q)  e(spline) 
   2      8    10.726     7.143    0.22E-03    0.16E-03    0.73E-07
   2      8    10.726     5.586    0.40E-03    0.26E-03    0.10E-06
   0      9    10.726    12.382    0.25E-04    0.21E-05    0.37E-07
   0      9    10.726     6.622    0.42E-04    0.48E-05    0.77E-07
   1      9    10.726     7.935    0.27E-03    0.13E-04    0.16E-06
   1      9    10.726     2.425    0.23E-03    0.15E-04    0.14E-06
 Optimization of the real space projectors (new method)

 maximal supplied QI-value         = 24.76
 optimisation between [QCUT,QGAM] = [ 10.64, 21.54] = [ 31.73,129.89] Ry 
 Optimized for a Real-space Cutoff    1.23 Angstroem

   l    n(q)    QCUT    max X(q) W(low)/X(q) W(high)/X(q)  e(spline) 
   0      8    10.645    20.381    0.38E-03    0.60E-03    0.15E-06
   0      8    10.645    15.268    0.40E-03    0.65E-03    0.17E-06
   1      7    10.645     5.964    0.30E-03    0.63E-03    0.18E-06
   1      7    10.645     5.382    0.24E-03    0.53E-03    0.16E-06
  PAW_PBE Ga_d 06Jul2010                :
 energy of atom  1       EATOM=-2148.8298
 kinetic energy error for atom=    0.0038 (will be added to EATOM!!)
  PAW_PBE O 08Apr2002                   :
 energy of atom  2       EATOM= -432.3788
 kinetic energy error for atom=    0.0389 (will be added to EATOM!!)
 
 
 POSCAR: Ga48 O72
  positions in direct lattice
  velocities in cartesian coordinates
 exchange correlation table for  LEXCH =        8
   RHO(1)=    0.500       N(1)  =     2000
   RHO(2)=  100.500       N(2)  =     4000
 


--------------------------------------------------------------------------------------------------------


 ion  position               nearest neighbor table
   1  0.660  1.000  0.157-  84 1.94  78 1.96  82 1.96  66 2.01  64 2.07  60 2.07
   2  0.659  0.000  0.657-  85 1.94  83 1.95  79 1.95  67 2.02  65 2.08  61 2.09
   3  0.659  0.333  0.157-  86 1.94  80 1.96  78 1.96  68 1.99  62 2.07  60 2.07
   4  0.660  0.333  0.657-  87 1.94  81 1.95  79 1.95  69 2.02  63 2.08  61 2.08
   5  0.660  0.667  0.157-  88 1.94  80 1.96  82 1.96  70 2.01  64 2.07  62 2.07
   6  0.659  0.667  0.657-  89 1.94  83 1.95  81 1.95  71 2.02  65 2.08  63 2.09
   7  0.844  0.168  0.344-  90 1.88  74 1.96  72 1.98  60 2.05  68 2.08  66 2.11
   8  0.841  0.167  0.844-  91 1.94  73 1.95  75 1.95  61 2.02  69 2.08  67 2.09
   9  0.844  0.499  0.344-  92 1.88  74 1.96  76 1.98  62 2.05  68 2.08  70 2.11
  10  0.841  0.499  0.844-  93 1.94  77 1.95  75 1.95  63 2.02  69 2.08  71 2.09
  11  0.844  0.833  0.343-  94 1.93  72 1.96  76 1.96  64 2.05  66 2.07  70 2.07
  12  0.842  0.833  0.843-  95 1.94  73 1.95  77 1.95  65 2.03  67 2.07  71 2.07
  13  0.590  0.168  0.397-  54 1.85  56 1.85  79 1.85  60 1.88
  14  0.590  0.167  0.898-  78 1.84  57 1.85  55 1.85  61 1.88
  15  0.590  0.499  0.397-  58 1.85  56 1.85  81 1.85  62 1.88
  16  0.590  0.500  0.898-  80 1.84  57 1.85  59 1.85  63 1.88
  17  0.594  0.833  0.398-  83 1.84  54 1.84  58 1.84  64 1.87
  18  0.590  0.833  0.897-  82 1.84  55 1.85  59 1.85  65 1.87
  19  0.909  0.999  0.103-  73 1.84  52 1.84  48 1.84  66 1.86
  20  0.908  1.000  0.602-  72 1.84  53 1.84  49 1.85  67 1.88
  21  0.912  0.333  0.108-  50 1.84  48 1.84  68 1.86  75 1.86
  22  0.909  0.333  0.600-  74 1.84  51 1.84  49 1.84  69 1.89
  23  0.909  0.667  0.103-  77 1.84  52 1.84  50 1.84  70 1.86
  24  0.908  0.667  0.602-  76 1.84  53 1.84  51 1.85  71 1.88
  25  0.161  0.169  0.162-  48 1.96  98 1.96 114 1.98 116 1.99 102 2.03  96 2.07
  26  0.158  0.169  0.650- 117 1.90 115 1.94  49 1.95 103 2.05  99 2.12  97 2.13
  27  0.161  0.498  0.162-  50 1.96  98 1.96 118 1.98 116 1.99 104 2.03 100 2.07
  28  0.158  0.498  0.650- 117 1.90 119 1.94  51 1.95 105 2.05  99 2.12 101 2.13
  29  0.159  0.833  0.158-  52 1.95 114 1.96 118 1.96 106 2.03  96 2.06 100 2.06
  30  0.158  0.833  0.654- 115 1.94 119 1.94  53 1.94 107 2.03  97 2.09 101 2.09
  31  0.342  1.000  0.343- 108 1.94 112 1.95  54 1.95  96 2.02 102 2.05 106 2.07
  32  0.339  0.000  0.842- 109 1.95  55 1.95 113 1.96  97 2.01 103 2.07 107 2.08
  33  0.334  0.333  0.346-  98 1.93 110 1.94 108 1.94  56 2.00 104 2.14 102 2.14
  34  0.339  0.333  0.843- 111 1.95 109 1.95  57 1.96  99 2.00 105 2.07 103 2.07
  35  0.342  0.667  0.343- 110 1.94 112 1.95  58 1.95 100 2.02 104 2.05 106 2.07
  36  0.339  0.667  0.842- 111 1.95  59 1.95 113 1.96 101 2.01 105 2.07 107 2.08
  37  0.089  0.009  0.396-  90 1.82 115 1.85  96 1.88  94 1.88
  38  0.092  0.000  0.898- 114 1.84  91 1.85  95 1.85  97 1.87
  39  0.090  0.333  0.897- 116 1.83  93 1.85  91 1.85  99 1.86
  40  0.089  0.658  0.396-  92 1.82 119 1.85 100 1.88  94 1.88
  41  0.092  0.667  0.898- 118 1.84  93 1.85  95 1.85 101 1.87
  42  0.409  0.166  0.102- 109 1.84  86 1.85  84 1.85 102 1.86
  43  0.410  0.167  0.603- 108 1.83  87 1.85  85 1.85 103 1.87
  44  0.409  0.500  0.102- 111 1.84  86 1.85  88 1.85 104 1.86
  45  0.410  0.500  0.603- 110 1.83  87 1.85  89 1.85 105 1.87
  46  0.409  0.833  0.102- 113 1.84  84 1.85  88 1.85 106 1.87
  47  0.409  0.833  0.602- 112 1.83  85 1.85  89 1.85 107 1.87
  48  0.997  0.165  0.130-  21 1.84  19 1.84  25 1.96
  49  0.995  0.166  0.626-  22 1.84  20 1.85  26 1.95
  50  0.997  0.502  0.130-  21 1.84  23 1.84  27 1.96
  51  0.995  0.501  0.626-  22 1.84  24 1.85  28 1.95
  52  0.996  0.833  0.127-  19 1.84  23 1.84  29 1.95
  53  0.995  0.833  0.628-  20 1.84  24 1.84  30 1.94
  54  0.505  0.999  0.373-  17 1.84  13 1.85  31 1.95
  55  0.502  1.000  0.872-  14 1.85  18 1.85  32 1.95
  56  0.501  0.333  0.373-  15 1.85  13 1.85  33 2.00
  57  0.502  0.333  0.873-  16 1.85  14 1.85  34 1.96
  58  0.505  0.668  0.373-  17 1.84  15 1.85  35 1.95
  59  0.502  0.667  0.872-  16 1.85  18 1.85  36 1.95
  60  0.673  0.166  0.280-  13 1.88   7 2.05   1 2.07   3 2.07
  61  0.673  0.167  0.782-  14 1.88   8 2.02   4 2.08   2 2.09
  62  0.673  0.500  0.280-  15 1.88   9 2.05   5 2.07   3 2.07
  63  0.673  0.499  0.782-  16 1.88  10 2.02   4 2.08   6 2.09
  64  0.673  0.833  0.280-  17 1.87  11 2.05   1 2.07   5 2.07
  65  0.673  0.833  0.781-  18 1.87  12 2.03   2 2.08   6 2.08
  66  0.827  0.999  0.218-  19 1.86   1 2.01  11 2.07   7 2.11
  67  0.827  0.000  0.720-  20 1.88   2 2.02  12 2.07   8 2.09
  68  0.825  0.333  0.219-  21 1.86   3 1.99   9 2.08   7 2.08
  69  0.828  0.333  0.720-  22 1.89   4 2.02  10 2.08   8 2.08
  70  0.827  0.668  0.218-  23 1.86   5 2.01  11 2.07   9 2.11
  71  0.827  0.666  0.720-  24 1.88   6 2.02  12 2.07  10 2.09
  72  0.829  0.999  0.446-  20 1.84  11 1.96   7 1.98
  73  0.832  1.000  0.946-  19 1.84   8 1.95  12 1.95
  74  0.826  0.333  0.446-  22 1.84   9 1.96   7 1.96
  75  0.836  0.333  0.949-  21 1.86  10 1.95   8 1.95
  76  0.829  0.668  0.446-  24 1.84  11 1.96   9 1.98
  77  0.832  0.667  0.946-  23 1.84  10 1.95  12 1.95
  78  0.667  0.167  0.054-  14 1.84   1 1.96   3 1.96
  79  0.667  0.167  0.554-  13 1.85   4 1.95   2 1.95
  80  0.667  0.500  0.054-  16 1.84   5 1.96   3 1.96
  81  0.667  0.500  0.554-  15 1.85   4 1.95   6 1.95
  82  0.668  0.833  0.053-  18 1.84   1 1.96   5 1.96
  83  0.668  0.833  0.555-  17 1.84   2 1.95   6 1.95
  84  0.497  0.999  0.126-  46 1.85  42 1.85   1 1.94
  85  0.497  1.000  0.629-  47 1.85  43 1.85   2 1.94
  86  0.497  0.333  0.126-  44 1.85  42 1.85   3 1.94
  87  0.497  0.333  0.629-  45 1.85  43 1.85   4 1.94
  88  0.497  0.667  0.126-  46 1.85  44 1.85   5 1.94
  89  0.497  0.667  0.629-  47 1.85  45 1.85   6 1.94
  90  0.001  0.171  0.371-  37 1.82   7 1.88
  91  0.003  0.166  0.873-  39 1.85  38 1.85   8 1.94
  92  0.001  0.496  0.371-  40 1.82   9 1.88
  93  0.003  0.501  0.873-  39 1.85  41 1.85  10 1.94
  94  0.006  0.833  0.374-  37 1.88  40 1.88  11 1.93
  95  0.004  0.833  0.873-  38 1.85  41 1.85  12 1.94
  96  0.174  0.999  0.281-  37 1.88  31 2.02  29 2.06  25 2.07
  97  0.172  0.000  0.779-  38 1.87  32 2.01  30 2.09  26 2.13
  98  0.175  0.333  0.273-  33 1.93  27 1.96  25 1.96
  99  0.172  0.333  0.781-  39 1.86  34 2.00  28 2.12  26 2.12
 100  0.174  0.668  0.281-  40 1.88  35 2.02  29 2.06  27 2.07
 101  0.172  0.666  0.779-  41 1.87  36 2.01  30 2.09  28 2.13
 102  0.330  0.163  0.220-  42 1.86  25 2.03  31 2.05  33 2.14
 103  0.328  0.167  0.720-  43 1.87  26 2.05  32 2.07  34 2.07
 104  0.330  0.504  0.220-  44 1.86  27 2.03  35 2.05  33 2.14
 105  0.328  0.500  0.720-  45 1.87  28 2.05  36 2.07  34 2.07
 106  0.328  0.833  0.219-  46 1.87  29 2.03  31 2.07  35 2.07
 107  0.327  0.833  0.719-  47 1.87  30 2.03  32 2.08  36 2.08
 108  0.335  0.164  0.447-  43 1.83  33 1.94  31 1.94
 109  0.332  0.166  0.946-  42 1.84  32 1.95  34 1.95
 110  0.335  0.502  0.447-  45 1.83  33 1.94  35 1.94
 111  0.332  0.500  0.946-  44 1.84  36 1.95  34 1.95
 112  0.335  0.833  0.446-  47 1.83  31 1.95  35 1.95
 113  0.331  0.833  0.945-  46 1.84  32 1.96  36 1.96
 114  0.167  0.001  0.056-  38 1.84  29 1.96  25 1.98
 115  0.167  1.000  0.553-  37 1.85  26 1.94  30 1.94
 116  0.169  0.333  0.052-  39 1.83  27 1.99  25 1.99
 117  0.171  0.333  0.555-  28 1.90  26 1.90
 118  0.167  0.666  0.056-  41 1.84  29 1.96  27 1.98
 119  0.167  0.667  0.553-  40 1.85  28 1.94  30 1.94
 
  LATTYP: Found a simple monoclinic cell.
 ALAT       =    11.6348202465
 B/A-ratio  =     0.7858051831
 C/A-ratio  =     1.0554931797
 COS(beta)  =    -0.2379290539
  
  Lattice vectors:
  
 A1 = (   0.0000000000,  -2.7682617730, -11.3006977184)
 A2 = (  -9.1427020537,   0.0000000000,   0.0000000000)
 A3 = (   0.0000000000,  12.2804734172,   0.0000000000)


Analysis of symmetry for initial positions (statically):
=====================================================================
 Subroutine PRICEL returns:
 Original cell was already a primitive cell.
 

 Routine SETGRP: Setting up the symmetry group for a 
 simple monoclinic supercell.


 Subroutine GETGRP returns: Found  2 space group operations
 (whereof  1 operations were pure point group operations)
 out of a pool of  4 trial point group operations.


The static configuration has the point symmetry C_1 .
 The point group associated with its full space group is C_1h.


Analysis of symmetry for dynamics (positions and initial velocities):
=====================================================================
 Subroutine PRICEL returns:
 Original cell was already a primitive cell.
 

 Routine SETGRP: Setting up the symmetry group for a 
 simple monoclinic supercell.


 Subroutine GETGRP returns: Found  2 space group operations
 (whereof  1 operations were pure point group operations)
 out of a pool of  4 trial point group operations.


The dynamic configuration has the point symmetry C_1 .
 The point group associated with its full space group is C_1h.


 Subroutine INISYM returns: Found  2 space group operations
 (whereof  1 operations are pure point group operations),
 and found     1 'primitive' translations


----------------------------------------------------------------------------------------

                                     Primitive cell                                     

  volume of cell :    1268.8052

  direct lattice vectors                    reciprocal lattice vectors
     0.000000000 12.280473417  0.000000000     0.000000000  0.081430085 -0.019947423
     9.142702054  0.000000000  0.000000000     0.109376855 -0.000000000  0.000000000
     0.000000000 -2.768261773-11.300697718     0.000000000  0.000000000 -0.088490111

  length of vectors
    12.280473417  9.142702054 11.634820246     0.083837691  0.109376855  0.088490111

  position of ions in fractional coordinates (direct lattice)
     0.659505640  0.999870604  0.157327822
     0.659201661  0.000121260  0.657154834
     0.659155643  0.333333333  0.157091176
     0.659756023  0.333333333  0.656825068
     0.659505640  0.666796062  0.157327822
     0.659201661  0.666545407  0.657154834
     0.843687693  0.167720901  0.344452465
     0.841247122  0.167365675  0.844480563
     0.843687693  0.498945766  0.344452465
     0.841247122  0.499300992  0.844480563
     0.844136492  0.833333333  0.343291507
     0.841685085  0.833333333  0.843488668
     0.590200577  0.167947835  0.396952542
     0.589784466  0.166663008  0.897614096
     0.590200577  0.498718832  0.396952542
     0.589784466  0.500003659  0.897614096
     0.593544751  0.833333333  0.397940287
     0.590227822  0.833333333  0.897444968
     0.908683480  0.999188053  0.102573496
     0.907607167  0.999529092  0.601542966
     0.911642116  0.333333333  0.107800098
     0.908968633  0.333333333  0.599688656
     0.908683480  0.667478613  0.102573496
     0.907607167  0.667137575  0.601542966
     0.160755260  0.169021731  0.161639834
     0.157591954  0.168894638  0.650025639
     0.160755260  0.497644935  0.161639834
     0.157591954  0.497772029  0.650025639
     0.159259781  0.833333333  0.158455459
     0.157662317  0.833333333  0.654314696
     0.342224496  0.999670843  0.343137678
     0.338985648  0.000091870  0.842066405
     0.334232142  0.333333333  0.346397789
     0.338685613  0.333333333  0.842651369
     0.342224496  0.666995823  0.343137678
     0.338985648  0.666574797  0.842066405
     0.088663431  0.008710138  0.395899710
     0.092374705  0.000082995  0.898428513
     0.090403567  0.333333333  0.896944410
     0.088663431  0.657956529  0.395899710
     0.092374705  0.666583672  0.898428513
     0.409334737  0.166282992  0.102418279
     0.409669462  0.166767943  0.603066294
     0.409334737  0.500383675  0.102418279
     0.409669462  0.499898724  0.603066294
     0.408876442  0.833333333  0.101841646
     0.409348938  0.833333333  0.602471505
     0.996593704  0.165043439  0.129555109
     0.995022564  0.166014320  0.626348692
     0.996593704  0.501623227  0.129555109
     0.995022564  0.500652347  0.626348692
     0.996321682  0.833333333  0.126832151
     0.995228742  0.833333333  0.627799212
     0.505462521  0.999118697  0.373121988
     0.502464380  0.999823229  0.872096622
     0.501361612  0.333333333  0.372707290
     0.502336977  0.333333333  0.872518428
     0.505462521  0.667547970  0.373121988
     0.502464380  0.666843438  0.872096622
     0.672677850  0.166390064  0.280390587
     0.673076969  0.167363955  0.781786871
     0.672677850  0.500276603  0.280390587
     0.673076969  0.499302711  0.781786871
     0.673351930  0.833333333  0.279938200
     0.672851956  0.833333333  0.781281143
     0.826571488  0.998596988  0.218348370
     0.827163673  0.000173681  0.719865192
     0.825206282  0.333333333  0.218844046
     0.828155800  0.333333333  0.719573191
     0.826571488  0.668069679  0.218348370
     0.827163673  0.666492985  0.719865192
     0.829387114  0.998796863  0.445700303
     0.832423453  0.999891395  0.945887089
     0.826057736  0.333333333  0.445970210
     0.835816918  0.333333333  0.948824730
     0.829387114  0.667869803  0.445700303
     0.832423453  0.666775271  0.945887089
     0.667229983  0.166511317  0.053715308
     0.666694633  0.166619149  0.554480384
     0.667229983  0.500155350  0.053715308
     0.666694633  0.500047518  0.554480384
     0.667549750  0.833333333  0.053494048
     0.668332299  0.833333333  0.555333127
     0.496924928  0.999413925  0.125853557
     0.497127682  0.999785738  0.629247970
     0.496557221  0.333333333  0.126176535
     0.497240460  0.333333333  0.629190958
     0.496924928  0.667252742  0.125853557
     0.497127682  0.666880928  0.629247970
     0.000937206  0.171015794  0.370988013
     0.003332648  0.165995570  0.872537571
     0.000937206  0.495650873  0.370988013
     0.003332648  0.500671096  0.872537571
     0.005766369  0.833333333  0.373561131
     0.004198036  0.833333333  0.873127547
     0.173738670  0.999114761  0.281378265
     0.171754948  0.000380623  0.779388562
     0.175496912  0.333333333  0.272911086
     0.171933496  0.333333333  0.781034505
     0.173738670  0.667551906  0.281378265
     0.171754948  0.666286043  0.779388562
     0.330497394  0.162658329  0.220073963
     0.327685519  0.166631349  0.719530072
     0.330497394  0.504008338  0.220073963
     0.327685519  0.500035318  0.719530072
     0.328398929  0.833333333  0.219312717
     0.326767197  0.833333333  0.718666385
     0.335481544  0.164176082  0.446890496
     0.332326789  0.166269490  0.945706899
     0.335481544  0.502490585  0.446890496
     0.332326789  0.500397177  0.945706899
     0.335083594  0.833333333  0.445916011
     0.331183455  0.833333333  0.945283688
     0.167000283  0.001077240  0.055550747
     0.167141772  0.999500091  0.552985233
     0.168787536  0.333333333  0.052064050
     0.171484926  0.333333333  0.555181311
     0.167000283  0.665589427  0.055550747
     0.167141772  0.667166575  0.552985233

  ion indices of the primitive-cell ions
   primitive index   ion index
                 1           1
                 2           2
                 3           3
                 4           4
                 5           5
                 6           6
                 7           7
                 8           8
                 9           9
                10          10
                11          11
                12          12
                13          13
                14          14
                15          15
                16          16
                17          17
                18          18
                19          19
                20          20
                21          21
                22          22
                23          23
                24          24
                25          25
                26          26
                27          27
                28          28
                29          29
                30          30
                31          31
                32          32
                33          33
                34          34
                35          35
                36          36
                37          37
                38          38
                39          39
                40          40
                41          41
                42          42
                43          43
                44          44
                45          45
                46          46
                47          47
                48          48
                49          49
                50          50
                51          51
                52          52
                53          53
                54          54
                55          55
                56          56
                57          57
                58          58
                59          59
                60          60
                61          61
                62          62
                63          63
                64          64
                65          65
                66          66
                67          67
                68          68
                69          69
                70          70
                71          71
                72          72
                73          73
                74          74
                75          75
                76          76
                77          77
                78          78
                79          79
                80          80
                81          81
                82          82
                83          83
                84          84
                85          85
                86          86
                87          87
                88          88
                89          89
                90          90
                91          91
                92          92
                93          93
                94          94
                95          95
                96          96
                97          97
                98          98
                99          99
               100         100
               101         101
               102         102
               103         103
               104         104
               105         105
               106         106
               107         107
               108         108
               109         109
               110         110
               111         111
               112         112
               113         113
               114         114
               115         115
               116         116
               117         117
               118         118
               119         119

----------------------------------------------------------------------------------------

 
 
 KPOINTS: Automatic mesh                          

Automatic generation of k-mesh.
 Grid dimensions read from file:
 generate k-points for:    2    2    2

 Generating k-lattice:

  Cartesian coordinates                     Fractional coordinates (reciprocal lattice)
     0.000000000  0.040715043 -0.009973711     0.500000000  0.000000000  0.000000000
     0.054688428 -0.000000000  0.000000000     0.000000000  0.500000000  0.000000000
     0.000000000  0.000000000 -0.044245056     0.000000000  0.000000000  0.500000000

  Length of vectors
     0.041918846  0.054688428  0.044245056

  Shift w.r.t. Gamma in fractional coordinates (k-lattice)
     0.000000000  0.000000000  0.000000000

 
 Subroutine IBZKPT returns following result:
 ===========================================
 
 Found      8 irreducible k-points:
 
 Following reciprocal coordinates:
            Coordinates               Weight
  0.000000  0.000000  0.000000      1.000000
  0.500000  0.000000  0.000000      1.000000
  0.000000  0.500000  0.000000      1.000000
  0.500000  0.500000  0.000000      1.000000
  0.000000  0.000000  0.500000      1.000000
  0.500000  0.000000  0.500000      1.000000
  0.000000  0.500000  0.500000      1.000000
  0.500000  0.500000  0.500000      1.000000
 
 Following cartesian coordinates:
            Coordinates               Weight
  0.000000  0.000000 -0.000000      1.000000
  0.000000  0.040715 -0.009974      1.000000
  0.054688  0.000000 -0.000000      1.000000
  0.054688  0.040715 -0.009974      1.000000
  0.000000  0.000000 -0.044245      1.000000
  0.000000  0.040715 -0.054219      1.000000
  0.054688  0.000000 -0.044245      1.000000
  0.054688  0.040715 -0.054219      1.000000
 
 
 Subroutine IBZKPT_HF returns following result:
 ==============================================
 
 Found      8 k-points in 1st BZ
 the following      8 k-points will be used (e.g. in the exchange kernel)
 Following reciprocal coordinates:   # in IRBZ
  0.000000  0.000000  0.000000    0.12500000   1 t-inv F
  0.500000  0.000000  0.000000    0.12500000   2 t-inv F
  0.000000  0.500000  0.000000    0.12500000   3 t-inv F
  0.500000  0.500000  0.000000    0.12500000   4 t-inv F
  0.000000  0.000000  0.500000    0.12500000   5 t-inv F
  0.500000  0.000000  0.500000    0.12500000   6 t-inv F
  0.000000  0.500000  0.500000    0.12500000   7 t-inv F
  0.500000  0.500000  0.500000    0.12500000   8 t-inv F


--------------------------------------------------------------------------------------------------------




 Dimension of arrays:
   k-points           NKPTS =      8   k-points in BZ     NKDIM =      8   number of bands    NBANDS=    626
   number of dos      NEDOS =    301   number of ions     NIONS =    119
   non local maximal  LDIM  =      6   non local SUM 2l+1 LMDIM =     18
   total plane-waves  NPLWV = 184320
   max r-space proj   IRMAX =   1800   max aug-charges    IRDMAX=   5704
   dimension x,y,z NGX =    64 NGY =   48 NGZ =   60
   dimension x,y,z NGXF=   128 NGYF=   96 NGZF=  120
   support grid    NGXF=   128 NGYF=   96 NGZF=  120
   ions per type =              47  72
   NGX,Y,Z   is equivalent  to a cutoff of   8.66,  8.73,  8.57 a.u.
   NGXF,Y,Z  is equivalent  to a cutoff of  17.33, 17.46, 17.15 a.u.

 SYSTEM =  unknown system                          
 POSCAR =  Ga48 O72                                

 Startparameter for this run:
   NWRITE =      2    write-flag & timer
   PREC   = normal    normal or accurate (medium, high low for compatibility)
   ISTART =      0    job   : 0-new  1-cont  2-samecut
   ICHARG =      0    charge: 1-file 2-atom 10-const
   ISPIN  =      1    spin polarized calculation?
   LNONCOLLINEAR =      F non collinear calculations
   LSORBIT =      F    spin-orbit coupling
   INIWAV =      1    electr: 0-lowe 1-rand  2-diag
   LASPH  =      F    aspherical Exc in radial PAW
 Electronic Relaxation 1
   ENCUT  =  450.0 eV  33.07 Ry    5.75 a.u.  21.24 15.81 20.12*2*pi/ulx,y,z
   ENINI  =  450.0     initial cutoff
   ENAUG  =  605.4 eV  augmentation charge cutoff
   NELM   =    500;   NELMIN=  2; NELMDL= -5     # of ELM steps 
   EDIFF  = 0.1E-04   stopping-criterion for ELM
   LREAL  =      T    real-space projection
   NLSPLINE    = F    spline interpolate recip. space projectors
   LCOMPAT=      F    compatible to vasp.4.4
   GGA_COMPAT  = T    GGA compatible to vasp.4.4-vasp.4.6
   LMAXPAW     = -100 max onsite density
   LMAXMIX     =    2 max onsite mixed and CHGCAR
   VOSKOWN=      0    Vosko Wilk Nusair interpolation
   ROPT   =   -0.00050  -0.00050
 Ionic relaxation
   EDIFFG = -.5E-02   stopping-criterion for IOM
   NSW    =      0    number of steps for IOM
   NBLOCK =      1;   KBLOCK =      1    inner block; outer block 
   IBRION =     -1    ionic relax: 0-MD 1-quasi-New 2-CG
   NFREE  =      0    steps in history (QN), initial steepest desc. (CG)
   ISIF   =      2    stress and relaxation
   IWAVPR =     10    prediction:  0-non 1-charg 2-wave 3-comb
   ISYM   =      3    0-nonsym 1-usesym 2-fastsym
   LCORR  =      T    Harris-Foulkes like correction to forces

   POTIM  = 0.5000    time-step for ionic-motion
   TEIN   =    0.0    initial temperature
   TEBEG  =    0.0;   TEEND  =   0.0 temperature during run
   SMASS  =  -3.00    Nose mass-parameter (am)
   estimated Nose-frequenzy (Omega)   =  0.10E-29 period in steps = 0.13E+47 mass=  -0.345E-26a.u.
   SCALEE = 1.0000    scale energy and forces
   NPACO  =    256;   APACO  = 10.0  distance and # of slots for P.C.
   PSTRESS=    0.0 pullay stress

  Mass of Ions in am
   POMASS =  69.72 16.00
  Ionic Valenz
   ZVAL   =  13.00  6.00
  Atomic Wigner-Seitz radii
   RWIGS  =  -1.00 -1.00
  virtual crystal weights 
   VCA    =   1.00  1.00
   NELECT =    1044.0000    total number of electrons
   NUPDOWN=      -1.0000    fix difference up-down

 DOS related values:
   EMIN   =  10.00;   EMAX   =-10.00  energy-range for DOS
   EFERMI =   0.00;   METHOD = LEGACY      
   ISMEAR =     0;   SIGMA  =   0.05  broadening in eV -4-tet -1-fermi 0-gaus

 Electronic relaxation 2 (details)
   IALGO  =     58    algorithm
   LDIAG  =      T    sub-space diagonalisation (order eigenvalues)
   LSUBROT=      F    optimize rotation matrix (better conditioning)
   TURBO    =      0    0=normal 1=particle mesh
   IRESTART =      0    0=no restart 2=restart with 2 vectors
   NREBOOT  =      0    no. of reboots
   NMIN     =      0    reboot dimension
   EREF     =   0.00    reference energy to select bands
   IMIX   =      4    mixing-type and parameters
     AMIX     =   0.40;   BMIX     =  1.00
     AMIX_MAG =   1.60;   BMIX_MAG =  1.00
     AMIN     =   0.10
     WC   =   100.;   INIMIX=   1;  MIXPRE=   1;  MAXMIX= -45

 Intra band minimization:
   WEIMIN = 0.0000     energy-eigenvalue tresh-hold
   EBREAK =  0.40E-08  absolut break condition
   DEPER  =   0.30     relativ break condition  

   TIME   =   0.40     timestep for ELM

  volume/ion in A,a.u.               =      10.66        71.95
  Fermi-wavevector in a.u.,A,eV,Ry     =   1.534064  2.898960 32.019284  2.353351
  Thomas-Fermi vector in A             =   2.641044
 
 Write flags
   LWAVE        =      T    write WAVECAR
   LDOWNSAMPLE  =      F    k-point downsampling of WAVECAR
   LCHARG       =      T    write CHGCAR
   LVTOT        =      F    write LOCPOT, total local potential
   LVHAR        =      F    write LOCPOT, Hartree potential only
   LELF         =      F    write electronic localiz. function (ELF)
   LORBIT       =      0    0 simple, 1 ext, 2 COOP (PROOUT), +10 PAW based schemes


 Dipole corrections
   LMONO  =      F    monopole corrections only (constant potential shift)
   LDIPOL =      F    correct potential (dipole corrections)
   IDIPOL =      0    1-x, 2-y, 3-z, 4-all directions 
   EPSILON=  1.0000000 bulk dielectric constant

 Exchange correlation treatment:
   GGA     =    --    GGA type
   LEXCH   =     8    internal setting for exchange type
   LIBXC   =     F    Libxc                    
   VOSKOWN =     0    Vosko Wilk Nusair interpolation
   EXXOEP  =     0    0=HF, 1=EXX-LHF (local Hartree Fock) 2=EXX OEP
   LHFCALC =     T    Hartree Fock is set to
   LSYMGRAD=     F    symmetrize gradient (conserves proper symmetry)
   PRECFOCK=fast      Normal, Fast or Accurate (Low or Medium for compatibility)
   LRHFCALC=     F    long range Hartree Fock
   LRSCOR  =     F    long range correlation only (use DFT for short range part)
   LTHOMAS =     F    Thomas Fermi screening in HF
   LMODELHF=     F    short range full HF, long range fraction AEXX
   FOCKCORR=     1    mode to apply convergence corrections
   LFOCKACE=     T    use Adeptively-Compressed-Exchange operator
   ENCUT4O =  -1.0   cutoff for four orbital integrals eV
   LMAXFOCK=     4    L truncation for augmentation on plane wave grid
   LMAXFOCKAE=  -1    L truncation for all-electron charge restoration on plane wave grid
   NMAXFOCKAE=   1    number of basis functions for all-electron charge restoration
   LFOCKAEDFT=     F  apply the AE augmentation even for DFT
   NKREDX  =     1    reduce k-point grid by
   NKREDY  =     1    reduce k-point grid by
   NKREDZ  =     1    reduce k-point grid by
   SHIFTRED=     F    shift reduced grid of Gamma
   HFKIDENT=     F    idential grid for each k-point
   ODDONLY =     F    use only odd q-grid points
   EVENONLY=     F    use only even q-grid points
   HFALPHA =   -1.0000 decay constant for conv. correction
   MCALPHA =    0.0000 extent of test-charge in conv. correction in multipole expansion
   AEXX    =    0.3200 exact exchange contribution
   HFSCREEN=    0.2000 screening length (either q_TF or 0.3 A-1)
   HFSCREENC=   0.2000 screening length for correlation (either q_TF or 0.3 A-1)
   HFRCUT  =    0.0000 spherical cutoff for potential kernel
   ALDAX   =    0.6800 LDA exchange part
   AGGAX   =    0.6800 GGA exchange part
   ALDAC   =    1.0000 LDA correlation
   AGGAC   =    1.0000 GGA correlation
   ENCUTFOCK=  -1.0 apply spherical cutoff to Coloumb kernel
   NBANDSGWLOW=     1    first orbital included in HF term
   NBLOCK_FOCK=    64    blocking factor in FOCK_ACC

 Linear response parameters
   LEPSILON=     F    determine dielectric tensor
   LRPA    =     F    only Hartree local field effects (RPA)
   LNABLA  =     F    use nabla operator in PAW spheres
   LVEL    =     F    velocity operator in full k-point grid
   CSHIFT  =0.1000    complex shift for real part using Kramers Kronig
   OMEGAMAX=  -1.0    maximum frequency
   DEG_THRESHOLD= 0.2000000E-02 threshold for treating states as degnerate
   RTIME   =   -0.100 relaxation time in fs
  (WPLASMAI=    0.000 imaginary part of plasma frequency in eV, 0.658/RTIME)
   DFIELD  = 0.0000000 0.0000000 0.0000000 field for delta impulse in time
 
  Optional k-point grid parameters
   LKPOINTS_OPT  =     F    use optional k-point grid
   KPOINTS_OPT_MODE=     1    mode for optional k-point grid
 
 Orbital magnetization related:
   ORBITALMAG=     F  switch on orbital magnetization
   LCHIMAG   =     F  perturbation theory with respect to B field
   DQ        =  0.001000  dq finite difference perturbation B field
   LLRAUG    =     F  two centre corrections for induced B field
   LBONE     =     F  B-component reconstruction in AE one-centre
   LVGVCALC  =     T  calculate vGv susceptibility
   LVGVAPPL  =     F  apply vGv susceptibility instead of pGv for G=0

 Random number generation:
   RANDOM_GENERATOR = DEFAULT
   PCG_SEED         = not used


--------------------------------------------------------------------------------------------------------


 Static calculation
 charge density and potential will be updated during run
 non-spin polarized calculation
 Conjugate gradient for all bands (Freysoldt, et al. PRB 79, 241103 (2009))
 preconditioned conjugated gradient                                        
 perform sub-space diagonalisation
    before iterative eigenvector-optimisation
 modified Broyden-mixing scheme, WC =      100.0
 initial mixing is a Kerker type mixing with AMIX =  0.4000 and BMIX =      1.0000
 Hartree-type preconditioning will be used
 using additional bands           104
 real space projection scheme for non local part
 use partial core corrections
 no Harris-corrections to forces 
 use gradient corrections 
 use of overlap-Matrix (Vanderbilt PP)
 Gauss-broadening in eV      SIGMA  =   0.05


--------------------------------------------------------------------------------------------------------


  energy-cutoff  :      450.00
  volume of cell :     1268.81
      direct lattice vectors                 reciprocal lattice vectors
     0.000000000 12.280473417  0.000000000     0.000000000  0.081430085 -0.019947423
     9.142702054  0.000000000  0.000000000     0.109376855 -0.000000000  0.000000000
     0.000000000 -2.768261773-11.300697718     0.000000000  0.000000000 -0.088490111

  length of vectors
    12.280473417  9.142702054 11.634820246     0.083837691  0.109376855  0.088490111


 
 k-points in units of 2pi/SCALE and weight: Automatic mesh                          
   0.00000000  0.00000000 -0.00000000       0.125
   0.00000000  0.04071504 -0.00997371       0.125
   0.05468843  0.00000000 -0.00000000       0.125
   0.05468843  0.04071504 -0.00997371       0.125
   0.00000000  0.00000000 -0.04424506       0.125
   0.00000000  0.04071504 -0.05421877       0.125
   0.05468843  0.00000000 -0.04424506       0.125
   0.05468843  0.04071504 -0.05421877       0.125
 
 k-points in reciprocal lattice and weights: Automatic mesh                          
   0.00000000  0.00000000  0.00000000       0.125
   0.50000000  0.00000000  0.00000000       0.125
   0.00000000  0.50000000  0.00000000       0.125
   0.50000000  0.50000000  0.00000000       0.125
   0.00000000  0.00000000  0.50000000       0.125
   0.50000000  0.00000000  0.50000000       0.125
   0.00000000  0.50000000  0.50000000       0.125
   0.50000000  0.50000000  0.50000000       0.125
 
 position of ions in fractional coordinates (direct lattice) 
   0.65950564  0.99987060  0.15732782
   0.65920166  0.00012126  0.65715483
   0.65915564  0.33333333  0.15709118
   0.65975602  0.33333333  0.65682507
   0.65950564  0.66679606  0.15732782
   0.65920166  0.66654541  0.65715483
   0.84368769  0.16772090  0.34445246
   0.84124712  0.16736567  0.84448056
   0.84368769  0.49894577  0.34445246
   0.84124712  0.49930099  0.84448056
   0.84413649  0.83333333  0.34329151
   0.84168509  0.83333333  0.84348867
   0.59020058  0.16794783  0.39695254
   0.58978447  0.16666301  0.89761410
   0.59020058  0.49871883  0.39695254
   0.58978447  0.50000366  0.89761410
   0.59354475  0.83333333  0.39794029
   0.59022782  0.83333333  0.89744497
   0.90868348  0.99918805  0.10257350
   0.90760717  0.99952909  0.60154297
   0.91164212  0.33333333  0.10780010
   0.90896863  0.33333333  0.59968866
   0.90868348  0.66747861  0.10257350
   0.90760717  0.66713757  0.60154297
   0.16075526  0.16902173  0.16163983
   0.15759195  0.16889464  0.65002564
   0.16075526  0.49764494  0.16163983
   0.15759195  0.49777203  0.65002564
   0.15925978  0.83333333  0.15845546
   0.15766232  0.83333333  0.65431470
   0.34222450  0.99967084  0.34313768
   0.33898565  0.00009187  0.84206641
   0.33423214  0.33333333  0.34639779
   0.33868561  0.33333333  0.84265137
   0.34222450  0.66699582  0.34313768
   0.33898565  0.66657480  0.84206641
   0.08866343  0.00871014  0.39589971
   0.09237471  0.00008299  0.89842851
   0.09040357  0.33333333  0.89694441
   0.08866343  0.65795653  0.39589971
   0.09237471  0.66658367  0.89842851
   0.40933474  0.16628299  0.10241828
   0.40966946  0.16676794  0.60306629
   0.40933474  0.50038368  0.10241828
   0.40966946  0.49989872  0.60306629
   0.40887644  0.83333333  0.10184165
   0.40934894  0.83333333  0.60247151
   0.99659370  0.16504344  0.12955511
   0.99502256  0.16601432  0.62634869
   0.99659370  0.50162323  0.12955511
   0.99502256  0.50065235  0.62634869
   0.99632168  0.83333333  0.12683215
   0.99522874  0.83333333  0.62779921
   0.50546252  0.99911870  0.37312199
   0.50246438  0.99982323  0.87209662
   0.50136161  0.33333333  0.37270729
   0.50233698  0.33333333  0.87251843
   0.50546252  0.66754797  0.37312199
   0.50246438  0.66684344  0.87209662
   0.67267785  0.16639006  0.28039059
   0.67307697  0.16736396  0.78178687
   0.67267785  0.50027660  0.28039059
   0.67307697  0.49930271  0.78178687
   0.67335193  0.83333333  0.27993820
   0.67285196  0.83333333  0.78128114
   0.82657149  0.99859699  0.21834837
   0.82716367  0.00017368  0.71986519
   0.82520628  0.33333333  0.21884405
   0.82815580  0.33333333  0.71957319
   0.82657149  0.66806968  0.21834837
   0.82716367  0.66649299  0.71986519
   0.82938711  0.99879686  0.44570030
   0.83242345  0.99989140  0.94588709
   0.82605774  0.33333333  0.44597021
   0.83581692  0.33333333  0.94882473
   0.82938711  0.66786980  0.44570030
   0.83242345  0.66677527  0.94588709
   0.66722998  0.16651132  0.05371531
   0.66669463  0.16661915  0.55448038
   0.66722998  0.50015535  0.05371531
   0.66669463  0.50004752  0.55448038
   0.66754975  0.83333333  0.05349405
   0.66833230  0.83333333  0.55533313
   0.49692493  0.99941392  0.12585356
   0.49712768  0.99978574  0.62924797
   0.49655722  0.33333333  0.12617654
   0.49724046  0.33333333  0.62919096
   0.49692493  0.66725274  0.12585356
   0.49712768  0.66688093  0.62924797
   0.00093721  0.17101579  0.37098801
   0.00333265  0.16599557  0.87253757
   0.00093721  0.49565087  0.37098801
   0.00333265  0.50067110  0.87253757
   0.00576637  0.83333333  0.37356113
   0.00419804  0.83333333  0.87312755
   0.17373867  0.99911476  0.28137826
   0.17175495  0.00038062  0.77938856
   0.17549691  0.33333333  0.27291109
   0.17193350  0.33333333  0.78103451
   0.17373867  0.66755191  0.28137826
   0.17175495  0.66628604  0.77938856
   0.33049739  0.16265833  0.22007396
   0.32768552  0.16663135  0.71953007
   0.33049739  0.50400834  0.22007396
   0.32768552  0.50003532  0.71953007
   0.32839893  0.83333333  0.21931272
   0.32676720  0.83333333  0.71866639
   0.33548154  0.16417608  0.44689050
   0.33232679  0.16626949  0.94570690
   0.33548154  0.50249058  0.44689050
   0.33232679  0.50039718  0.94570690
   0.33508359  0.83333333  0.44591601
   0.33118345  0.83333333  0.94528369
   0.16700028  0.00107724  0.05555075
   0.16714177  0.99950009  0.55298523
   0.16878754  0.33333333  0.05206405
   0.17148493  0.33333333  0.55518131
   0.16700028  0.66558943  0.05555075
   0.16714177  0.66716658  0.55298523
 
 position of ions in cartesian coordinates  (Angst):
   9.14151903  7.66351689 -1.77791416
   0.00110864  6.27613186 -7.42630813
   3.04756735  7.65987385 -1.77523989
   3.04756735  6.28385257 -7.42258155
   6.09631773  7.66351689 -1.77791416
   6.09402606  6.27613186 -7.42630813
   1.53342222  9.40734970 -3.89255318
   1.53017450  7.99316965 -9.54321957
   4.56171248  9.40734970 -3.89255318
   4.56496021  7.99316965 -9.54321957
   7.61891838  9.41607499 -3.87943355
   7.61891838  8.00129388 -9.53201047
   1.53549702  6.14907395 -4.48584069
   1.52375022  4.75800166-10.14366557
   4.55963769  6.14907395 -4.48584069
   4.57138448  4.75800166-10.14366557
   7.61891838  6.18740766 -4.49700289
   7.61891838  4.76391448-10.14175430
   9.13527867 10.87511303 -1.15915208
   9.13839668  9.48061728 -6.79785522
   3.04756735 10.89697788 -1.21821632
   3.04756735  9.50246995 -6.77690022
   6.10255809 10.87511303 -1.15915208
   6.09944007  9.48061728 -6.79785522
   1.54531533  1.52668932 -1.82664291
   1.54415335  0.13586268 -7.34574325
   4.54981937  1.52668932 -1.82664291
   4.55098135  0.13586268 -7.34574325
   7.61891838  1.51713931 -1.79065724
   7.61891838  0.12485353 -7.39421260
   9.13969267  3.25278391 -3.87769517
   0.00083994  1.83184400 -9.51593791
   3.04756735  3.14560917 -3.91453671
   3.04756735  1.82654009 -9.52254840
   6.09814408  3.25278391 -3.87769517
   6.09429476  1.83184400 -9.51593791
   0.07963419 -0.00712513 -4.47394295
   0.00075880 -1.35268019-10.15286905
   3.04756735 -1.37277832-10.13609764
   6.01550051 -0.00712513 -4.47394295
   6.09437590 -1.35268019-10.15286905
   1.52027585  4.74330375 -1.15739801
   1.52470961  3.36148957 -6.81506990
   4.57485885  4.74330375 -1.15739801
   4.57042509  3.36148957 -6.81506990
   7.61891838  4.73927195 -1.15088165
   7.61891838  3.35919992 -6.80834836
   1.50894299 11.88000004 -1.46406312
   1.51781946 10.48545100 -7.07817723
   4.58619171 11.88000004 -1.46406312
   4.57731524 10.48545100 -7.07817723
   7.61891838 11.88419733 -1.43329180
   7.61891838 10.48396754 -7.09456913
   9.13464456  5.17441972 -4.21653880
   9.14108589  3.75630872 -9.85530031
   3.04756735  5.12520660 -4.21185242
   3.04756735  3.75357648 -9.86006701
   6.10319220  5.17441972 -4.21653880
   6.09675087  3.75630872 -9.85530031
   1.52125478  7.48460791 -3.16860926
   1.53015878  6.10151312 -8.83473711
   4.57387992  7.48460791 -3.16860926
   4.56497593  6.10151312 -8.83473711
   7.61891838  7.49413826 -3.16349697
   7.61891838  6.10014984 -8.82902203
   9.12987473  9.54624374 -2.46748892
   0.00158792  8.16518620 -8.13497893
   3.04756735  9.52810620 -2.47309041
   3.04756735  8.17817833 -8.13167911
   6.10796202  9.54624374 -2.46748892
   6.09354679  8.16518620 -8.13497893
   9.13170213  8.95145129 -5.03672440
   9.14170911  7.60409102-10.68918407
   3.04756735  8.90981778 -5.03977453
   3.04756735  7.63763221-10.72238146
   6.10613462  8.95145129 -5.03672440
   6.09612764  7.60409102-10.68918407
   1.52236336  8.04520204 -0.60702046
   1.52334923  6.65237886 -6.26601521
   4.57277134  8.04520204 -0.60702046
   4.57178547  6.65237886 -6.26601521
   7.61891838  8.04974143 -0.60452006
   7.61891838  6.67012956 -6.27565180
   9.13734374  5.75407778 -1.42223301
   9.14074312  4.36304018 -7.11094109
   3.04756735  5.74866807 -1.42588289
   3.04756735  4.36458297 -7.11029683
   6.10049301  5.75407778 -1.42223301
   6.09709363  4.36304018 -7.11094109
   1.56354645 -1.01548260 -4.19242339
   1.51764804 -2.37448591 -9.86028334
   4.53158826 -1.01548260 -4.19242339
   4.57748666 -2.37448591 -9.86028334
   7.61891838 -0.96330126 -4.22150142
   7.61891838 -2.36549175 -9.86695048
   9.13460857  1.35466443 -3.17977071
   0.00347993 -0.04831949 -8.80763455
   3.04756735  1.39969584 -3.08408569
   3.04756735 -0.05068324 -8.82623485
   6.10322818  1.35466443 -3.17977071
   6.09165478 -0.04831949 -8.80763455
   1.48713664  3.44944213 -2.48698933
   1.52346077  2.03228571 -8.13119184
   4.60799807  3.44944213 -2.48698933
   4.57167393  2.03228571 -8.13119184
   7.61891838  3.42577930 -2.47838672
   7.61891838  2.02339919 -8.12143158
   1.50101300  2.88276230 -5.05017441
   1.52015240  1.46316604-10.68714779
   4.59412170  2.88276230 -5.05017441
   4.57498230  1.46316604-10.68714779
   7.61891838  2.88057292 -5.03916205
   7.61891838  1.45029692-10.68236522
   0.00984888  1.89706352 -0.62776220
   9.13813154  0.52177220 -6.24911896
   3.04756735  1.92866393 -0.58836009
   3.04756735  0.56902887 -6.27393618
   6.08528582  1.89706352 -0.62776220
   6.09970522  0.52177220 -6.24911896
 


--------------------------------------------------------------------------------------------------------


 k-point   1 :   0.0000 0.0000 0.0000  plane waves:   27533
 k-point   2 :   0.5000 0.0000 0.0000  plane waves:   27522
 k-point   3 :   0.0000 0.5000 0.0000  plane waves:   27488
 k-point   4 :   0.5000 0.5000 0.0000  plane waves:   27488
 k-point   5 :   0.0000 0.0000 0.5000  plane waves:   27482
 k-point   6 :   0.5000 0.0000 0.5000  plane waves:   27476
 k-point   7 :   0.0000 0.5000 0.5000  plane waves:   27468
 k-point   8 :   0.5000 0.5000 0.5000  plane waves:   27564

 maximum and minimum number of plane-waves per node :     27564    27468

 maximum number of plane-waves:     27564
 maximum index in each direction: 
   IXMAX=   21   IYMAX=   15   IZMAX=   20
   IXMIN=  -21   IYMIN=  -16   IZMIN=  -20


 serial   3D FFT for wavefunctions
 parallel 3D FFT for charge:
    minimum data exchange during FFTs selected (reduces bandwidth)


 FFT grid for exact exchange (Hartree Fock) 
  NGX = 48; NGY = 36; NGZ = 48

 
 Radii for the augmentation spheres in the non-local exchange
 for species   1 augmentation radius   1.392 (default was   1.031)
       energy cutoff for augmentation   1800.0
 for species   2 augmentation radius   0.974 (default was   0.722)
       energy cutoff for augmentation   1800.0
 Maximum index for augmentation-charges in exchange           752
  SETUP_FOCK is finished

 total amount of memory used by VASP MPI-rank0  7174224. kBytes
=======================================================================

   base      :      30000. kBytes
   nonlr-proj:      32483. kBytes
   fftplans  :      51012. kBytes
   grid      :      90980. kBytes
   one-center:       1850. kBytes
   HF        :        129. kBytes
   wavefun   :    6967770. kBytes
 
     INWAV:  cpu time      0.0001: real time      0.0002
 Broyden mixing: mesh for mixing (old mesh)
   NGX = 43   NGY = 31   NGZ = 41
  (NGX  =128   NGY  = 96   NGZ  =120)
  gives a total of  54653 points

 charge density for first step will be calculated from the start-wavefunctions


--------------------------------------------------------------------------------------------------------


 Maximum index for non-local projection operator          1717
 Maximum index for augmentation-charges          5358 (set IRDMAX)


--------------------------------------------------------------------------------------------------------


 initial charge from wavefunction
 First call to EWALD:  gamma=   0.164
 Maximum number of real-space cells 3x 3x 3
 Maximum number of reciprocal cells 3x 2x 3

    FEWALD:  cpu time      0.0724: real time      0.0724


--------------------------------------- Ionic step        1  -------------------------------------------




--------------------------------------- Iteration      1(   1)  ---------------------------------------


    POTLOK:  cpu time      0.0323: real time      0.0323
    SETDIJ:  cpu time      0.1339: real time      0.1339
    TRIAL :  cpu time      2.8887: real time      2.8942
    CORREC:  cpu time      0.0015: real time      0.0015
    --------------------------------------------
      LOOP:  cpu time      3.9802: real time      3.9853

 eigenvalue-minimisations  : 10504
 total energy-change (2. order) :-0.1821211E+05  (-0.5470413E+05)
 number of electron    1043.9999461 magnetization 
 augmentation part      118.7825017 magnetization 

 Free energy of the ion-electron system (eV)
  ---------------------------------------------------
  alpha Z        PSCENC =      5383.97153279
  Ewald energy   TEWEN  =    -86587.66129471
  -Hartree energ DENC   =     -2067.92109312
  -exchange      EXHF   =         0.00000000
  -V(xc)+E(xc)   XCENC  =      2770.73525935
  PAW double counting   =     54444.10058387   -83069.54766398
  entropy T*S    EENTRO =        -0.00887250
  eigenvalues    EBANDS =    -40840.45204061
  atomic energy  EATOM  =    131754.67725141
  ---------------------------------------------------
  free energy    TOTEN  =    -18212.10633750 eV

  energy without entropy =   -18212.09746500  energy(sigma->0) =   -18212.10190125
  exchange ACFDT corr.  =         0.00000000  see jH, gK, PRB 81, 115126


--------------------------------------------------------------------------------------------------------




--------------------------------------- Iteration      1(   2)  ---------------------------------------


    TRIAL :  cpu time      3.1154: real time      3.1148
    CORREC:  cpu time      0.0016: real time      0.0016
    --------------------------------------------
      LOOP:  cpu time      3.1171: real time      3.1173

 eigenvalue-minimisations  : 13368
 total energy-change (2. order) :-0.4429925E+05  (-0.4279801E+05)
 number of electron    1043.9999461 magnetization 
 augmentation part      118.7825017 magnetization 

 Free energy of the ion-electron system (eV)
  ---------------------------------------------------
  alpha Z        PSCENC =      5383.97153279
  Ewald energy   TEWEN  =    -86587.66129471
  -Hartree energ DENC   =     -2067.92109312
  -exchange      EXHF   =         0.00000000
  -V(xc)+E(xc)   XCENC  =      2770.73525935
  PAW double counting   =     54444.10058387   -83069.54766398
  entropy T*S    EENTRO =        -0.01629488
  eigenvalues    EBANDS =    -85139.69660563
  atomic energy  EATOM  =    131754.67725141
  ---------------------------------------------------
  free energy    TOTEN  =    -62511.35832490 eV

  energy without entropy =   -62511.34203002  energy(sigma->0) =   -62511.35017746
  exchange ACFDT corr.  =         0.00000000  see jH, gK, PRB 81, 115126


--------------------------------------------------------------------------------------------------------




--------------------------------------- Iteration      1(   3)  ---------------------------------------


    TRIAL :  cpu time      3.2825: real time      3.2820
    CORREC:  cpu time      0.0017: real time      0.0017
    --------------------------------------------
      LOOP:  cpu time      3.2843: real time      3.2842

 eigenvalue-minimisations  : 14416
 total energy-change (2. order) :-0.5059238E+04  (-0.4555039E+04)
 number of electron    1043.9999461 magnetization 
 augmentation part      118.7825017 magnetization 

 Free energy of the ion-electron system (eV)
  ---------------------------------------------------
  alpha Z        PSCENC =      5383.97153279
  Ewald energy   TEWEN  =    -86587.66129471
  -Hartree energ DENC   =     -2067.92109312
  -exchange      EXHF   =         0.00000000
  -V(xc)+E(xc)   XCENC  =      2770.73525935
  PAW double counting   =     54444.10058387   -83069.54766398
  entropy T*S    EENTRO =        -0.03315523
  eigenvalues    EBANDS =    -90198.91784404
  atomic energy  EATOM  =    131754.67725141
  ---------------------------------------------------
  free energy    TOTEN  =    -67570.59642366 eV

  energy without entropy =   -67570.56326843  energy(sigma->0) =   -67570.57984605
  exchange ACFDT corr.  =         0.00000000  see jH, gK, PRB 81, 115126


--------------------------------------------------------------------------------------------------------




--------------------------------------- Iteration      1(   4)  ---------------------------------------


    TRIAL :  cpu time      3.8397: real time      3.8391
    CORREC:  cpu time      0.0017: real time      0.0017
    --------------------------------------------
      LOOP:  cpu time      3.8415: real time      3.8413

 eigenvalue-minimisations  : 18392
 total energy-change (2. order) :-0.7623152E+03  (-0.6709368E+03)
 number of electron    1043.9999461 magnetization 
 augmentation part      118.7825017 magnetization 

 Free energy of the ion-electron system (eV)
  ---------------------------------------------------
  alpha Z        PSCENC =      5383.97153279
  Ewald energy   TEWEN  =    -86587.66129471
  -Hartree energ DENC   =     -2067.92109312
  -exchange      EXHF   =         0.00000000
  -V(xc)+E(xc)   XCENC  =      2770.73525935
  PAW double counting   =     54444.10058387   -83069.54766398
  entropy T*S    EENTRO =        -0.07272056
  eigenvalues    EBANDS =    -90961.19347842
  atomic energy  EATOM  =    131754.67725141
  ---------------------------------------------------
  free energy    TOTEN  =    -68332.91162338 eV

  energy without entropy =   -68332.83890281  energy(sigma->0) =   -68332.87526309
  exchange ACFDT corr.  =         0.00000000  see jH, gK, PRB 81, 115126


--------------------------------------------------------------------------------------------------------




--------------------------------------- Iteration      1(   5)  ---------------------------------------


    POTLOK:  cpu time      1.3680: real time      1.3677
    SETDIJ:  cpu time      0.4357: real time      0.4356
    TRIAL :  cpu time    229.3114: real time    229.2934
    CORREC:  cpu time      0.0006: real time      0.0006
    CHARGE:  cpu time      0.2041: real time      0.2041
    --------------------------------------------
      LOOP:  cpu time    231.3199: real time    231.3020

 eigenvalue-minimisations  : 18776
 total energy-change (2. order) : 0.2946706E+05  (-0.7473014E+02)
 number of electron    1043.9998309 magnetization 
 augmentation part      474.3445274 magnetization 

 Free energy of the ion-electron system (eV)
  ---------------------------------------------------
  alpha Z        PSCENC =      5383.97153279
  Ewald energy   TEWEN  =    -86587.66129471
  -Hartree energ DENC   =     -2067.92109312
  -exchange      EXHF   =      4710.63462678
  -V(xc)+E(xc)   XCENC  =      1915.87205333
  PAW double counting   =     55037.18427339   -57038.43102530
  entropy T*S    EENTRO =        -0.00000000
  eigenvalues    EBANDS =    -91974.17391357
  atomic energy  EATOM  =    131754.67725141
  ---------------------------------------------------
  free energy    TOTEN  =    -38865.84758901 eV

  energy without entropy =   -38865.84758901  energy(sigma->0) =   -38865.84758901
  exchange ACFDT corr.  =        -1.24696359  see jH, gK, PRB 81, 115126


--------------------------------------------------------------------------------------------------------




--------------------------------------- Iteration      1(   6)  ---------------------------------------


    POTLOK:  cpu time      1.4087: real time      1.4085
    SETDIJ:  cpu time      0.4251: real time      0.4250
    TRIAL :  cpu time    227.7745: real time    227.7644
    CORREC:  cpu time    230.1580: real time    230.1391
    CHARGE:  cpu time      0.2042: real time      0.2042
    --------------------------------------------
      LOOP:  cpu time    459.9707: real time    459.9434

 eigenvalue-minimisations  :     0
 total energy-change (2. order) : 0.6878316E+05  (-0.1930964E+05)
 number of electron    1043.9998129 magnetization 
 augmentation part      457.3196590 magnetization 

 Free energy of the ion-electron system (eV)
  ---------------------------------------------------
  alpha Z        PSCENC =      5383.97153279
  Ewald energy   TEWEN  =    -86587.66129471
  -Hartree energ DENC   =    -78274.78712624
  -exchange      EXHF   =      4805.71579730
  -V(xc)+E(xc)   XCENC  =      3734.86439987
  PAW double counting   =    149067.74688180  -173807.47149291
  entropy T*S    EENTRO =        -0.04100838
  eigenvalues    EBANDS =     73840.25919335
  atomic energy  EATOM  =    131754.67725141
  ---------------------------------------------------
  free energy    TOTEN  =     29917.31514265 eV

  energy without entropy =    29917.35615103  energy(sigma->0) =    29917.33564684
  exchange ACFDT corr.  =         0.00000000  see jH, gK, PRB 81, 115126


--------------------------------------------------------------------------------------------------------




--------------------------------------- Iteration      1(   7)  ---------------------------------------


    POTLOK:  cpu time      1.5110: real time      1.5108
    SETDIJ:  cpu time      0.4169: real time      0.4169
    TRIAL :  cpu time    228.9876: real time    228.9787
    CORREC:  cpu time    230.1883: real time    230.1744
    CHARGE:  cpu time      0.2047: real time      0.2047
    --------------------------------------------
      LOOP:  cpu time    461.3087: real time    461.2861

 eigenvalue-minimisations  :     0
 total energy-change (2. order) :-0.1890235E+05  (-0.9465033E+04)
 number of electron    1043.9998311 magnetization 
 augmentation part      449.7484099 magnetization 

 Free energy of the ion-electron system (eV)
  ---------------------------------------------------
  alpha Z        PSCENC =      5383.97153279
  Ewald energy   TEWEN  =    -86587.66129471
  -Hartree energ DENC   =    -42941.51021721
  -exchange      EXHF   =      3774.45050844
  -V(xc)+E(xc)   XCENC  =      2931.73738540
  PAW double counting   =    147798.25097805  -165651.49969918
  entropy T*S    EENTRO =        -0.01333052
  eigenvalues    EBANDS =     14552.58790122
  atomic energy  EATOM  =    131754.67725141
  ---------------------------------------------------
  free energy    TOTEN  =     11014.96333783 eV

  energy without entropy =    11014.97666835  energy(sigma->0) =    11014.97000309
  exchange ACFDT corr.  =      -163.84673091  see jH, gK, PRB 81, 115126


--------------------------------------------------------------------------------------------------------




--------------------------------------- Iteration      1(   8)  ---------------------------------------


    POTLOK:  cpu time      1.4700: real time      1.4697
    SETDIJ:  cpu time      0.4355: real time      0.4354
    TRIAL :  cpu time    228.4304: real time    228.4137
    CORREC:  cpu time    230.1929: real time    230.1791
    CHARGE:  cpu time      0.2011: real time      0.2010
    --------------------------------------------
      LOOP:  cpu time    460.7305: real time    460.6999

 eigenvalue-minimisations  :     0
 total energy-change (2. order) :-0.7874228E+04  (-0.1597623E+04)
 number of electron    1043.9998363 magnetization 
 augmentation part      448.7734792 magnetization 

 Free energy of the ion-electron system (eV)
  ---------------------------------------------------
  alpha Z        PSCENC =      5383.97153279
  Ewald energy   TEWEN  =    -86587.66129471
  -Hartree energ DENC   =    -36283.41619397
  -exchange      EXHF   =      3690.81486210
  -V(xc)+E(xc)   XCENC  =      2866.49550568
  PAW double counting   =    125494.00284476  -141654.17443368
  entropy T*S    EENTRO =        -0.02532857
  eigenvalues    EBANDS =     -1523.96141382
  atomic energy  EATOM  =    131754.67725141
  ---------------------------------------------------
  free energy    TOTEN  =      3140.73533003 eV

  energy without entropy =     3140.76065860  energy(sigma->0) =     3140.74799431
  exchange ACFDT corr.  =      -121.06198907  see jH, gK, PRB 81, 115126


--------------------------------------------------------------------------------------------------------




--------------------------------------- Iteration      1(   9)  ---------------------------------------


    POTLOK:  cpu time      1.5005: real time      1.5003
    SETDIJ:  cpu time      0.4184: real time      0.4182
    TRIAL :  cpu time    228.6653: real time    228.6450
    CORREC:  cpu time    229.9249: real time    229.8981
    CHARGE:  cpu time      0.2091: real time      0.2090
    --------------------------------------------
      LOOP:  cpu time    460.7201: real time    460.6730

 eigenvalue-minimisations  :     0
 total energy-change (2. order) :-0.1626255E+04  (-0.9638708E+03)
 number of electron    1043.9998440 magnetization 
 augmentation part      446.0086663 magnetization 

 Free energy of the ion-electron system (eV)
  ---------------------------------------------------
  alpha Z        PSCENC =      5383.97153279
  Ewald energy   TEWEN  =    -86587.66129471
  -Hartree energ DENC   =    -34869.31439963
  -exchange      EXHF   =      3692.27877928
  -V(xc)+E(xc)   XCENC  =      2858.26644222
  PAW double counting   =    120713.29748552  -136288.32921496
  entropy T*S    EENTRO =        -0.02219708
  eigenvalues    EBANDS =     -5142.68102473
  atomic energy  EATOM  =    131754.67725141
  ---------------------------------------------------
  free energy    TOTEN  =      1514.48022862 eV

  energy without entropy =     1514.50242570  energy(sigma->0) =     1514.49132716
  exchange ACFDT corr.  =      -120.33231826  see jH, gK, PRB 81, 115126


--------------------------------------------------------------------------------------------------------




--------------------------------------- Iteration      1(  10)  ---------------------------------------


    POTLOK:  cpu time      1.5013: real time      1.5011
    SETDIJ:  cpu time      0.4138: real time      0.4138
    TRIAL :  cpu time    228.3968: real time    228.3630
    CORREC:  cpu time    229.9538: real time    229.9510
    CHARGE:  cpu time      0.2032: real time      0.2032
    --------------------------------------------
      LOOP:  cpu time    460.4711: real time    460.4346

 eigenvalue-minimisations  :     0
 total energy-change (2. order) :-0.8956399E+03  (-0.7071678E+03)
 number of electron    1043.9998437 magnetization 
 augmentation part      444.0266235 magnetization 

 Free energy of the ion-electron system (eV)
  ---------------------------------------------------
  alpha Z        PSCENC =      5383.97153279
  Ewald energy   TEWEN  =    -86587.66129471
  -Hartree energ DENC   =    -33807.29507473
  -exchange      EXHF   =      3705.48808571
  -V(xc)+E(xc)   XCENC  =      2854.52436722
  PAW double counting   =    119715.37599176  -134876.78642169
  entropy T*S    EENTRO =        -0.01746443
  eigenvalues    EBANDS =     -7523.43194328
  atomic energy  EATOM  =    131754.67725141
  ---------------------------------------------------
  free energy    TOTEN  =       618.84029740 eV

  energy without entropy =      618.85776184  energy(sigma->0) =      618.84902962
  exchange ACFDT corr.  =       -59.48346896  see jH, gK, PRB 81, 115126


--------------------------------------------------------------------------------------------------------




--------------------------------------- Iteration      1(  11)  ---------------------------------------


    POTLOK:  cpu time      1.4845: real time      1.4843
    SETDIJ:  cpu time      0.4157: real time      0.4156
    TRIAL :  cpu time    228.2612: real time    228.2321
    CORREC:  cpu time    229.8789: real time    229.8516
    CHARGE:  cpu time      0.2030: real time      0.2030
    --------------------------------------------
      LOOP:  cpu time    460.2436: real time    460.1944

 eigenvalue-minimisations  :     0
 total energy-change (2. order) :-0.6988367E+03  (-0.4010443E+03)
 number of electron    1043.9998338 magnetization 
 augmentation part      445.0779747 magnetization 

 Free energy of the ion-electron system (eV)
  ---------------------------------------------------
  alpha Z        PSCENC =      5383.97153279
  Ewald energy   TEWEN  =    -86587.66129471
  -Hartree energ DENC   =    -33398.75478373
  -exchange      EXHF   =      3732.56937287
  -V(xc)+E(xc)   XCENC  =      2847.29839101
  PAW double counting   =    120951.38263078  -135956.92906069
  entropy T*S    EENTRO =        -0.01940334
  eigenvalues    EBANDS =     -8806.53294170
  atomic energy  EATOM  =    131754.67725141
  ---------------------------------------------------
  free energy    TOTEN  =       -79.99636640 eV

  energy without entropy =      -79.97696306  energy(sigma->0) =      -79.98666473
  exchange ACFDT corr.  =        -2.99075907  see jH, gK, PRB 81, 115126


--------------------------------------------------------------------------------------------------------




--------------------------------------- Iteration      1(  12)  ---------------------------------------


    POTLOK:  cpu time      1.4704: real time      1.4701
    SETDIJ:  cpu time      0.4210: real time      0.4209
    TRIAL :  cpu time    228.5322: real time    228.5332
    CORREC:  cpu time    229.7693: real time    229.7572
    CHARGE:  cpu time      0.2022: real time      0.2022
    --------------------------------------------
      LOOP:  cpu time    460.3957: real time    460.3846

 eigenvalue-minimisations  :     0
 total energy-change (2. order) :-0.3913278E+03  (-0.2466714E+03)
 number of electron    1043.9998294 magnetization 
 augmentation part      449.7120659 magnetization 

 Free energy of the ion-electron system (eV)
  ---------------------------------------------------
  alpha Z        PSCENC =      5383.97153279
  Ewald energy   TEWEN  =    -86587.66129471
  -Hartree energ DENC   =    -33416.99873154
  -exchange      EXHF   =      3761.42896139
  -V(xc)+E(xc)   XCENC  =      2852.59419224
  PAW double counting   =    122019.92931660  -137203.51849253
  entropy T*S    EENTRO =        -0.02081675
  eigenvalues    EBANDS =     -9035.72749145
  atomic energy  EATOM  =    131754.67725141
  ---------------------------------------------------
  free energy    TOTEN  =      -471.32415913 eV

  energy without entropy =     -471.30334238  energy(sigma->0) =     -471.31375075
  exchange ACFDT corr.  =        -0.59677080  see jH, gK, PRB 81, 115126


--------------------------------------------------------------------------------------------------------




--------------------------------------- Iteration      1(  13)  ---------------------------------------


    POTLOK:  cpu time      1.4715: real time      1.4713
    SETDIJ:  cpu time      0.4325: real time      0.4324
    TRIAL :  cpu time    228.3818: real time    228.3772
    CORREC:  cpu time    229.1876: real time    229.1613
    CHARGE:  cpu time      0.2124: real time      0.2124
    --------------------------------------------
      LOOP:  cpu time    459.6861: real time    459.6553

 eigenvalue-minimisations  :     0
 total energy-change (2. order) :-0.2485021E+03  (-0.1179876E+03)
 number of electron    1043.9998331 magnetization 
 augmentation part      451.2199862 magnetization 

 Free energy of the ion-electron system (eV)
  ---------------------------------------------------
  alpha Z        PSCENC =      5383.97153279
  Ewald energy   TEWEN  =    -86587.66129471
  -Hartree energ DENC   =    -34047.59113671
  -exchange      EXHF   =      3817.06043796
  -V(xc)+E(xc)   XCENC  =      2881.70130359
  PAW double counting   =    121150.25336716  -136534.13843256
  entropy T*S    EENTRO =        -0.00478922
  eigenvalues    EBANDS =     -8538.07849888
  atomic energy  EATOM  =    131754.67725141
  ---------------------------------------------------
  free energy    TOTEN  =      -719.82628669 eV

  energy without entropy =     -719.82149748  energy(sigma->0) =     -719.82389208
  exchange ACFDT corr.  =        -0.21641106  see jH, gK, PRB 81, 115126


--------------------------------------------------------------------------------------------------------




--------------------------------------- Iteration      1(  14)  ---------------------------------------


    POTLOK:  cpu time      1.4822: real time      1.4820
    SETDIJ:  cpu time      0.4138: real time      0.4137
    TRIAL :  cpu time    228.1998: real time    228.1754
    CORREC:  cpu time    229.5871: real time    229.5701
    CHARGE:  cpu time      0.2031: real time      0.2030
    --------------------------------------------
      LOOP:  cpu time    459.8861: real time    459.8446

 eigenvalue-minimisations  :     0
 total energy-change (2. order) :-0.1168441E+03  (-0.5950192E+02)
 number of electron    1043.9998360 magnetization 
 augmentation part      451.7359898 magnetization 

 Free energy of the ion-electron system (eV)
  ---------------------------------------------------
  alpha Z        PSCENC =      5383.97153279
  Ewald energy   TEWEN  =    -86587.66129471
  -Hartree energ DENC   =    -34152.83222955
  -exchange      EXHF   =      3845.93220084
  -V(xc)+E(xc)   XCENC  =      2893.43069043
  PAW double counting   =    119801.82923824  -135027.46310269
  entropy T*S    EENTRO =        -0.00271145
  eigenvalues    EBANDS =     -8748.54992090
  atomic energy  EATOM  =    131754.67725141
  ---------------------------------------------------
  free energy    TOTEN  =      -836.67042337 eV

  energy without entropy =     -836.66771191  energy(sigma->0) =     -836.66906764
  exchange ACFDT corr.  =        -0.02573931  see jH, gK, PRB 81, 115126


--------------------------------------------------------------------------------------------------------




[...]
   -.257E+02 0.123E+03 -.797E+02   0.255E+02 -.121E+03 0.823E+02   0.107E+00 -.177E+01 -.243E+01
   0.178E+02 0.797E+02 -.192E+02   -.175E+02 -.785E+02 0.198E+02   -.238E+00 -.107E+01 -.605E+00
   0.257E+02 0.123E+03 -.797E+02   -.255E+02 -.121E+03 0.823E+02   -.107E+00 -.177E+01 -.243E+01
   -.121E-03 0.740E+02 -.261E+02   -.284E-10 -.719E+02 0.273E+02   0.000E+00 -.186E+01 -.117E+01
   -.137E-03 0.964E+02 -.595E+02   -.110E-10 -.944E+02 0.618E+02   0.000E+00 -.182E+01 -.212E+01
   -.265E+02 -.365E+02 0.706E+02   0.263E+02 0.450E+02 -.748E+02   0.186E+00 -.734E+01 0.357E+01
   -.257E+02 -.597E+02 -.238E+02   0.254E+02 0.672E+02 0.193E+02   0.295E+00 -.637E+01 0.389E+01
   0.265E+02 -.365E+02 0.706E+02   -.263E+02 0.450E+02 -.748E+02   -.186E+00 -.734E+01 0.357E+01
   0.257E+02 -.597E+02 -.238E+02   -.254E+02 0.672E+02 0.193E+02   -.295E+00 -.637E+01 0.389E+01
   -.112E-02 -.324E+02 0.355E+02   -.317E-10 0.404E+02 -.390E+02   0.000E+00 -.694E+01 0.299E+01
   -.172E-02 -.393E+02 0.398E+01   -.328E-10 0.467E+02 -.853E+01   0.000E+00 -.636E+01 0.395E+01
   -.392E+01 0.308E+02 -.131E+02   0.374E+01 -.385E+02 0.168E+02   0.154E+00 0.664E+01 -.321E+01
   -.186E+01 0.258E+02 -.189E+02   0.179E+01 -.335E+02 0.228E+02   0.642E-01 0.661E+01 -.329E+01
   0.205E-03 0.544E+02 -.201E+02   -.239E-11 -.646E+02 0.246E+02   0.000E+00 0.877E+01 -.380E+01
   0.115E-03 0.264E+02 -.198E+02   -.379E-10 -.343E+02 0.236E+02   0.000E+00 0.675E+01 -.326E+01
   0.392E+01 0.308E+02 -.131E+02   -.374E+01 -.385E+02 0.168E+02   -.154E+00 0.664E+01 -.321E+01
   0.186E+01 0.258E+02 -.189E+02   -.179E+01 -.335E+02 0.228E+02   -.642E-01 0.661E+01 -.329E+01
   -.494E+01 0.416E+02 0.487E+02   0.486E+01 -.387E+02 -.447E+02   0.638E-01 -.251E+01 -.339E+01
   -.415E+01 0.591E+02 0.392E+02   0.415E+01 -.571E+02 -.345E+02   0.279E-02 -.171E+01 -.400E+01
   0.494E+01 0.416E+02 0.487E+02   -.486E+01 -.387E+02 -.447E+02   -.638E-01 -.251E+01 -.339E+01
   0.415E+01 0.591E+02 0.392E+02   -.415E+01 -.571E+02 -.345E+02   -.279E-02 -.171E+01 -.400E+01
   -.201E-02 0.504E+02 0.443E+02   -.176E-10 -.474E+02 -.401E+02   0.000E+00 -.254E+01 -.365E+01
   -.337E-03 0.602E+02 0.393E+02   -.101E-10 -.580E+02 -.348E+02   0.000E+00 -.194E+01 -.391E+01
   -.217E+02 -.899E+02 -.134E+02   0.223E+02 0.877E+02 0.808E+01   -.487E+00 0.192E+01 0.453E+01
   -.921E+01 -.834E+02 -.384E+02   0.956E+01 0.818E+02 0.335E+02   -.312E+00 0.140E+01 0.428E+01
   0.362E-02 -.120E+03 0.380E+01   -.275E-10 0.118E+03 -.880E+01   0.000E+00 0.199E+01 0.425E+01
   0.652E-03 -.918E+02 -.462E+02   -.235E-10 0.908E+02 0.421E+02   0.000E+00 0.796E+00 0.358E+01
   0.217E+02 -.899E+02 -.134E+02   -.223E+02 0.877E+02 0.808E+01   0.487E+00 0.192E+01 0.453E+01
   0.921E+01 -.834E+02 -.384E+02   -.956E+01 0.818E+02 0.335E+02   0.312E+00 0.140E+01 0.428E+01
   -.190E+02 0.930E+02 0.524E+02   0.193E+02 -.107E+03 -.479E+02   -.222E+00 0.118E+02 -.386E+01
   -.733E+01 0.109E+03 0.714E+02   0.732E+01 -.122E+03 -.678E+02   -.100E-01 0.108E+02 -.306E+01
   0.407E-02 0.608E+02 0.497E+02   -.298E-10 -.755E+02 -.454E+02   0.000E+00 0.128E+02 -.366E+01
   0.424E-03 0.101E+03 0.843E+02   -.306E-10 -.112E+03 -.822E+02   0.000E+00 0.983E+01 -.178E+01
   0.190E+02 0.931E+02 0.524E+02   -.193E+02 -.107E+03 -.479E+02   0.222E+00 0.118E+02 -.386E+01
   0.732E+01 0.109E+03 0.714E+02   -.732E+01 -.122E+03 -.678E+02   0.100E-01 0.108E+02 -.306E+01
   -.561E+01 -.134E+03 -.528E+02   0.565E+01 0.147E+03 0.490E+02   -.357E-01 -.108E+02 0.330E+01
   -.290E+01 -.125E+03 -.710E+02   0.271E+01 0.137E+03 0.683E+02   0.165E+00 -.104E+02 0.233E+01
   0.561E+01 -.134E+03 -.528E+02   -.565E+01 0.147E+03 0.490E+02   0.357E-01 -.108E+02 0.330E+01
   0.290E+01 -.125E+03 -.710E+02   -.271E+01 0.137E+03 0.683E+02   -.165E+00 -.104E+02 0.233E+01
   -.121E-02 -.127E+03 -.565E+02   -.282E-10 0.140E+03 0.525E+02   0.000E+00 -.107E+02 0.338E+01
   -.924E-03 -.121E+03 -.673E+02   -.724E-11 0.134E+03 0.639E+02   0.000E+00 -.106E+02 0.286E+01
   -.346E+01 -.119E+02 0.154E+02   0.357E+01 0.193E+02 -.187E+02   -.948E-01 -.631E+01 0.282E+01
   -.474E+01 -.119E+00 0.609E+01   0.477E+01 0.698E+01 -.102E+02   -.203E-01 -.592E+01 0.355E+01
   0.155E-03 -.660E+01 0.201E+02   -.120E-10 0.137E+02 -.234E+02   0.000E+00 -.613E+01 0.290E+01
   0.330E-04 0.458E+01 0.132E+01   -.237E-11 0.270E+01 -.548E+01   0.000E+00 -.629E+01 0.359E+01
   0.346E+01 -.119E+02 0.154E+02   -.357E+01 0.193E+02 -.187E+02   0.948E-01 -.631E+01 0.282E+01
   0.474E+01 -.118E+00 0.609E+01   -.477E+01 0.698E+01 -.102E+02   0.203E-01 -.592E+01 0.355E+01
   -.235E+03 -.158E+03 0.372E+02   0.258E+03 0.166E+03 -.360E+02   -.195E+02 -.680E+01 -.992E+00
   -.340E+01 0.545E+01 -.142E+02   0.309E+01 -.123E+02 0.180E+02   0.258E+00 0.593E+01 -.320E+01
   0.235E+03 -.158E+03 0.372E+02   -.258E+03 0.166E+03 -.360E+02   0.195E+02 -.680E+01 -.992E+00
   0.340E+01 0.545E+01 -.142E+02   -.309E+01 -.123E+02 0.180E+02   -.258E+00 0.593E+01 -.320E+01
   -.799E-02 -.293E+02 0.345E+01   -.512E-11 0.261E+02 -.121E+01   0.000E+00 0.271E+01 -.194E+01
   -.428E-03 0.792E+01 -.147E+02   -.527E-11 -.148E+02 0.183E+02   0.000E+00 0.593E+01 -.315E+01
   -.319E+02 0.962E+02 0.752E+02   0.313E+02 -.943E+02 -.716E+02   0.490E+00 -.166E+01 -.320E+01
   -.181E+02 0.743E+02 0.617E+01   0.191E+02 -.731E+02 -.529E-01   -.864E+00 -.109E+01 -.524E+01
   0.368E-02 0.278E+03 0.248E+03   -.190E-10 -.295E+03 -.259E+03   0.000E+00 0.141E+02 0.982E+01
   0.588E-03 0.732E+02 -.948E+01   -.122E-10 -.715E+02 0.155E+02   0.000E+00 -.139E+01 -.502E+01
   0.319E+02 0.962E+02 0.752E+02   -.313E+02 -.943E+02 -.716E+02   -.490E+00 -.166E+01 -.320E+01
   0.181E+02 0.743E+02 0.617E+01   -.191E+02 -.731E+02 -.529E-01   0.864E+00 -.109E+01 -.524E+01
   -.235E+02 -.325E+02 -.154E+02   0.250E+02 0.301E+02 0.974E+01   -.130E+01 0.204E+01 0.489E+01
   -.950E+01 -.323E+02 -.689E+02   0.946E+01 0.296E+02 0.642E+02   0.924E-01 0.226E+01 0.411E+01
   0.235E+02 -.325E+02 -.154E+02   -.250E+02 0.301E+02 0.974E+01   0.130E+01 0.204E+01 0.489E+01
   0.950E+01 -.323E+02 -.689E+02   -.946E+01 0.296E+02 0.642E+02   -.924E-01 0.226E+01 0.411E+01
   -.224E-03 -.424E+02 -.311E+02   -.488E-11 0.401E+02 0.264E+02   0.000E+00 0.198E+01 0.404E+01
   -.225E-04 -.460E+02 -.573E+02   -.190E-10 0.436E+02 0.528E+02   0.000E+00 0.199E+01 0.390E+01
   -.290E+02 0.190E+03 0.468E+02   0.284E+02 -.202E+03 -.430E+02   0.503E+00 0.105E+02 -.334E+01
   -.380E+01 0.133E+03 0.596E+02   0.385E+01 -.145E+03 -.565E+02   -.368E-01 0.106E+02 -.264E+01
   0.290E+02 0.190E+03 0.468E+02   -.284E+02 -.202E+03 -.430E+02   -.503E+00 0.105E+02 -.334E+01
   0.380E+01 0.133E+03 0.596E+02   -.385E+01 -.145E+03 -.565E+02   0.368E-01 0.106E+02 -.264E+01
   -.310E-03 0.153E+03 0.567E+02   -.678E-11 -.165E+03 -.527E+02   0.000E+00 0.107E+02 -.346E+01
   -.874E-04 0.132E+03 0.600E+02   -.202E-10 -.144E+03 -.566E+02   0.000E+00 0.107E+02 -.288E+01
   -.158E+02 -.103E+03 -.456E+02   0.168E+02 0.114E+03 0.410E+02   -.878E+00 -.999E+01 0.396E+01
   -.308E+02 -.111E+03 -.105E+03   0.296E+02 0.124E+03 0.103E+03   0.108E+01 -.111E+02 0.176E+01
   -.219E-03 -.101E+03 -.326E+02   -.234E-10 0.114E+03 0.274E+02   0.000E+00 -.109E+02 0.454E+01
   -.120E-03 -.431E+02 -.354E+03   -.374E-11 0.540E+02 0.374E+03   0.000E+00 -.920E+01 -.172E+02
   0.158E+02 -.103E+03 -.456E+02   -.168E+02 0.114E+03 0.410E+02   0.878E+00 -.999E+01 0.396E+01
   0.308E+02 -.111E+03 -.105E+03   -.296E+02 0.124E+03 0.103E+03   -.108E+01 -.111E+02 0.176E+01
 -----------------------------------------------------------------------------------------------
   -.101E+00 0.114E+02 -.626E+01   -.313E-12 0.117E-11 -.213E-12   -.133E-14 -.952E+01 0.534E+01
 
 
 POSITION                                       TOTAL-FORCE (eV/Angst)
 -----------------------------------------------------------------------------------
      9.14152      7.66352     -1.77791        -0.001516      0.040045      0.023194
      0.00111      6.27613     -7.42631        -0.003059      0.078488      0.007388
      3.04757      7.65987     -1.77524        -0.000000      0.053688      0.024191
      3.04757      6.28385     -7.42258        -0.000000      0.081989      0.003549
      6.09632      7.66352     -1.77791         0.001516      0.040045      0.023194
      6.09403      6.27613     -7.42631         0.003059      0.078488      0.007388
      1.53342      9.40735     -3.89255         0.046452     -0.307520      0.036762
      1.53017      7.99317     -9.54322         0.012254     -0.010718     -0.058972
      4.56171      9.40735     -3.89255        -0.046452     -0.307520      0.036762
      4.56496      7.99317     -9.54322        -0.012254     -0.010718     -0.058972
      7.61892      9.41607     -3.87943        -0.000000     -0.162202      0.010081
      7.61892      8.00129     -9.53201        -0.000000     -0.065436     -0.034407
      1.53550      6.14907     -4.48584        -0.017354     -0.050438      0.011792
      1.52375      4.75800    -10.14367         0.004565     -0.009747     -0.005096
      4.55964      6.14907     -4.48584         0.017354     -0.050438      0.011792
      4.57138      4.75800    -10.14367        -0.004565     -0.009747     -0.005096
      7.61892      6.18741     -4.49700        -0.000000     -0.054134      0.023816
      7.61892      4.76391    -10.14175        -0.000000     -0.013810      0.000151
      9.13528     10.87511     -1.15915         0.066311      0.099441      0.042801
      9.13840      9.48062     -6.79786         0.007716     -0.000264     -0.076267
      3.04757     10.89698     -1.21822        -0.000000      0.143728      0.025557
      3.04757      9.50247     -6.77690        -0.000000     -0.020900     -0.081175
      6.10256     10.87511     -1.15915        -0.066311      0.099441      0.042801
      6.09944      9.48062     -6.79786        -0.007716     -0.000264     -0.076267
      1.54532      1.52669     -1.82664         0.081616      0.005808      0.050924
      1.54415      0.13586     -7.34574        -0.341786     -0.110897     -0.192226
      4.54982      1.52669     -1.82664        -0.081616      0.005808      0.050924
      4.55098      0.13586     -7.34574         0.341786     -0.110897     -0.192226
      7.61892      1.51714     -1.79066        -0.000000      0.073975      0.054292
      7.61892      0.12485     -7.39421        -0.000000      0.041805     -0.048900
      9.13969      3.25278     -3.87770         0.029836     -0.039514      0.007207
      0.00084      1.83184     -9.51594        -0.018665     -0.078055     -0.075753
      3.04757      3.14561     -3.91454        -0.000000     -0.105194      0.008473
      3.04757      1.82654     -9.52255        -0.000000     -0.038474     -0.135265
      6.09814      3.25278     -3.87770        -0.029836     -0.039514      0.007207
      6.09429      1.83184     -9.51594         0.018665     -0.078055     -0.075753
      0.07963     -0.00713     -4.47394        -0.170237      0.275409     -0.004456
      0.00076     -1.35268    -10.15287         0.049558     -0.090967     -0.020890
      3.04757     -1.37278    -10.13610        -0.000000     -0.117827     -0.104666
      6.01550     -0.00713     -4.47394         0.170237      0.275409     -0.004456
      6.09438     -1.35268    -10.15287        -0.049558     -0.090967     -0.020890
      1.52028      4.74330     -1.15740         0.000841     -0.000312     -0.028005
      1.52471      3.36149     -6.81507        -0.036645      0.111502      0.042698
      4.57486      4.74330     -1.15740        -0.000841     -0.000312     -0.028005
      4.57043      3.36149     -6.81507         0.036645      0.111502      0.042698
      7.61892      4.73927     -1.15088        -0.000000      0.026534     -0.020540
      7.61892      3.35920     -6.80835        -0.000000      0.048156      0.001904
      1.50894     11.88000     -1.46406        -0.028035     -0.245405      0.092988
      1.51782     10.48545     -7.07818         0.034675     -0.087199      0.171663
      4.58619     11.88000     -1.46406         0.028035     -0.245405      0.092988
      4.57732     10.48545     -7.07818        -0.034675     -0.087199      0.171663
      7.61892     11.88420     -1.43329        -0.000000     -0.209898      0.083174
      7.61892     10.48397     -7.09457        -0.000000     -0.157768      0.162362
      9.13464      5.17442     -4.21654         0.004479      0.187204     -0.118574
      9.14109      3.75631     -9.85530         0.005490      0.171139     -0.104518
      3.04757      5.12521     -4.21185        -0.000000      0.270532     -0.140010
      3.04757      3.75358     -9.86007        -0.000000      0.175213     -0.102600
      6.10319      5.17442     -4.21654        -0.004479      0.187204     -0.118574
      6.09675      3.75631     -9.85530        -0.005490      0.171139     -0.104518
      1.52125      7.48461     -3.16861         0.002493     -0.046523     -0.098545
      1.53016      6.10151     -8.83474        -0.003894     -0.045005     -0.101168
      4.57388      7.48461     -3.16861        -0.002493     -0.046523     -0.098545
      4.56498      6.10151     -8.83474         0.003894     -0.045005     -0.101168
      7.61892      7.49414     -3.16350        -0.000000     -0.046534     -0.099153
      7.61892      6.10015     -8.82902        -0.000000     -0.051954     -0.098411
      9.12987      9.54624     -2.46749         0.017553      0.089710      0.034026
      0.00159      8.16519     -8.13498        -0.017938      0.030369      0.144902
      3.04757      9.52811     -2.47309        -0.000000      0.059694      0.025136
      3.04757      8.17818     -8.13168        -0.000000      0.003822      0.132489
      6.10796      9.54624     -2.46749        -0.017553      0.089710      0.034026
      6.09355      8.16519     -8.13498         0.017938      0.030369      0.144902
      9.13170      8.95145     -5.03672         0.038425      0.505931     -0.059155
      9.14171      7.60409    -10.68918        -0.017472      0.383124     -0.069908
      3.04757      8.90982     -5.03977        -0.000000      0.536082     -0.064477
      3.04757      7.63763    -10.72238        -0.000000      0.330255     -0.009283
      6.10613      8.95145     -5.03672        -0.038425      0.505931     -0.059155
      6.09613      7.60409    -10.68918         0.017472      0.383124     -0.069908
      1.52236      8.04520     -0.60702        -0.002191     -0.393372      0.069072
      1.52335      6.65238     -6.26602         0.008057     -0.381124      0.054407
      4.57277      8.04520     -0.60702         0.002191     -0.393372      0.069072
      4.57179      6.65238     -6.26602        -0.008057     -0.381124      0.054407
      7.61892      8.04974     -0.60452        -0.000000     -0.387810      0.066486
      7.61892      6.67013     -6.27565        -0.000000     -0.385527      0.069439
      9.13734      5.75408     -1.42223        -0.000951     -0.171872      0.100086
      9.14074      4.36304     -7.11094         0.006569     -0.177660      0.123358
      3.04757      5.74867     -1.42588        -0.000000     -0.155160      0.103052
      3.04757      4.36458     -7.11030        -0.000000     -0.203139      0.126193
      6.10049      5.75408     -1.42223         0.000951     -0.171872      0.100086
      6.09709      4.36304     -7.11094        -0.006569     -0.177660      0.123358
      1.56355     -1.01548     -4.19242        -0.308626     -0.092261     -0.085161
      1.51765     -2.37449     -9.86028         0.001153      0.185526     -0.097984
      4.53159     -1.01548     -4.19242         0.308626     -0.092261     -0.085161
      4.57749     -2.37449     -9.86028        -0.001153      0.185526     -0.097984
      7.61892     -0.96330     -4.22150        -0.000000      0.038798     -0.077282
      7.61892     -2.36549     -9.86695        -0.000000      0.173804     -0.105172
      9.13461      1.35466     -3.17977         0.021672     -0.099174     -0.127278
      0.00348     -0.04832     -8.80763        -0.026711      0.015024     -0.113894
      3.04757      1.39970     -3.08409        -0.000000      0.459026      0.243782
      3.04757     -0.05068     -8.82623        -0.000000      0.096748      0.101416
      6.10323      1.35466     -3.17977        -0.021672     -0.099174     -0.127278
      6.09165     -0.04832     -8.80763         0.026711      0.015024     -0.113894
      1.48714      3.44944     -2.48699        -0.029320      0.019631      0.112582
      1.52346      2.03229     -8.13119         0.080980     -0.039284      0.229863
      4.60800      3.44944     -2.48699         0.029320      0.019631      0.112582
      4.57167      2.03229     -8.13119        -0.080980     -0.039284      0.229863
      7.61892      3.42578     -2.47839        -0.000000      0.034120      0.097184
      7.61892      2.02340     -8.12143        -0.000000      0.028274      0.131556
      1.50101      2.88276     -5.05017         0.031464      0.349006     -0.116743
      1.52015      1.46317    -10.68715        -0.001908      0.393003     -0.018068
      4.59412      2.88276     -5.05017        -0.031464      0.349006     -0.116743
      4.57498      1.46317    -10.68715         0.001908      0.393003     -0.018068
      7.61892      2.88057     -5.03916        -0.000000      0.371495     -0.094356
      7.61892      1.45030    -10.68237        -0.000000      0.392811     -0.050710
      0.00985      1.89706     -0.62776        -0.053447     -0.351238      0.092196
      9.13813      0.52177     -6.24912         0.121102     -0.435332      0.069828
      3.04757      1.92866     -0.58836        -0.000000     -0.380456      0.106250
      3.04757      0.56903     -6.27394        -0.000000     -0.237285     -0.224278
      6.08529      1.89706     -0.62776         0.053447     -0.351238      0.092196
      6.09971      0.52177     -6.24912        -0.121102     -0.435332      0.069828
 -----------------------------------------------------------------------------------
    total drift:                               -0.100635      0.004645      0.030306


--------------------------------------------------------------------------------------------------------



  FREE ENERGIE OF THE ION-ELECTRON SYSTEM (eV)
  ---------------------------------------------------
  free  energy   TOTEN  =      -938.57364705 eV

  energy  without entropy=     -938.57364705  energy(sigma->0) =     -938.57364705
 


--------------------------------------------------------------------------------------------------------


    POTLOK:  cpu time      1.9082: real time      1.9150


--------------------------------------------------------------------------------------------------------


 writing wavefunctions
     LOOP+:  cpu time  29059.8891: real time  29061.1465
    4ORBIT:  cpu time      0.0000: real time      0.0000

 total amount of memory used by VASP MPI-rank0  7417623. kBytes
=======================================================================

   base      :      30000. kBytes
   nonlr-proj:      46649. kBytes
   fftplans  :      51012. kBytes
   grid      :      90980. kBytes
   one-center:       1850. kBytes
   HF        :        129. kBytes
   wavefun   :    6967770. kBytes
   fock_wrk  :     229233. kBytes
 
  
  
 General timing and accounting informations for this job:
 ========================================================
  
                  Total CPU time used (sec):    29090.877
                            User time (sec):    29066.847
                          System time (sec):       24.030
                         Elapsed time (sec):    29094.490
  
                   Maximum memory used (kb):    13194880.
                   Average memory used (kb):          N/A
  
                          Minor page faults:     13900892
                          Major page faults:            4
                 Voluntary context switches:       547246
