<?xml version="1.0" encoding="ISO-8859-1"?>
<modeling>
 <generator>
  <i name="program" type="string">vasp </i>
  <i name="version" type="string">6.4.2  </i>
  <i name="subversion" type="string">20Jul23 (build Nov 12 2023 22:16:35) complex                          parallel </i>
  <i name="platform" type="string">LinuxNV </i>
  <i name="date" type="string">2025 03 21 </i>
  <i name="time" type="string">23:10:40 </i>
 </generator>
 <incar>
  <i type="int" name="ISTART">     0</i>
  <i type="string" name="PREC">Normal</i>
  <i type="string" name="ALGO">All</i>
  <i type="int" name="ISPIN">     1</i>
  <i type="int" name="ICHARG">     0</i>
  <i type="int" name="NELM">   500</i>
  <i type="int" name="IBRION">    -1</i>
  <i name="EDIFF">      0.00001000</i>
  <i name="EDIFFG">     -0.00500000</i>
  <i type="int" name="NSW">     0</i>
  <i type="int" name="ISIF">     2</i>
  <i name="ENCUT">    450.00000000</i>
  <i name="NELECT">   1044.00000000</i>
  <i type="string" name="LREAL">Auto</i>
  <i type="logical" name="LPLANE"> T  </i>
  <i name="TIME">      0.40000000</i>
  <i type="int" name="ISMEAR">     0</i>
  <i name="SIGMA">      0.05000000</i>
  <i type="logical" name="LWAVE"> T  </i>
  <i type="logical" name="LCHARG"> T  </i>
  <i name="HFSCREEN">      0.20000000</i>
  <i type="logical" name="LHFCALC"> T  </i>
  <i type="int" name="LMAXFOCK">     4</i>
  <i name="AEXX">      0.32000000</i>
  <i type="string" name="PRECFOCK">Fast</i>
 </incar>
 <primitive_cell>
  <structure name="primitive_cell" >
   <crystal>
    <varray name="basis" >
     <v>       0.00000000      12.28047342       0.00000000 </v>
     <v>       9.14270205       0.00000000       0.00000000 </v>
     <v>       0.00000000      -2.76826177     -11.30069772 </v>
    </varray>
    <i name="volume">   1268.80515525 </i>
    <varray name="rec_basis" >
     <v>       0.00000000       0.08143009      -0.01994742 </v>
     <v>       0.10937686      -0.00000000       0.00000000 </v>
     <v>       0.00000000       0.00000000      -0.08849011 </v>
    </varray>
   </crystal>
   <varray name="positions" >
    <v>       0.65950564       0.99987060       0.15732782 </v>
    <v>       0.65920166       0.00012126       0.65715483 </v>
    <v>       0.65915564       0.33333333       0.15709118 </v>
    <v>       0.65975602       0.33333333       0.65682507 </v>
    <v>       0.65950564       0.66679606       0.15732782 </v>
    <v>       0.65920166       0.66654541       0.65715483 </v>
    <v>       0.84368769       0.16772090       0.34445246 </v>
    <v>       0.84124712       0.16736567       0.84448056 </v>
    <v>       0.84368769       0.49894577       0.34445246 </v>
    <v>       0.84124712       0.49930099       0.84448056 </v>
    <v>       0.84413649       0.83333333       0.34329151 </v>
    <v>       0.84168509       0.83333333       0.84348867 </v>
    <v>       0.59020058       0.16794783       0.39695254 </v>
    <v>       0.58978447       0.16666301       0.89761410 </v>
    <v>       0.59020058       0.49871883       0.39695254 </v>
    <v>       0.58978447       0.50000366       0.89761410 </v>
    <v>       0.59354475       0.83333333       0.39794029 </v>
    <v>       0.59022782       0.83333333       0.89744497 </v>
    <v>       0.90868348       0.99918805       0.10257350 </v>
    <v>       0.90760717       0.99952909       0.60154297 </v>
    <v>       0.91164212       0.33333333       0.10780010 </v>
    <v>       0.90896863       0.33333333       0.59968866 </v>
    <v>       0.90868348       0.66747861       0.10257350 </v>
    <v>       0.90760717       0.66713757       0.60154297 </v>
    <v>       0.16075526       0.16902173       0.16163983 </v>
    <v>       0.15759195       0.16889464       0.65002564 </v>
    <v>       0.16075526       0.49764494       0.16163983 </v>
    <v>       0.15759195       0.49777203       0.65002564 </v>
    <v>       0.15925978       0.83333333       0.15845546 </v>
    <v>       0.15766232       0.83333333       0.65431470 </v>
    <v>       0.34222450       0.99967084       0.34313768 </v>
    <v>       0.33898565       0.00009187       0.84206641 </v>
    <v>       0.33423214       0.33333333       0.34639779 </v>
    <v>       0.33868561       0.33333333       0.84265137 </v>
    <v>       0.34222450       0.66699582       0.34313768 </v>
    <v>       0.33898565       0.66657480       0.84206641 </v>
    <v>       0.08866343       0.00871014       0.39589971 </v>
    <v>       0.09237471       0.00008299       0.89842851 </v>
    <v>       0.09040357       0.33333333       0.89694441 </v>
    <v>       0.08866343       0.65795653       0.39589971 </v>
    <v>       0.09237471       0.66658367       0.89842851 </v>
    <v>       0.40933474       0.16628299       0.10241828 </v>
    <v>       0.40966946       0.16676794       0.60306629 </v>
    <v>       0.40933474       0.50038368       0.10241828 </v>
    <v>       0.40966946       0.49989872       0.60306629 </v>
    <v>       0.40887644       0.83333333       0.10184165 </v>
    <v>       0.40934894       0.83333333       0.60247151 </v>
    <v>       0.99659370       0.16504344       0.12955511 </v>
    <v>       0.99502256       0.16601432       0.62634869 </v>
    <v>       0.99659370       0.50162323       0.12955511 </v>
    <v>       0.99502256       0.50065235       0.62634869 </v>
    <v>       0.99632168       0.83333333       0.12683215 </v>
    <v>       0.99522874       0.83333333       0.62779921 </v>
    <v>       0.50546252       0.99911870       0.37312199 </v>
    <v>       0.50246438       0.99982323       0.87209662 </v>
    <v>       0.50136161       0.33333333       0.37270729 </v>
    <v>       0.50233698       0.33333333       0.87251843 </v>
    <v>       0.50546252       0.66754797       0.37312199 </v>
    <v>       0.50246438       0.66684344       0.87209662 </v>
    <v>       0.67267785       0.16639006       0.28039059 </v>
    <v>       0.67307697       0.16736396       0.78178687 </v>
    <v>       0.67267785       0.50027660       0.28039059 </v>
    <v>       0.67307697       0.49930271       0.78178687 </v>
    <v>       0.67335193       0.83333333       0.27993820 </v>
    <v>       0.67285196       0.83333333       0.78128114 </v>
    <v>       0.82657149       0.99859699       0.21834837 </v>
    <v>       0.82716367       0.00017368       0.71986519 </v>
    <v>       0.82520628       0.33333333       0.21884405 </v>
    <v>       0.82815580       0.33333333       0.71957319 </v>
    <v>       0.82657149       0.66806968       0.21834837 </v>
    <v>       0.82716367       0.66649299       0.71986519 </v>
    <v>       0.82938711       0.99879686       0.44570030 </v>
    <v>       0.83242345       0.99989140       0.94588709 </v>
    <v>       0.82605774       0.33333333       0.44597021 </v>
    <v>       0.83581692       0.33333333       0.94882473 </v>
    <v>       0.82938711       0.66786980       0.44570030 </v>
    <v>       0.83242345       0.66677527       0.94588709 </v>
    <v>       0.66722998       0.16651132       0.05371531 </v>
    <v>       0.66669463       0.16661915       0.55448038 </v>
    <v>       0.66722998       0.50015535       0.05371531 </v>
    <v>       0.66669463       0.50004752       0.55448038 </v>
    <v>       0.66754975       0.83333333       0.05349405 </v>
    <v>       0.66833230       0.83333333       0.55533313 </v>
    <v>       0.49692493       0.99941392       0.12585356 </v>
    <v>       0.49712768       0.99978574       0.62924797 </v>
    <v>       0.49655722       0.33333333       0.12617654 </v>
    <v>       0.49724046       0.33333333       0.62919096 </v>
    <v>       0.49692493       0.66725274       0.12585356 </v>
    <v>       0.49712768       0.66688093       0.62924797 </v>
    <v>       0.00093721       0.17101579       0.37098801 </v>
    <v>       0.00333265       0.16599557       0.87253757 </v>
    <v>       0.00093721       0.49565087       0.37098801 </v>
    <v>       0.00333265       0.50067110       0.87253757 </v>
    <v>       0.00576637       0.83333333       0.37356113 </v>
    <v>       0.00419804       0.83333333       0.87312755 </v>
    <v>       0.17373867       0.99911476       0.28137826 </v>
    <v>       0.17175495       0.00038062       0.77938856 </v>
    <v>       0.17549691       0.33333333       0.27291109 </v>
    <v>       0.17193350       0.33333333       0.78103451 </v>
    <v>       0.17373867       0.66755191       0.28137826 </v>
    <v>       0.17175495       0.66628604       0.77938856 </v>
    <v>       0.33049739       0.16265833       0.22007396 </v>
    <v>       0.32768552       0.16663135       0.71953007 </v>
    <v>       0.33049739       0.50400834       0.22007396 </v>
    <v>       0.32768552       0.50003532       0.71953007 </v>
    <v>       0.32839893       0.83333333       0.21931272 </v>
    <v>       0.32676720       0.83333333       0.71866639 </v>
    <v>       0.33548154       0.16417608       0.44689050 </v>
    <v>       0.33232679       0.16626949       0.94570690 </v>
    <v>       0.33548154       0.50249058       0.44689050 </v>
    <v>       0.33232679       0.50039718       0.94570690 </v>
    <v>       0.33508359       0.83333333       0.44591601 </v>
    <v>       0.33118345       0.83333333       0.94528369 </v>
    <v>       0.16700028       0.00107724       0.05555075 </v>
    <v>       0.16714177       0.99950009       0.55298523 </v>
    <v>       0.16878754       0.33333333       0.05206405 </v>
    <v>       0.17148493       0.33333333       0.55518131 </v>
    <v>       0.16700028       0.66558943       0.05555075 </v>
    <v>       0.16714177       0.66716658       0.55298523 </v>
   </varray>
  </structure>
  <varray name="primitive_index" >
   <v type="int" >        1 </v>
   <v type="int" >        2 </v>
   <v type="int" >        3 </v>
   <v type="int" >        4 </v>
   <v type="int" >        5 </v>
   <v type="int" >        6 </v>
   <v type="int" >        7 </v>
   <v type="int" >        8 </v>
   <v type="int" >        9 </v>
   <v type="int" >       10 </v>
   <v type="int" >       11 </v>
   <v type="int" >       12 </v>
   <v type="int" >       13 </v>
   <v type="int" >       14 </v>
   <v type="int" >       15 </v>
   <v type="int" >       16 </v>
   <v type="int" >       17 </v>
   <v type="int" >       18 </v>
   <v type="int" >       19 </v>
   <v type="int" >       20 </v>
   <v type="int" >       21 </v>
   <v type="int" >       22 </v>
   <v type="int" >       23 </v>
   <v type="int" >       24 </v>
   <v type="int" >       25 </v>
   <v type="int" >       26 </v>
   <v type="int" >       27 </v>
   <v type="int" >       28 </v>
   <v type="int" >       29 </v>
   <v type="int" >       30 </v>
   <v type="int" >       31 </v>
   <v type="int" >       32 </v>
   <v type="int" >       33 </v>
   <v type="int" >       34 </v>
   <v type="int" >       35 </v>
   <v type="int" >       36 </v>
   <v type="int" >       37 </v>
   <v type="int" >       38 </v>
   <v type="int" >       39 </v>
   <v type="int" >       40 </v>
   <v type="int" >       41 </v>
   <v type="int" >       42 </v>
   <v type="int" >       43 </v>
   <v type="int" >       44 </v>
   <v type="int" >       45 </v>
   <v type="int" >       46 </v>
   <v type="int" >       47 </v>
   <v type="int" >       48 </v>
   <v type="int" >       49 </v>
   <v type="int" >       50 </v>
   <v type="int" >       51 </v>
   <v type="int" >       52 </v>
   <v type="int" >       53 </v>
   <v type="int" >       54 </v>
   <v type="int" >       55 </v>
   <v type="int" >       56 </v>
   <v type="int" >       57 </v>
   <v type="int" >       58 </v>
   <v type="int" >       59 </v>
   <v type="int" >       60 </v>
   <v type="int" >       61 </v>
   <v type="int" >       62 </v>
   <v type="int" >       63 </v>
   <v type="int" >       64 </v>
   <v type="int" >       65 </v>
   <v type="int" >       66 </v>
   <v type="int" >       67 </v>
   <v type="int" >       68 </v>
   <v type="int" >       69 </v>
   <v type="int" >       70 </v>
   <v type="int" >       71 </v>
   <v type="int" >       72 </v>
   <v type="int" >       73 </v>
   <v type="int" >       74 </v>
   <v type="int" >       75 </v>
   <v type="int" >       76 </v>
   <v type="int" >       77 </v>
   <v type="int" >       78 </v>
   <v type="int" >       79 </v>
   <v type="int" >       80 </v>
   <v type="int" >       81 </v>
   <v type="int" >       82 </v>
   <v type="int" >       83 </v>
   <v type="int" >       84 </v>
   <v type="int" >       85 </v>
   <v type="int" >       86 </v>
   <v type="int" >       87 </v>
   <v type="int" >       88 </v>
   <v type="int" >       89 </v>
   <v type="int" >       90 </v>
   <v type="int" >       91 </v>
   <v type="int" >       92 </v>
   <v type="int" >       93 </v>
   <v type="int" >       94 </v>
   <v type="int" >       95 </v>
   <v type="int" >       96 </v>
   <v type="int" >       97 </v>
   <v type="int" >       98 </v>
   <v type="int" >       99 </v>
   <v type="int" >      100 </v>
   <v type="int" >      101 </v>
   <v type="int" >      102 </v>
   <v type="int" >      103 </v>
   <v type="int" >      104 </v>
   <v type="int" >      105 </v>
   <v type="int" >      106 </v>
   <v type="int" >      107 </v>
   <v type="int" >      108 </v>
   <v type="int" >      109 </v>
   <v type="int" >      110 </v>
   <v type="int" >      111 </v>
   <v type="int" >      112 </v>
   <v type="int" >      113 </v>
   <v type="int" >      114 </v>
   <v type="int" >      115 </v>
   <v type="int" >      116 </v>
   <v type="int" >      117 </v>
   <v type="int" >      118 </v>
   <v type="int" >      119 </v>
  </varray>
 </primitive_cell>
 <kpoints>
  <generation param="Gamma">
   <v type="int" name="divisions">       2        2        2 </v>
   <v name="usershift">      0.00000000       0.00000000       0.00000000 </v>
   <v name="genvec1">      0.50000000       0.00000000       0.00000000 </v>
   <v name="genvec2">      0.00000000       0.50000000       0.00000000 </v>
   <v name="genvec3">      0.00000000       0.00000000       0.50000000 </v>
   <v name="shift">      0.00000000       0.00000000       0.00000000 </v>
  </generation>
  <varray name="kpointlist" >
   <v>       0.00000000       0.00000000       0.00000000 </v>
   <v>       0.50000000       0.00000000       0.00000000 </v>
   <v>       0.00000000       0.50000000       0.00000000 </v>
   <v>       0.50000000       0.50000000       0.00000000 </v>
   <v>       0.00000000       0.00000000       0.50000000 </v>
   <v>       0.50000000       0.00000000       0.50000000 </v>
   <v>       0.00000000       0.50000000       0.50000000 </v>
   <v>       0.50000000       0.50000000       0.50000000 </v>
  </varray>
  <varray name="weights" >
   <v>       0.12500000 </v>
   <v>       0.12500000 </v>
   <v>       0.12500000 </v>
   <v>       0.12500000 </v>
   <v>       0.12500000 </v>
   <v>       0.12500000 </v>
   <v>       0.12500000 </v>
   <v>       0.12500000 </v>
  </varray>
 </kpoints>
 <parameters>
  <separator name="general" >
   <i type="string" name="SYSTEM">unknown system</i>
   <i type="logical" name="LCOMPAT"> F  </i>
  </separator>
  <separator name="electronic" >
   <i type="string" name="PREC">normal</i>
   <i name="ENMAX">    450.00000000</i>
   <i name="ENAUG">    605.39200000</i>
   <i name="EDIFF">      0.00001000</i>
   <i type="int" name="IALGO">    58</i>
   <i type="int" name="IWAVPR">    10</i>
   <i type="int" name="NBANDS">   626</i>
   <i type="int" name="NBANDSLOW">    -1</i>
   <i type="int" name="NBANDSHIGH">    -1</i>
   <i name="NELECT">   1044.00000000</i>
   <i type="int" name="TURBO">     0</i>
   <i type="int" name="IRESTART">     0</i>
   <i type="int" name="NREBOOT">     0</i>
   <i type="int" name="NMIN">     0</i>
   <i name="EREF">      0.00000000</i>
   <separator name="electronic smearing" >
    <i type="int" name="ISMEAR">     0</i>
    <i name="SIGMA">      0.05000000</i>
    <i name="KSPACING">      0.50000000</i>
    <i type="logical" name="KGAMMA"> T  </i>
    <i type="logical" name="KBLOWUP"> T  </i>
   </separator>
   <separator name="electronic projectors" >
    <i type="logical" name="LREAL"> T  </i>
    <v name="ROPT">     -0.00050000     -0.00050000</v>
    <i type="int" name="LMAXPAW">  -100</i>
    <i type="int" name="LMAXMIX">     2</i>
    <i type="logical" name="NLSPLINE"> F  </i>
   </separator>
   <separator name="electronic startup" >
    <i type="int" name="ISTART">     0</i>
    <i type="int" name="ICHARG">     0</i>
    <i type="int" name="INIWAV">     1</i>
   </separator>
   <separator name="electronic spin" >
    <i type="int" name="ISPIN">     1</i>
    <i type="logical" name="LNONCOLLINEAR"> F  </i>
    <v name="MAGMOM">      1.00000000      1.00000000      1.00000000      1.00000000      1.00000000      1.00000000      1.00000000      1.00000000      1.00000000      1.00000000      1.00000000      1.00000000      1.00000000      1.00000000      1.00000000      1.00000000      1.00000000      1.00000000      1.00000000      1.00000000
      1.00000000      1.00000000      1.00000000      1.00000000      1.00000000      1.00000000      1.00000000      1.00000000      1.00000000      1.00000000      1.00000000      1.00000000      1.00000000      1.00000000      1.00000000      1.00000000      1.00000000      1.00000000      1.00000000      1.00000000
      1.00000000      1.00000000      1.00000000      1.00000000      1.00000000      1.00000000      1.00000000      1.00000000      1.00000000      1.00000000      1.00000000      1.00000000      1.00000000      1.00000000      1.00000000      1.00000000      1.00000000      1.00000000      1.00000000      1.00000000
      1.00000000      1.00000000      1.00000000      1.00000000      1.00000000      1.00000000      1.00000000      1.00000000      1.00000000      1.00000000      1.00000000      1.00000000      1.00000000      1.00000000      1.00000000      1.00000000      1.00000000      1.00000000      1.00000000      1.00000000
      1.00000000      1.00000000      1.00000000      1.00000000      1.00000000      1.00000000      1.00000000      1.00000000      1.00000000      1.00000000      1.00000000      1.00000000      1.00000000      1.00000000      1.00000000      1.00000000      1.00000000      1.00000000      1.00000000      1.00000000
      1.00000000      1.00000000      1.00000000      1.00000000      1.00000000      1.00000000      1.00000000      1.00000000      1.00000000      1.00000000      1.00000000      1.00000000      1.00000000      1.00000000      1.00000000      1.00000000      1.00000000      1.00000000      1.00000000</v>
    <i name="NUPDOWN">     -1.00000000</i>
    <i type="logical" name="LSORBIT"> F  </i>
    <v name="SAXIS">      0.00000000      0.00000000      1.00000000</v>
    <i type="logical" name="LSPIRAL"> F  </i>
    <v name="QSPIRAL">      0.00000000      0.00000000      0.00000000</v>
    <i type="logical" name="LZEROZ"> F  </i>
   </separator>
   <separator name="electronic exchange-correlation" >
    <i type="logical" name="LASPH"> F  </i>
    <i type="logical" name="LMETAGGA"> F  </i>
   </separator>
   <separator name="electronic convergence" >
    <i type="int" name="NELM">   500</i>
    <i type="int" name="NELMDL">    -5</i>
    <i type="int" name="NELMIN">     2</i>
    <i name="ENINI">    450.00000000</i>
    <separator name="electronic convergence detail" >
     <i type="logical" name="LDIAG"> T  </i>
     <i type="logical" name="LSUBROT"> F  </i>
     <i name="WEIMIN">      0.00000000</i>
     <i name="EBREAK">      0.00000000</i>
     <i name="DEPER">      0.30000000</i>
     <i type="int" name="NRMM">     4</i>
     <i name="TIME">      0.40000000</i>
    </separator>
   </separator>
   <separator name="electronic mixer" >
    <i name="AMIX">      0.40000000</i>
    <i name="BMIX">      1.00000000</i>
    <i name="AMIN">      0.10000000</i>
    <i name="AMIX_MAG">      1.60000000</i>
    <i name="BMIX_MAG">      1.00000000</i>
    <separator name="electronic mixer details" >
     <i type="int" name="IMIX">     4</i>
     <i type="logical" name="MIXFIRST"> F  </i>
     <i type="int" name="MAXMIX">   -45</i>
     <i name="WC">    100.00000000</i>
     <i type="int" name="INIMIX">     1</i>
     <i type="int" name="MIXPRE">     1</i>
     <i type="int" name="MREMOVE">     5</i>
    </separator>
   </separator>
   <separator name="electronic dipolcorrection" >
    <i type="logical" name="LDIPOL"> F  </i>
    <i type="logical" name="LMONO"> F  </i>
    <i type="int" name="IDIPOL">     0</i>
    <i name="EPSILON">      1.00000000</i>
    <v name="DIPOL">   -100.00000000   -100.00000000   -100.00000000</v>
    <i name="EFIELD">      0.00000000</i>
   </separator>
  </separator>
  <separator name="grids" >
   <i type="int" name="NGX">    64</i>
   <i type="int" name="NGY">    48</i>
   <i type="int" name="NGZ">    60</i>
   <i type="int" name="NGXF">   128</i>
   <i type="int" name="NGYF">    96</i>
   <i type="int" name="NGZF">   120</i>
   <i type="logical" name="ADDGRID"> F  </i>
  </separator>
  <separator name="ionic" >
   <i type="int" name="NSW">     0</i>
   <i type="int" name="IBRION">    -1</i>
   <i type="int" name="MDALGO">     0</i>
   <i type="int" name="ISIF">     2</i>
   <i name="PSTRESS">      0.00000000</i>
   <i name="EDIFFG">     -0.00500000</i>
   <i type="int" name="NFREE">     0</i>
   <i name="POTIM">      0.50000000</i>
   <i name="SMASS">     -3.00000000</i>
   <i name="SCALEE">      1.00000000</i>
  </separator>
  <separator name="ionic md" >
   <i name="TEBEG">      0.00010000</i>
   <i name="TEEND">      0.00010000</i>
   <i type="int" name="NBLOCK">     1</i>
   <i type="int" name="KBLOCK">     1</i>
   <i type="int" name="NPACO">   256</i>
   <i name="APACO">     10.00000000</i>
  </separator>
  <separator name="symmetry" >
   <i type="int" name="ISYM">     3</i>
   <i name="SYMPREC">      0.00001000</i>
  </separator>
  <separator name="dos" >
   <i type="int" name="LORBIT">     0</i>
   <v name="RWIGS">     -1.00000000     -1.00000000</v>
   <i type="int" name="NEDOS">   301</i>
   <i name="EMIN">     10.00000000</i>
   <i name="EMAX">    -10.00000000</i>
   <i name="EFERMI">      0.00000000</i>
  </separator>
  <separator name="writing" >
   <i type="int" name="NWRITE">     2</i>
   <i type="logical" name="LWAVE"> T  </i>
   <i type="logical" name="LDOWNSAMPLE"> F  </i>
   <i type="logical" name="LCHARG"> T  </i>
   <i type="logical" name="LPARD"> F  </i>
   <i type="logical" name="LVTOT"> F  </i>
   <i type="logical" name="LVHAR"> F  </i>
   <i type="logical" name="LELF"> F  </i>
   <i type="logical" name="LOPTICS"> F  </i>
   <v name="STM">      0.00000000      0.00000000      0.00000000      0.00000000      0.00000000      0.00000000      0.00000000</v>
  </separator>
  <separator name="performance" >
   <i type="int" name="NPAR">     1</i>
   <i type="int" name="NSIM">     4</i>
   <i type="int" name="NBLK">    -1</i>
   <i type="logical" name="LPLANE"> T  </i>
   <i type="logical" name="LSCALAPACK"> T  </i>
   <i type="logical" name="LSCAAWARE"> F  </i>
   <i type="logical" name="LSCALU"> F  </i>
   <i type="logical" name="LASYNC"> F  </i>
   <i type="logical" name="LORBITALREAL"> F  </i>
  </separator>
  <separator name="miscellaneous" >
   <i type="int" name="IDIOT">     3</i>
   <i type="int" name="PHON_NSTRUCT">    -1</i>
   <i type="logical" name="LMUSIC"> F  </i>
   <v name="POMASS">     69.72300000     16.00000000</v>
   <v name="DARWINR">      0.00000000      0.00000000</v>
   <v name="DARWINV">      1.00000000      1.00000000</v>
   <i type="logical" name="LCORR"> T  </i>
  </separator>
  <i type="logical" name="GGA_COMPAT"> T  </i>
  <i type="logical" name="LBERRY"> F  </i>
  <i type="int" name="ICORELEVEL">     0</i>
  <i type="logical" name="LDAU"> F  </i>
  <i type="int" name="I_CONSTRAINED_M">     0</i>
  <separator name="electronic exchange-correlation" >
   <i type="string" name="GGA">--</i>
   <i type="int" name="VOSKOWN">     0</i>
   <i type="logical" name="LHFCALC"> T  </i>
   <i type="string" name="PRECFOCK">fast</i>
   <i type="logical" name="LSYMGRAD"> F  </i>
   <i type="logical" name="LHFONE"> F  </i>
   <i type="logical" name="LRHFCALC"> F  </i>
   <i type="logical" name="LTHOMAS"> F  </i>
   <i type="logical" name="LMODELHF"> F  </i>
   <i type="logical" name="LFOCKACE"> T  </i>
   <i name="ENCUT4O">     -1.00000000</i>
   <i type="int" name="EXXOEP">     0</i>
   <i type="int" name="FOURORBIT">     0</i>
   <i name="AEXX">      0.32000000</i>
   <i name="HFALPHA">     -1.00000000</i>
   <i name="MCALPHA">      0.00000000</i>
   <i name="ALDAX">      0.68000000</i>
   <i name="AGGAX">      0.68000000</i>
   <i name="ALDAC">      1.00000000</i>
   <i name="AGGAC">      1.00000000</i>
   <i type="int" name="NKREDX">     1</i>
   <i type="int" name="NKREDY">     1</i>
   <i type="int" name="NKREDZ">     1</i>
   <i type="logical" name="SHIFTRED"> F  </i>
   <i type="logical" name="ODDONLY"> F  </i>
   <i type="logical" name="EVENONLY"> F  </i>
   <i type="int" name="LMAXFOCK">     4</i>
   <i type="int" name="NMAXFOCKAE">     1</i>
   <i type="logical" name="LFOCKAEDFT"> F  </i>
   <i name="HFSCREEN">      0.20000000</i>
   <i name="HFSCREENC">      0.20000000</i>
   <i type="int" name="NBANDSGWLOW">     1</i>
  </separator>
  <separator name="vdW DFT" >
   <i type="logical" name="LUSE_VDW"> F  </i>
   <i type="int" name="IVDW_NL">     1</i>
   <i type="logical" name="LSPIN_VDW"> F  </i>
   <i name="Zab_VDW">     -0.84910000</i>
   <i name="PARAM1">      0.12340000</i>
   <i name="PARAM2">      1.00000000</i>
   <i name="PARAM3">      0.00000000</i>
  </separator>
  <separator name="model GW" >
   <i type="int" name="MODEL_GW">     0</i>
   <i name="MODEL_EPS0">      6.39733692</i>
   <i name="MODEL_ALPHA">      1.00000000</i>
  </separator>
  <separator name="linear response parameters" >
   <i type="logical" name="LEPSILON"> F  </i>
   <i type="logical" name="LRPA"> F  </i>
   <i type="logical" name="LNABLA"> F  </i>
   <i type="logical" name="LVEL"> F  </i>
   <i name="CSHIFT">      0.10000000</i>
   <i name="OMEGAMAX">     -1.00000000</i>
   <i name="DEG_THRESHOLD">      0.00200000</i>
   <i name="RTIME">     -0.10000000</i>
   <i name="WPLASMAI">      0.00000000</i>
   <v name="DFIELD">      0.00000000      0.00000000      0.00000000</v>
   <v name="WPLASMA">      0.00000000      0.00000000      0.00000000      0.00000000      0.00000000      0.00000000      0.00000000      0.00000000      0.00000000</v>
  </separator>
  <separator name="orbital magnetization" >
   <i type="logical" name="NUCIND"> F  </i>
   <v name="MAGPOS">      0.00000000      0.00000000      0.00000000</v>
   <i type="logical" name="LNICSALL"> T  </i>
   <i type="logical" name="ORBITALMAG"> F  </i>
   <i type="logical" name="LMAGBLOCH"> F  </i>
   <i type="logical" name="LCHIMAG"> F  </i>
   <i type="logical" name="LGAUGE"> T  </i>
   <i type="int" name="MAGATOM">     0</i>
   <v name="MAGDIPOL">      0.00000000      0.00000000      0.00000000</v>
   <v name="AVECCONST">      0.00000000      0.00000000      0.00000000</v>
  </separator>
  <separator name="response functions" >
   <i type="logical" name="LALL_IN_ONE"> F  </i>
   <i type="int" name="IALL_IN_ONE">    -1</i>
   <i type="int" name="NBANDS_WAVE">    -1</i>
   <i type="logical" name="LFINITE_TEMPERATURE"> F  </i>
   <i type="logical" name="LADDER"> F  </i>
   <i type="logical" name="LRPAFORCE"> F  </i>
   <i type="logical" name="LFXC"> F  </i>
   <i type="logical" name="LHARTREE"> T  </i>
   <i type="int" name="IBSE">     0</i>
   <v type="int" name="KPOINT">    -1     0     0     0</v>
   <i type="logical" name="LTCTC"> F  </i>
   <i type="logical" name="LTCTE"> F  </i>
   <i type="logical" name="LTETE"> F  </i>
   <i type="logical" name="LTRIPLET"> F  </i>
   <i type="logical" name="LFXCEPS"> F  </i>
   <i type="logical" name="LFXHEG"> F  </i>
   <i type="int" name="NATURALO">     2</i>
   <i type="logical" name="LHOLEGF"> F  </i>
   <i type="logical" name="L2ORDER"> F  </i>
   <i type="logical" name="LDMP1"> F  </i>
   <i type="logical" name="LMP2LT"> F  </i>
   <i type="logical" name="LSMP2LT"> F  </i>
   <i type="logical" name="LGWLF"> F  </i>
   <i name="ENCUTGW">     -1.60000002</i>
   <i name="ENCUTGWSOFT">     -1.60000002</i>
   <i name="ENCUTLF">     -1.00000000</i>
   <i type="logical" name="LESF_SPLINES"> F  </i>
   <i type="int" name="LMAXMP2">    -1</i>
   <i name="SCISSOR">      0.00000000</i>
   <i type="int" name="NOMEGA">     0</i>
   <i type="int" name="NOMEGAR">     0</i>
   <i type="int" name="NBANDSGW">    -1</i>
   <i type="int" name="NBANDSO">    -1</i>
   <i type="int" name="NBANDSV">    -1</i>
   <i type="int" name="NELMGW">     1</i>
   <i type="int" name="NELMHF">     1</i>
   <i type="int" name="DIM">     3</i>
   <i type="int" name="IESPILON">     4</i>
   <i type="int" name="ANTIRES">     0</i>
   <i name="OMEGAMAX">    -30.00000000</i>
   <i name="OMEGAMIN">    -30.00000000</i>
   <i name="OMEGATL">   -200.00000000</i>
   <i type="int" name="OMEGAGRID">     0</i>
   <i name="CSHIFT">     -0.10000000</i>
   <i type="logical" name="LSELFENERGY"> F  </i>
   <i type="logical" name="LSPECTRAL"> F  </i>
   <i type="logical" name="LSPECTRALGW"> F  </i>
   <i type="logical" name="LSINGLES"> F  </i>
   <i type="logical" name="LFERMIGW"> F  </i>
   <i type="logical" name="ODDONLYGW"> F  </i>
   <i type="logical" name="EVENONLYGW"> F  </i>
   <i type="int" name="NKREDLFX">     1</i>
   <i type="int" name="NKREDLFY">     1</i>
   <i type="int" name="NKREDLFZ">     1</i>
   <i type="int" name="MAXMEM">  2800</i>
   <i type="int" name="TELESCOPE">     0</i>
   <i type="int" name="NTAUPAR">    -1</i>
   <i type="int" name="NOMEGAPAR">    -1</i>
   <i name="DAMP_NEWTON">      0.80000001</i>
   <i name="LAMBDA">      1.00000000</i>
  </separator>
  <separator name="External order field" >
   <i name="OFIELD_KAPPA">      0.00000000</i>
   <v name="OFIELD_K">      0.00000000      0.00000000      0.00000000</v>
   <i name="OFIELD_Q6_NEAR">      0.00000000</i>
   <i name="OFIELD_Q6_FAR">      0.00000000</i>
   <i name="OFIELD_A">      0.00000000</i>
  </separator>
  <separator name="optional k-points parameters" >
   <i type="int" name="KPOINTS_OPT_MODE">     1</i>
   <i type="logical" name="LKPOINTS_OPT"> F  </i>
  </separator>
 </parameters>
 <atominfo>
  <atoms>     119 </atoms>
  <types>       2 </types>
  <array name="atoms" >
   <dimension dim="1">ion</dimension>
   <field type="string">element</field>
   <field type="int">atomtype</field>
   <set>
    <rc><c>Ga</c><c>   1</c></rc>
    <rc><c>Ga</c><c>   1</c></rc>
    <rc><c>Ga</c><c>   1</c></rc>
    <rc><c>Ga</c><c>   1</c></rc>
    <rc><c>Ga</c><c>   1</c></rc>
    <rc><c>Ga</c><c>   1</c></rc>
    <rc><c>Ga</c><c>   1</c></rc>
    <rc><c>Ga</c><c>   1</c></rc>
    <rc><c>Ga</c><c>   1</c></rc>
    <rc><c>Ga</c><c>   1</c></rc>
    <rc><c>Ga</c><c>   1</c></rc>
    <rc><c>Ga</c><c>   1</c></rc>
    <rc><c>Ga</c><c>   1</c></rc>
    <rc><c>Ga</c><c>   1</c></rc>
    <rc><c>Ga</c><c>   1</c></rc>
    <rc><c>Ga</c><c>   1</c></rc>
    <rc><c>Ga</c><c>   1</c></rc>
    <rc><c>Ga</c><c>   1</c></rc>
    <rc><c>Ga</c><c>   1</c></rc>
    <rc><c>Ga</c><c>   1</c></rc>
    <rc><c>Ga</c><c>   1</c></rc>
    <rc><c>Ga</c><c>   1</c></rc>
    <rc><c>Ga</c><c>   1</c></rc>
    <rc><c>Ga</c><c>   1</c></rc>
    <rc><c>Ga</c><c>   1</c></rc>
    <rc><c>Ga</c><c>   1</c></rc>
    <rc><c>Ga</c><c>   1</c></rc>
    <rc><c>Ga</c><c>   1</c></rc>
    <rc><c>Ga</c><c>   1</c></rc>
    <rc><c>Ga</c><c>   1</c></rc>
    <rc><c>Ga</c><c>   1</c></rc>
    <rc><c>Ga</c><c>   1</c></rc>
    <rc><c>Ga</c><c>   1</c></rc>
    <rc><c>Ga</c><c>   1</c></rc>
    <rc><c>Ga</c><c>   1</c></rc>
    <rc><c>Ga</c><c>   1</c></rc>
    <rc><c>Ga</c><c>   1</c></rc>
    <rc><c>Ga</c><c>   1</c></rc>
    <rc><c>Ga</c><c>   1</c></rc>
    <rc><c>Ga</c><c>   1</c></rc>
    <rc><c>Ga</c><c>   1</c></rc>
    <rc><c>Ga</c><c>   1</c></rc>
    <rc><c>Ga</c><c>   1</c></rc>
    <rc><c>Ga</c><c>   1</c></rc>
    <rc><c>Ga</c><c>   1</c></rc>
    <rc><c>Ga</c><c>   1</c></rc>
    <rc><c>Ga</c><c>   1</c></rc>
    <rc><c>O </c><c>   2</c></rc>
    <rc><c>O </c><c>   2</c></rc>
    <rc><c>O </c><c>   2</c></rc>
    <rc><c>O </c><c>   2</c></rc>
    <rc><c>O </c><c>   2</c></rc>
    <rc><c>O </c><c>   2</c></rc>
    <rc><c>O </c><c>   2</c></rc>
    <rc><c>O </c><c>   2</c></rc>
    <rc><c>O </c><c>   2</c></rc>
    <rc><c>O </c><c>   2</c></rc>
    <rc><c>O </c><c>   2</c></rc>
    <rc><c>O </c><c>   2</c></rc>
    <rc><c>O </c><c>   2</c></rc>
    <rc><c>O </c><c>   2</c></rc>
    <rc><c>O </c><c>   2</c></rc>
    <rc><c>O </c><c>   2</c></rc>
    <rc><c>O </c><c>   2</c></rc>
    <rc><c>O </c><c>   2</c></rc>
    <rc><c>O </c><c>   2</c></rc>
    <rc><c>O </c><c>   2</c></rc>
    <rc><c>O </c><c>   2</c></rc>
    <rc><c>O </c><c>   2</c></rc>
    <rc><c>O </c><c>   2</c></rc>
    <rc><c>O </c><c>   2</c></rc>
    <rc><c>O </c><c>   2</c></rc>
    <rc><c>O </c><c>   2</c></rc>
    <rc><c>O </c><c>   2</c></rc>
    <rc><c>O </c><c>   2</c></rc>
    <rc><c>O </c><c>   2</c></rc>
    <rc><c>O </c><c>   2</c></rc>
    <rc><c>O </c><c>   2</c></rc>
    <rc><c>O </c><c>   2</c></rc>
    <rc><c>O </c><c>   2</c></rc>
    <rc><c>O </c><c>   2</c></rc>
    <rc><c>O </c><c>   2</c></rc>
    <rc><c>O </c><c>   2</c></rc>
    <rc><c>O </c><c>   2</c></rc>
    <rc><c>O </c><c>   2</c></rc>
    <rc><c>O </c><c>   2</c></rc>
    <rc><c>O </c><c>   2</c></rc>
    <rc><c>O </c><c>   2</c></rc>
    <rc><c>O </c><c>   2</c></rc>
    <rc><c>O </c><c>   2</c></rc>
    <rc><c>O </c><c>   2</c></rc>
    <rc><c>O </c><c>   2</c></rc>
    <rc><c>O </c><c>   2</c></rc>
    <rc><c>O </c><c>   2</c></rc>
    <rc><c>O </c><c>   2</c></rc>
    <rc><c>O </c><c>   2</c></rc>
    <rc><c>O </c><c>   2</c></rc>
    <rc><c>O </c><c>   2</c></rc>
    <rc><c>O </c><c>   2</c></rc>
    <rc><c>O </c><c>   2</c></rc>
    <rc><c>O </c><c>   2</c></rc>
    <rc><c>O </c><c>   2</c></rc>
    <rc><c>O </c><c>   2</c></rc>
    <rc><c>O </c><c>   2</c></rc>
    <rc><c>O </c><c>   2</c></rc>
    <rc><c>O </c><c>   2</c></rc>
    <rc><c>O </c><c>   2</c></rc>
    <rc><c>O </c><c>   2</c></rc>
    <rc><c>O </c><c>   2</c></rc>
    <rc><c>O </c><c>   2</c></rc>
    <rc><c>O </c><c>   2</c></rc>
    <rc><c>O </c><c>   2</c></rc>
    <rc><c>O </c><c>   2</c></rc>
    <rc><c>O </c><c>   2</c></rc>
    <rc><c>O </c><c>   2</c></rc>
    <rc><c>O </c><c>   2</c></rc>
    <rc><c>O </c><c>   2</c></rc>
    <rc><c>O </c><c>   2</c></rc>
    <rc><c>O </c><c>   2</c></rc>
   </set>
  </array>
  <array name="atomtypes" >
   <dimension dim="1">type</dimension>
   <field type="int">atomspertype</field>
   <field type="string">element</field>
   <field>mass</field>
   <field>valence</field>
   <field type="string">pseudopotential</field>
   <set>
    <rc><c>  47</c><c>Ga</c><c>     69.72300000</c><c>     13.00000000</c><c>  PAW_PBE Ga_d 06Jul2010                </c></rc>
    <rc><c>  72</c><c>O </c><c>     16.00000000</c><c>      6.00000000</c><c>  PAW_PBE O 08Apr2002                   </c></rc>
   </set>
  </array>
 </atominfo>
 <structure name="initialpos" >
  <crystal>
   <varray name="basis" >
    <v>       0.00000000      12.28047342       0.00000000 </v>
    <v>       9.14270205       0.00000000       0.00000000 </v>
    <v>       0.00000000      -2.76826177     -11.30069772 </v>
   </varray>
   <i name="volume">   1268.80515525 </i>
   <varray name="rec_basis" >
    <v>       0.00000000       0.08143009      -0.01994742 </v>
    <v>       0.10937686      -0.00000000       0.00000000 </v>
    <v>       0.00000000       0.00000000      -0.08849011 </v>
   </varray>
  </crystal>
  <varray name="positions" >
   <v>       0.65950564       0.99987060       0.15732782 </v>
   <v>       0.65920166       0.00012126       0.65715483 </v>
   <v>       0.65915564       0.33333333       0.15709118 </v>
   <v>       0.65975602       0.33333333       0.65682507 </v>
   <v>       0.65950564       0.66679606       0.15732782 </v>
   <v>       0.65920166       0.66654541       0.65715483 </v>
   <v>       0.84368769       0.16772090       0.34445246 </v>
   <v>       0.84124712       0.16736567       0.84448056 </v>
   <v>       0.84368769       0.49894577       0.34445246 </v>
   <v>       0.84124712       0.49930099       0.84448056 </v>
   <v>       0.84413649       0.83333333       0.34329151 </v>
   <v>       0.84168509       0.83333333       0.84348867 </v>
   <v>       0.59020058       0.16794783       0.39695254 </v>
   <v>       0.58978447       0.16666301       0.89761410 </v>
   <v>       0.59020058       0.49871883       0.39695254 </v>
   <v>       0.58978447       0.50000366       0.89761410 </v>
   <v>       0.59354475       0.83333333       0.39794029 </v>
   <v>       0.59022782       0.83333333       0.89744497 </v>
   <v>       0.90868348       0.99918805       0.10257350 </v>
   <v>       0.90760717       0.99952909       0.60154297 </v>
   <v>       0.91164212       0.33333333       0.10780010 </v>
   <v>       0.90896863       0.33333333       0.59968866 </v>
   <v>       0.90868348       0.66747861       0.10257350 </v>
   <v>       0.90760717       0.66713757       0.60154297 </v>
   <v>       0.16075526       0.16902173       0.16163983 </v>
   <v>       0.15759195       0.16889464       0.65002564 </v>
   <v>       0.16075526       0.49764494       0.16163983 </v>
   <v>       0.15759195       0.49777203       0.65002564 </v>
   <v>       0.15925978       0.83333333       0.15845546 </v>
   <v>       0.15766232       0.83333333       0.65431470 </v>
   <v>       0.34222450       0.99967084       0.34313768 </v>
   <v>       0.33898565       0.00009187       0.84206641 </v>
   <v>       0.33423214       0.33333333       0.34639779 </v>
   <v>       0.33868561       0.33333333       0.84265137 </v>
   <v>       0.34222450       0.66699582       0.34313768 </v>
   <v>       0.33898565       0.66657480       0.84206641 </v>
   <v>       0.08866343       0.00871014       0.39589971 </v>
   <v>       0.09237471       0.00008299       0.89842851 </v>
   <v>       0.09040357       0.33333333       0.89694441 </v>
   <v>       0.08866343       0.65795653       0.39589971 </v>
   <v>       0.09237471       0.66658367       0.89842851 </v>
   <v>       0.40933474       0.16628299       0.10241828 </v>
   <v>       0.40966946       0.16676794       0.60306629 </v>
   <v>       0.40933474       0.50038368       0.10241828 </v>
   <v>       0.40966946       0.49989872       0.60306629 </v>
   <v>       0.40887644       0.83333333       0.10184165 </v>
   <v>       0.40934894       0.83333333       0.60247151 </v>
   <v>       0.99659370       0.16504344       0.12955511 </v>
   <v>       0.99502256       0.16601432       0.62634869 </v>
   <v>       0.99659370       0.50162323       0.12955511 </v>
   <v>       0.99502256       0.50065235       0.62634869 </v>
   <v>       0.99632168       0.83333333       0.12683215 </v>
   <v>       0.99522874       0.83333333       0.62779921 </v>
   <v>       0.50546252       0.99911870       0.37312199 </v>
   <v>       0.50246438       0.99982323       0.87209662 </v>
   <v>       0.50136161       0.33333333       0.37270729 </v>
   <v>       0.50233698       0.33333333       0.87251843 </v>
   <v>       0.50546252       0.66754797       0.37312199 </v>
   <v>       0.50246438       0.66684344       0.87209662 </v>
   <v>       0.67267785       0.16639006       0.28039059 </v>
   <v>       0.67307697       0.16736396       0.78178687 </v>
   <v>       0.67267785       0.50027660       0.28039059 </v>
   <v>       0.67307697       0.49930271       0.78178687 </v>
   <v>       0.67335193       0.83333333       0.27993820 </v>
   <v>       0.67285196       0.83333333       0.78128114 </v>
   <v>       0.82657149       0.99859699       0.21834837 </v>
   <v>       0.82716367       0.00017368       0.71986519 </v>
   <v>       0.82520628       0.33333333       0.21884405 </v>
   <v>       0.82815580       0.33333333       0.71957319 </v>
   <v>       0.82657149       0.66806968       0.21834837 </v>
   <v>       0.82716367       0.66649299       0.71986519 </v>
   <v>       0.82938711       0.99879686       0.44570030 </v>
   <v>       0.83242345       0.99989140       0.94588709 </v>
   <v>       0.82605774       0.33333333       0.44597021 </v>
   <v>       0.83581692       0.33333333       0.94882473 </v>
   <v>       0.82938711       0.66786980       0.44570030 </v>
   <v>       0.83242345       0.66677527       0.94588709 </v>
   <v>       0.66722998       0.16651132       0.05371531 </v>
   <v>       0.66669463       0.16661915       0.55448038 </v>
   <v>       0.66722998       0.50015535       0.05371531 </v>
   <v>       0.66669463       0.50004752       0.55448038 </v>
   <v>       0.66754975       0.83333333       0.05349405 </v>
   <v>       0.66833230       0.83333333       0.55533313 </v>
   <v>       0.49692493       0.99941392       0.12585356 </v>
   <v>       0.49712768       0.99978574       0.62924797 </v>
   <v>       0.49655722       0.33333333       0.12617654 </v>
   <v>       0.49724046       0.33333333       0.62919096 </v>
   <v>       0.49692493       0.66725274       0.12585356 </v>
   <v>       0.49712768       0.66688093       0.62924797 </v>
   <v>       0.00093721       0.17101579       0.37098801 </v>
   <v>       0.00333265       0.16599557       0.87253757 </v>
   <v>       0.00093721       0.49565087       0.37098801 </v>
   <v>       0.00333265       0.50067110       0.87253757 </v>
   <v>       0.00576637       0.83333333       0.37356113 </v>
   <v>       0.00419804       0.83333333       0.87312755 </v>
   <v>       0.17373867       0.99911476       0.28137826 </v>
   <v>       0.17175495       0.00038062       0.77938856 </v>
   <v>       0.17549691       0.33333333       0.27291109 </v>
   <v>       0.17193350       0.33333333       0.78103451 </v>
   <v>       0.17373867       0.66755191       0.28137826 </v>
   <v>       0.17175495       0.66628604       0.77938856 </v>
   <v>       0.33049739       0.16265833       0.22007396 </v>
   <v>       0.32768552       0.16663135       0.71953007 </v>
   <v>       0.33049739       0.50400834       0.22007396 </v>
   <v>       0.32768552       0.50003532       0.71953007 </v>
   <v>       0.32839893       0.83333333       0.21931272 </v>
   <v>       0.32676720       0.83333333       0.71866639 </v>
   <v>       0.33548154       0.16417608       0.44689050 </v>
   <v>       0.33232679       0.16626949       0.94570690 </v>
   <v>       0.33548154       0.50249058       0.44689050 </v>
   <v>       0.33232679       0.50039718       0.94570690 </v>
   <v>       0.33508359       0.83333333       0.44591601 </v>
   <v>       0.33118345       0.83333333       0.94528369 </v>
   <v>       0.16700028       0.00107724       0.05555075 </v>
   <v>       0.16714177       0.99950009       0.55298523 </v>
   <v>       0.16878754       0.33333333       0.05206405 </v>
   <v>       0.17148493       0.33333333       0.55518131 </v>
   <v>       0.16700028       0.66558943       0.05555075 </v>
   <v>       0.16714177       0.66716658       0.55298523 </v>
  </varray>
 </structure>
 <calculation>
  <scstep>
   <time name="total">    3.98    3.99</time>
   <energy>
    <i name="alphaZ">   5383.97153279 </i>
    <i name="ewald"> -86587.66129471 </i>
    <i name="hartreedc">  -2067.92109312 </i>
    <i name="XCdc">   2770.73525935 </i>
    <i name="pawpsdc">  54444.10058387 </i>
    <i name="pawaedc"> -83069.54766398 </i>
    <i name="eentropy">     -0.00887250 </i>
    <i name="bandstr"> -40840.45204061 </i>
    <i name="atom"> 131754.67725141 </i>
    <i name="e_fr_energy"> -18212.10633750 </i>
    <i name="e_wo_entrp"> -18212.09746500 </i>
    <i name="e_0_energy"> -18212.10190125 </i>
   </energy>
  </scstep>
  <scstep>
   <time name="total">    3.12    3.12</time>
   <energy>
    <i name="e_fr_energy"> -62511.35832490 </i>
    <i name="e_wo_entrp"> -62511.34203002 </i>
    <i name="e_0_energy"> -62511.35017746 </i>
   </energy>
  </scstep>
  <scstep>
   <time name="total">    3.28    3.28</time>
   <energy>
    <i name="e_fr_energy"> -67570.59642366 </i>
    <i name="e_wo_entrp"> -67570.56326843 </i>
    <i name="e_0_energy"> -67570.57984605 </i>
   </energy>
  </scstep>
  <scstep>
   <time name="total">    3.84    3.84</time>
   <energy>
    <i name="e_fr_energy"> -68332.91162338 </i>
    <i name="e_wo_entrp"> -68332.83890281 </i>
    <i name="e_0_energy"> -68332.87526309 </i>
   </energy>
  </scstep>
  <scstep>
   <time name="total">  231.32  231.30</time>
   <energy>
    <i name="e_fr_energy"> -38865.84758901 </i>
    <i name="e_wo_entrp"> -38865.84758901 </i>
    <i name="e_0_energy"> -38865.84758901 </i>
   </energy>
  </scstep>
  <scstep>
   <time name="total">  459.97  459.94</time>
   <energy>
    <i name="e_fr_energy">  29917.31514265 </i>
    <i name="e_wo_entrp">  29917.35615103 </i>
    <i name="e_0_energy">  29917.33564684 </i>
   </energy>
  </scstep>
  <scstep>
   <time name="total">  461.31  461.29</time>
   <energy>
    <i name="e_fr_energy">  11014.96333783 </i>
    <i name="e_wo_entrp">  11014.97666835 </i>
    <i name="e_0_energy">  11014.97000309 </i>
   </energy>
  </scstep>
  <scstep>
   <time name="total">  460.73  460.70</time>
   <energy>
    <i name="e_fr_energy">   3140.73533003 </i>
    <i name="e_wo_entrp">   3140.76065860 </i>
    <i name="e_0_energy">   3140.74799431 </i>
   </energy>
  </scstep>
  <scstep>
   <time name="total">  460.72  460.67</time>
   <energy>
    <i name="e_fr_energy">   1514.48022862 </i>
    <i name="e_wo_entrp">   1514.50242570 </i>
    <i name="e_0_energy">   1514.49132716 </i>
   </energy>
  </scstep>
  <scstep>
   <time name="total">  460.47  460.43</time>
   <energy>
    <i name="e_fr_energy">    618.84029740 </i>
    <i name="e_wo_entrp">    618.85776184 </i>
    <i name="e_0_energy">    618.84902962 </i>
   </energy>
  </scstep>
  <scstep>
   <time name="total">  460.24  460.19</time>
   <energy>
    <i name="e_fr_energy">    -79.99636640 </i>
    <i name="e_wo_entrp">    -79.97696306 </i>
    <i name="e_0_energy">    -79.98666473 </i>
   </energy>
  </scstep>
  <scstep>
   <time name="total">  460.40  460.38</time>
   <energy>
    <i name="e_fr_energy">   -471.32415913 </i>
    <i name="e_wo_entrp">   -471.30334238 </i>
    <i name="e_0_energy">   -471.31375075 </i>
   </energy>
  </scstep>
  <scstep>
   <time name="total">  459.69  459.66</time>
   <energy>
    <i name="e_fr_energy">   -719.82628669 </i>
    <i name="e_wo_entrp">   -719.82149748 </i>
    <i name="e_0_energy">   -719.82389208 </i>
   </energy>
  </scstep>
  <scstep>
   <time name="total">  459.89  459.84</time>
   <energy>
    <i name="e_fr_energy">   -836.67042337 </i>
    <i name="e_wo_entrp">   -836.66771191 </i>
    <i name="e_0_energy">   -836.66906764 </i>
   </energy>
  </scstep>
  <scstep>
   <time name="total">  459.42  459.39</time>
   <energy>
    <i name="e_fr_energy">   -893.99462674 </i>
    <i name="e_wo_entrp">   -893.99356099 </i>
    <i name="e_0_energy">   -893.99409386 </i>
   </energy>
  </scstep>
  <scstep>
   <time name="total">  459.03  459.02</time>
   <energy>
    <i name="e_fr_energy">   -916.51145890 </i>
    <i name="e_wo_entrp">   -916.50646215 </i>
    <i name="e_0_energy">   -916.50896052 </i>
   </energy>
  </scstep>
  <scstep>
   <time name="total">  459.55  459.54</time>
   <energy>
    <i name="e_fr_energy">   -927.27486840 </i>
    <i name="e_wo_entrp">   -927.26723779 </i>
    <i name="e_0_energy">   -927.27105309 </i>
   </energy>
  </scstep>
  <scstep>
   <time name="total">  459.45  459.41</time>
   <energy>
    <i name="e_fr_energy">   -932.25964805 </i>
    <i name="e_wo_entrp">   -932.25231123 </i>
    <i name="e_0_energy">   -932.25597964 </i>
   </energy>
  </scstep>
  <scstep>
   <time name="total">  459.91  459.89</time>
   <energy>
    <i name="e_fr_energy">   -934.23175619 </i>
    <i name="e_wo_entrp">   -934.20695882 </i>
    <i name="e_0_energy">   -934.21935751 </i>
   </energy>
  </scstep>
  <scstep>
   <time name="total">  459.58  459.55</time>
   <energy>
    <i name="e_fr_energy">   -936.18670108 </i>
    <i name="e_wo_entrp">   -936.17087404 </i>
    <i name="e_0_energy">   -936.17878756 </i>
   </energy>
  </scstep>
  <scstep>
   <time name="total">  459.91  459.89</time>
   <energy>
    <i name="e_fr_energy">   -936.89325051 </i>
    <i name="e_wo_entrp">   -936.87895469 </i>
    <i name="e_0_energy">   -936.88610260 </i>
   </energy>
  </scstep>
  <scstep>
   <time name="total">  460.13  460.13</time>
   <energy>
    <i name="e_fr_energy">   -937.30544200 </i>
    <i name="e_wo_entrp">   -937.29894422 </i>
    <i name="e_0_energy">   -937.30219311 </i>
   </energy>
  </scstep>
  <scstep>
   <time name="total">  459.52  459.50</time>
   <energy>
    <i name="e_fr_energy">   -937.69861991 </i>
    <i name="e_wo_entrp">   -937.69766335 </i>
    <i name="e_0_energy">   -937.69814163 </i>
   </energy>
  </scstep>
  <scstep>
   <time name="total">  459.63  459.60</time>
   <energy>
    <i name="e_fr_energy">   -938.03367244 </i>
    <i name="e_wo_entrp">   -938.03357154 </i>
    <i name="e_0_energy">   -938.03362199 </i>
   </energy>
  </scstep>
  <scstep>
   <time name="total">  459.17  459.17</time>
   <energy>
    <i name="e_fr_energy">   -938.17468721 </i>
    <i name="e_wo_entrp">   -938.17468671 </i>
    <i name="e_0_energy">   -938.17468696 </i>
   </energy>
  </scstep>
  <scstep>
   <time name="total">  459.15  459.14</time>
   <energy>
    <i name="e_fr_energy">   -938.32816312 </i>
    <i name="e_wo_entrp">   -938.32816312 </i>
    <i name="e_0_energy">   -938.32816312 </i>
   </energy>
  </scstep>
  <scstep>
   <time name="total">  459.19  459.20</time>
   <energy>
    <i name="e_fr_energy">   -938.43400113 </i>
    <i name="e_wo_entrp">   -938.43400113 </i>
    <i name="e_0_energy">   -938.43400113 </i>
   </energy>
  </scstep>
  <scstep>
   <time name="total">  459.14  459.13</time>
   <energy>
    <i name="e_fr_energy">   -938.48702983 </i>
    <i name="e_wo_entrp">   -938.48702983 </i>
    <i name="e_0_energy">   -938.48702983 </i>
   </energy>
  </scstep>
  <scstep>
   <time name="total">  459.22  459.20</time>
   <energy>
    <i name="e_fr_energy">   -938.52349885 </i>
    <i name="e_wo_entrp">   -938.52349885 </i>
    <i name="e_0_energy">   -938.52349885 </i>
   </energy>
  </scstep>
  <scstep>
   <time name="total">  458.94  458.93</time>
   <energy>
    <i name="e_fr_energy">   -938.54218461 </i>
    <i name="e_wo_entrp">   -938.54218461 </i>
    <i name="e_0_energy">   -938.54218461 </i>
   </energy>
  </scstep>
  <scstep>
   <time name="total">  459.03  459.00</time>
   <energy>
    <i name="e_fr_energy">   -938.55210614 </i>
    <i name="e_wo_entrp">   -938.55210614 </i>
    <i name="e_0_energy">   -938.55210614 </i>
   </energy>
  </scstep>
  <scstep>
   <time name="total">  458.92  458.90</time>
   <energy>
    <i name="e_fr_energy">   -938.55978225 </i>
    <i name="e_wo_entrp">   -938.55978225 </i>
    <i name="e_0_energy">   -938.55978225 </i>
   </energy>
  </scstep>
  <scstep>
   <time name="total">  459.22  459.18</time>
   <energy>
    <i name="e_fr_energy">   -938.56408906 </i>
    <i name="e_wo_entrp">   -938.56408906 </i>
    <i name="e_0_energy">   -938.56408906 </i>
   </energy>
  </scstep>
  <scstep>
   <time name="total">  458.83  458.81</time>
   <energy>
    <i name="e_fr_energy">   -938.56609207 </i>
    <i name="e_wo_entrp">   -938.56609207 </i>
    <i name="e_0_energy">   -938.56609207 </i>
   </energy>
  </scstep>
  <scstep>
   <time name="total">  459.53  459.50</time>
   <energy>
    <i name="e_fr_energy">   -938.56765038 </i>
    <i name="e_wo_entrp">   -938.56765038 </i>
    <i name="e_0_energy">   -938.56765038 </i>
   </energy>
  </scstep>
  <scstep>
   <time name="total">  459.25  459.23</time>
   <energy>
    <i name="e_fr_energy">   -938.56887015 </i>
    <i name="e_wo_entrp">   -938.56887015 </i>
    <i name="e_0_energy">   -938.56887015 </i>
   </energy>
  </scstep>
  <scstep>
   <time name="total">  458.75  458.75</time>
   <energy>
    <i name="e_fr_energy">   -938.56961286 </i>
    <i name="e_wo_entrp">   -938.56961286 </i>
    <i name="e_0_energy">   -938.56961286 </i>
   </energy>
  </scstep>
  <scstep>
   <time name="total">  458.88  458.86</time>
   <energy>
    <i name="e_fr_energy">   -938.57005297 </i>
    <i name="e_wo_entrp">   -938.57005297 </i>
    <i name="e_0_energy">   -938.57005297 </i>
   </energy>
  </scstep>
  <scstep>
   <time name="total">  459.11  459.10</time>
   <energy>
    <i name="e_fr_energy">   -938.57040946 </i>
    <i name="e_wo_entrp">   -938.57040946 </i>
    <i name="e_0_energy">   -938.57040946 </i>
   </energy>
  </scstep>
  <scstep>
   <time name="total">  459.13  459.09</time>
   <energy>
    <i name="e_fr_energy">   -938.57086683 </i>
    <i name="e_wo_entrp">   -938.57086683 </i>
    <i name="e_0_energy">   -938.57086683 </i>
   </energy>
  </scstep>
  <scstep>
   <time name="total">  458.99  458.99</time>
   <energy>
    <i name="e_fr_energy">   -938.57108222 </i>
    <i name="e_wo_entrp">   -938.57108222 </i>
    <i name="e_0_energy">   -938.57108222 </i>
   </energy>
  </scstep>
  <scstep>
   <time name="total">  458.75  458.77</time>
   <energy>
    <i name="e_fr_energy">   -938.57126440 </i>
    <i name="e_wo_entrp">   -938.57126440 </i>
    <i name="e_0_energy">   -938.57126440 </i>
   </energy>
  </scstep>
  <scstep>
   <time name="total">  459.32  459.33</time>
   <energy>
    <i name="e_fr_energy">   -938.57148112 </i>
    <i name="e_wo_entrp">   -938.57148112 </i>
    <i name="e_0_energy">   -938.57148112 </i>
   </energy>
  </scstep>
  <scstep>
   <time name="total">  458.91  458.93</time>
   <energy>
    <i name="e_fr_energy">   -938.57174411 </i>
    <i name="e_wo_entrp">   -938.57174411 </i>
    <i name="e_0_energy">   -938.57174411 </i>
   </energy>
  </scstep>
  <scstep>
   <time name="total">  459.38  459.39</time>
   <energy>
    <i name="e_fr_energy">   -938.57207912 </i>
    <i name="e_wo_entrp">   -938.57207912 </i>
    <i name="e_0_energy">   -938.57207912 </i>
   </energy>
  </scstep>
  <scstep>
   <time name="total">  458.72  458.70</time>
   <energy>
    <i name="e_fr_energy">   -938.57237631 </i>
    <i name="e_wo_entrp">   -938.57237631 </i>
    <i name="e_0_energy">   -938.57237631 </i>
   </energy>
  </scstep>
  <scstep>
   <time name="total">  458.96  458.95</time>
   <energy>
    <i name="e_fr_energy">   -938.57261469 </i>
    <i name="e_wo_entrp">   -938.57261469 </i>
    <i name="e_0_energy">   -938.57261469 </i>
   </energy>
  </scstep>
  <scstep>
   <time name="total">  458.94  458.93</time>
   <energy>
    <i name="e_fr_energy">   -938.57278881 </i>
    <i name="e_wo_entrp">   -938.57278881 </i>
    <i name="e_0_energy">   -938.57278881 </i>
   </energy>
  </scstep>
  <scstep>
   <time name="total">  459.20  459.19</time>
   <energy>
    <i name="e_fr_energy">   -938.57286899 </i>
    <i name="e_wo_entrp">   -938.57286899 </i>
    <i name="e_0_energy">   -938.57286899 </i>
   </energy>
  </scstep>
  <scstep>
   <time name="total">  459.12  459.08</time>
   <energy>
    <i name="e_fr_energy">   -938.57293465 </i>
    <i name="e_wo_entrp">   -938.57293465 </i>
    <i name="e_0_energy">   -938.57293465 </i>
   </energy>
  </scstep>
  <scstep>
   <time name="total">  458.85  458.86</time>
   <energy>
    <i name="e_fr_energy">   -938.57297901 </i>
    <i name="e_wo_entrp">   -938.57297901 </i>
    <i name="e_0_energy">   -938.57297901 </i>
   </energy>
  </scstep>
  <scstep>
   <time name="total">  458.79  458.79</time>
   <energy>
    <i name="e_fr_energy">   -938.57302221 </i>
    <i name="e_wo_entrp">   -938.57302221 </i>
    <i name="e_0_energy">   -938.57302221 </i>
   </energy>
  </scstep>
  <scstep>
   <time name="total">  459.20  459.17</time>
   <energy>
    <i name="e_fr_energy">   -938.57307726 </i>
    <i name="e_wo_entrp">   -938.57307726 </i>
    <i name="e_0_energy">   -938.57307726 </i>
   </energy>
  </scstep>
  <scstep>
   <time name="total">  458.85  458.84</time>
   <energy>
    <i name="e_fr_energy">   -938.57313497 </i>
    <i name="e_wo_entrp">   -938.57313497 </i>
    <i name="e_0_energy">   -938.57313497 </i>
   </energy>
  </scstep>
  <scstep>
   <time name="total">  458.84  458.84</time>
   <energy>
    <i name="e_fr_energy">   -938.57322882 </i>
    <i name="e_wo_entrp">   -938.57322882 </i>
    <i name="e_0_energy">   -938.57322882 </i>
   </energy>
  </scstep>
  <scstep>
   <time name="total">  458.78  458.75</time>
   <energy>
    <i name="e_fr_energy">   -938.57329785 </i>
    <i name="e_wo_entrp">   -938.57329785 </i>
    <i name="e_0_energy">   -938.57329785 </i>
   </energy>
  </scstep>
  <scstep>
   <time name="total">  459.41  459.40</time>
   <energy>
    <i name="e_fr_energy">   -938.57338112 </i>
    <i name="e_wo_entrp">   -938.57338112 </i>
    <i name="e_0_energy">   -938.57338112 </i>
   </energy>
  </scstep>
  <scstep>
   <time name="total">  459.29  459.28</time>
   <energy>
    <i name="e_fr_energy">   -938.57345210 </i>
    <i name="e_wo_entrp">   -938.57345210 </i>
    <i name="e_0_energy">   -938.57345210 </i>
   </energy>
  </scstep>
  <scstep>
   <time name="total">  458.92  458.93</time>
   <energy>
    <i name="e_fr_energy">   -938.57349879 </i>
    <i name="e_wo_entrp">   -938.57349879 </i>
    <i name="e_0_energy">   -938.57349879 </i>
   </energy>
  </scstep>
  <scstep>
   <time name="total">  458.90  458.87</time>
   <energy>
    <i name="e_fr_energy">   -938.57354801 </i>
    <i name="e_wo_entrp">   -938.57354801 </i>
    <i name="e_0_energy">   -938.57354801 </i>
   </energy>
  </scstep>
  <scstep>
   <time name="total">  459.00  458.97</time>
   <energy>
    <i name="e_fr_energy">   -938.57357347 </i>
    <i name="e_wo_entrp">   -938.57357347 </i>
    <i name="e_0_energy">   -938.57357347 </i>
   </energy>
  </scstep>
  <scstep>
   <time name="total">  459.08  459.05</time>
   <energy>
    <i name="e_fr_energy">   -938.57359828 </i>
    <i name="e_wo_entrp">   -938.57359828 </i>
    <i name="e_0_energy">   -938.57359828 </i>
   </energy>
  </scstep>
  <scstep>
   <time name="total">  459.67  459.67</time>
   <energy>
    <i name="e_fr_energy">   -938.57361599 </i>
    <i name="e_wo_entrp">   -938.57361599 </i>
    <i name="e_0_energy">   -938.57361599 </i>
   </energy>
  </scstep>
  <scstep>
   <time name="total">  459.01  459.00</time>
   <energy>
    <i name="e_fr_energy">   -938.57362704 </i>
    <i name="e_wo_entrp">   -938.57362704 </i>
    <i name="e_0_energy">   -938.57362704 </i>
   </energy>
  </scstep>
  <scstep>
   <time name="total">  458.94  458.93</time>
   <energy>
    <i name="e_fr_energy">   -938.57363941 </i>
    <i name="e_wo_entrp">   -938.57363941 </i>
    <i name="e_0_energy">   -938.57363941 </i>
   </energy>
  </scstep>
  <scstep>
   <time name="total">  684.65  684.64</time>
   <energy>
    <i name="alphaZ">   5383.97153279 </i>
    <i name="ewald"> -86587.66129471 </i>
    <i name="hartreedc"> -34071.01590552 </i>
    <i name="XCdc">   2887.79621152 </i>
    <i name="pawpsdc"> 119528.97432141 </i>
    <i name="pawaedc">-134780.24239482 </i>
    <i name="eentropy">     -0.00000000 </i>
    <i name="bandstr">  -8902.55978092 </i>
    <i name="atom"> 131754.67725141 </i>
    <i name="e_fr_energy">   -938.57364705 </i>
    <i name="e_wo_entrp">   -938.57364705 </i>
    <i name="e_0_energy">   -938.57364705 </i>
   </energy>
  </scstep>
  <structure>
   <crystal>
    <varray name="basis" >
     <v>       0.00000000      12.28047342       0.00000000 </v>
     <v>       9.14270205       0.00000000       0.00000000 </v>
     <v>       0.00000000      -2.76826177     -11.30069772 </v>
    </varray>
    <i name="volume">   1268.80515525 </i>
    <varray name="rec_basis" >
     <v>       0.00000000       0.08143009      -0.01994742 </v>
     <v>       0.10937686      -0.00000000       0.00000000 </v>
     <v>       0.00000000       0.00000000      -0.08849011 </v>
    </varray>
   </crystal>
   <varray name="positions" >
    <v>       0.65950564       0.99987060       0.15732782 </v>
    <v>       0.65920166       0.00012126       0.65715483 </v>
    <v>       0.65915564       0.33333333       0.15709118 </v>
    <v>       0.65975602       0.33333333       0.65682507 </v>
    <v>       0.65950564       0.66679606       0.15732782 </v>
    <v>       0.65920166       0.66654541       0.65715483 </v>
    <v>       0.84368769       0.16772090       0.34445246 </v>
    <v>       0.84124712       0.16736567       0.84448056 </v>
    <v>       0.84368769       0.49894577       0.34445246 </v>
    <v>       0.84124712       0.49930099       0.84448056 </v>
    <v>       0.84413649       0.83333333       0.34329151 </v>
    <v>       0.84168509       0.83333333       0.84348867 </v>
    <v>       0.59020058       0.16794783       0.39695254 </v>
    <v>       0.58978447       0.16666301       0.89761410 </v>
    <v>       0.59020058       0.49871883       0.39695254 </v>
    <v>       0.58978447       0.50000366       0.89761410 </v>
    <v>       0.59354475       0.83333333       0.39794029 </v>
    <v>       0.59022782       0.83333333       0.89744497 </v>
    <v>       0.90868348       0.99918805       0.10257350 </v>
    <v>       0.90760717       0.99952909       0.60154297 </v>
    <v>       0.91164212       0.33333333       0.10780010 </v>
    <v>       0.90896863       0.33333333       0.59968866 </v>
    <v>       0.90868348       0.66747861       0.10257350 </v>
    <v>       0.90760717       0.66713757       0.60154297 </v>
    <v>       0.16075526       0.16902173       0.16163983 </v>
    <v>       0.15759195       0.16889464       0.65002564 </v>
    <v>       0.16075526       0.49764494       0.16163983 </v>
    <v>       0.15759195       0.49777203       0.65002564 </v>
    <v>       0.15925978       0.83333333       0.15845546 </v>
    <v>       0.15766232       0.83333333       0.65431470 </v>
    <v>       0.34222450       0.99967084       0.34313768 </v>
    <v>       0.33898565       0.00009187       0.84206641 </v>
    <v>       0.33423214       0.33333333       0.34639779 </v>
    <v>       0.33868561       0.33333333       0.84265137 </v>
    <v>       0.34222450       0.66699582       0.34313768 </v>
    <v>       0.33898565       0.66657480       0.84206641 </v>
    <v>       0.08866343       0.00871014       0.39589971 </v>
    <v>       0.09237471       0.00008299       0.89842851 </v>
    <v>       0.09040357       0.33333333       0.89694441 </v>
    <v>       0.08866343       0.65795653       0.39589971 </v>
    <v>       0.09237471       0.66658367       0.89842851 </v>
    <v>       0.40933474       0.16628299       0.10241828 </v>
    <v>       0.40966946       0.16676794       0.60306629 </v>
    <v>       0.40933474       0.50038368       0.10241828 </v>
    <v>       0.40966946       0.49989872       0.60306629 </v>
    <v>       0.40887644       0.83333333       0.10184165 </v>
    <v>       0.40934894       0.83333333       0.60247151 </v>
    <v>       0.99659370       0.16504344       0.12955511 </v>
    <v>       0.99502256       0.16601432       0.62634869 </v>
    <v>       0.99659370       0.50162323       0.12955511 </v>
    <v>       0.99502256       0.50065235       0.62634869 </v>
    <v>       0.99632168       0.83333333       0.12683215 </v>
    <v>       0.99522874       0.83333333       0.62779921 </v>
    <v>       0.50546252       0.99911870       0.37312199 </v>
    <v>       0.50246438       0.99982323       0.87209662 </v>
    <v>       0.50136161       0.33333333       0.37270729 </v>
    <v>       0.50233698       0.33333333       0.87251843 </v>
    <v>       0.50546252       0.66754797       0.37312199 </v>
    <v>       0.50246438       0.66684344       0.87209662 </v>
    <v>       0.67267785       0.16639006       0.28039059 </v>
    <v>       0.67307697       0.16736396       0.78178687 </v>
    <v>       0.67267785       0.50027660       0.28039059 </v>
    <v>       0.67307697       0.49930271       0.78178687 </v>
    <v>       0.67335193       0.83333333       0.27993820 </v>
    <v>       0.67285196       0.83333333       0.78128114 </v>
    <v>       0.82657149       0.99859699       0.21834837 </v>
    <v>       0.82716367       0.00017368       0.71986519 </v>
    <v>       0.82520628       0.33333333       0.21884405 </v>
    <v>       0.82815580       0.33333333       0.71957319 </v>
    <v>       0.82657149       0.66806968       0.21834837 </v>
    <v>       0.82716367       0.66649299       0.71986519 </v>
    <v>       0.82938711       0.99879686       0.44570030 </v>
    <v>       0.83242345       0.99989140       0.94588709 </v>
    <v>       0.82605774       0.33333333       0.44597021 </v>
    <v>       0.83581692       0.33333333       0.94882473 </v>
    <v>       0.82938711       0.66786980       0.44570030 </v>
    <v>       0.83242345       0.66677527       0.94588709 </v>
    <v>       0.66722998       0.16651132       0.05371531 </v>
    <v>       0.66669463       0.16661915       0.55448038 </v>
    <v>       0.66722998       0.50015535       0.05371531 </v>
    <v>       0.66669463       0.50004752       0.55448038 </v>
    <v>       0.66754975       0.83333333       0.05349405 </v>
    <v>       0.66833230       0.83333333       0.55533313 </v>
    <v>       0.49692493       0.99941392       0.12585356 </v>
    <v>       0.49712768       0.99978574       0.62924797 </v>
    <v>       0.49655722       0.33333333       0.12617654 </v>
    <v>       0.49724046       0.33333333       0.62919096 </v>
    <v>       0.49692493       0.66725274       0.12585356 </v>
    <v>       0.49712768       0.66688093       0.62924797 </v>
    <v>       0.00093721       0.17101579       0.37098801 </v>
    <v>       0.00333265       0.16599557       0.87253757 </v>
    <v>       0.00093721       0.49565087       0.37098801 </v>
    <v>       0.00333265       0.50067110       0.87253757 </v>
    <v>       0.00576637       0.83333333       0.37356113 </v>
    <v>       0.00419804       0.83333333       0.87312755 </v>
    <v>       0.17373867       0.99911476       0.28137826 </v>
    <v>       0.17175495       0.00038062       0.77938856 </v>
    <v>       0.17549691       0.33333333       0.27291109 </v>
    <v>       0.17193350       0.33333333       0.78103451 </v>
    <v>       0.17373867       0.66755191       0.28137826 </v>
    <v>       0.17175495       0.66628604       0.77938856 </v>
    <v>       0.33049739       0.16265833       0.22007396 </v>
    <v>       0.32768552       0.16663135       0.71953007 </v>
    <v>       0.33049739       0.50400834       0.22007396 </v>
    <v>       0.32768552       0.50003532       0.71953007 </v>
    <v>       0.32839893       0.83333333       0.21931272 </v>
    <v>       0.32676720       0.83333333       0.71866639 </v>
    <v>       0.33548154       0.16417608       0.44689050 </v>
    <v>       0.33232679       0.16626949       0.94570690 </v>
    <v>       0.33548154       0.50249058       0.44689050 </v>
    <v>       0.33232679       0.50039718       0.94570690 </v>
    <v>       0.33508359       0.83333333       0.44591601 </v>
    <v>       0.33118345       0.83333333       0.94528369 </v>
    <v>       0.16700028       0.00107724       0.05555075 </v>
    <v>       0.16714177       0.99950009       0.55298523 </v>
    <v>       0.16878754       0.33333333       0.05206405 </v>
    <v>       0.17148493       0.33333333       0.55518131 </v>
    <v>       0.16700028       0.66558943       0.05555075 </v>
    <v>       0.16714177       0.66716658       0.55298523 </v>
   </varray>
  </structure>
  <varray name="forces" >
   <v>      -0.00151560       0.04004481       0.02319380 </v>
   <v>      -0.00305862       0.07848802       0.00738812 </v>
   <v>      -0.00000000       0.05368800       0.02419068 </v>
   <v>      -0.00000000       0.08198870       0.00354854 </v>
   <v>       0.00151560       0.04004481       0.02319380 </v>
   <v>       0.00305862       0.07848802       0.00738812 </v>
   <v>       0.04645160      -0.30752019       0.03676238 </v>
   <v>       0.01225403      -0.01071832      -0.05897175 </v>
   <v>      -0.04645160      -0.30752019       0.03676238 </v>
   <v>      -0.01225403      -0.01071832      -0.05897175 </v>
   <v>      -0.00000000      -0.16220167       0.01008066 </v>
   <v>      -0.00000000      -0.06543644      -0.03440652 </v>
   <v>      -0.01735395      -0.05043760       0.01179234 </v>
   <v>       0.00456538      -0.00974740      -0.00509564 </v>
   <v>       0.01735395      -0.05043760       0.01179234 </v>
   <v>      -0.00456538      -0.00974740      -0.00509564 </v>
   <v>      -0.00000000      -0.05413384       0.02381610 </v>
   <v>      -0.00000000      -0.01381030       0.00015062 </v>
   <v>       0.06631135       0.09944140       0.04280118 </v>
   <v>       0.00771597      -0.00026365      -0.07626652 </v>
   <v>      -0.00000000       0.14372841       0.02555715 </v>
   <v>      -0.00000000      -0.02090032      -0.08117509 </v>
   <v>      -0.06631135       0.09944140       0.04280118 </v>
   <v>      -0.00771597      -0.00026365      -0.07626652 </v>
   <v>       0.08161623       0.00580825       0.05092354 </v>
   <v>      -0.34178571      -0.11089731      -0.19222595 </v>
   <v>      -0.08161623       0.00580825       0.05092354 </v>
   <v>       0.34178571      -0.11089731      -0.19222595 </v>
   <v>      -0.00000000       0.07397511       0.05429245 </v>
   <v>      -0.00000000       0.04180526      -0.04889994 </v>
   <v>       0.02983619      -0.03951363       0.00720737 </v>
   <v>      -0.01866528      -0.07805484      -0.07575322 </v>
   <v>      -0.00000000      -0.10519438       0.00847339 </v>
   <v>      -0.00000000      -0.03847354      -0.13526543 </v>
   <v>      -0.02983619      -0.03951363       0.00720737 </v>
   <v>       0.01866528      -0.07805484      -0.07575322 </v>
   <v>      -0.17023660       0.27540948      -0.00445648 </v>
   <v>       0.04955818      -0.09096673      -0.02088975 </v>
   <v>      -0.00000000      -0.11782735      -0.10466606 </v>
   <v>       0.17023660       0.27540948      -0.00445648 </v>
   <v>      -0.04955818      -0.09096673      -0.02088975 </v>
   <v>       0.00084083      -0.00031162      -0.02800519 </v>
   <v>      -0.03664509       0.11150169       0.04269762 </v>
   <v>      -0.00084083      -0.00031162      -0.02800519 </v>
   <v>       0.03664509       0.11150169       0.04269762 </v>
   <v>      -0.00000000       0.02653407      -0.02054043 </v>
   <v>      -0.00000000       0.04815597       0.00190410 </v>
   <v>      -0.02803538      -0.24540461       0.09298785 </v>
   <v>       0.03467504      -0.08719900       0.17166278 </v>
   <v>       0.02803538      -0.24540461       0.09298785 </v>
   <v>      -0.03467504      -0.08719900       0.17166278 </v>
   <v>      -0.00000000      -0.20989801       0.08317354 </v>
   <v>      -0.00000000      -0.15776774       0.16236230 </v>
   <v>       0.00447920       0.18720383      -0.11857416 </v>
   <v>       0.00548990       0.17113851      -0.10451826 </v>
   <v>      -0.00000000       0.27053189      -0.14000952 </v>
   <v>      -0.00000000       0.17521320      -0.10260036 </v>
   <v>      -0.00447920       0.18720383      -0.11857416 </v>
   <v>      -0.00548990       0.17113851      -0.10451826 </v>
   <v>       0.00249334      -0.04652296      -0.09854465 </v>
   <v>      -0.00389386      -0.04500538      -0.10116795 </v>
   <v>      -0.00249334      -0.04652296      -0.09854465 </v>
   <v>       0.00389386      -0.04500538      -0.10116795 </v>
   <v>      -0.00000000      -0.04653419      -0.09915330 </v>
   <v>      -0.00000000      -0.05195351      -0.09841094 </v>
   <v>       0.01755325       0.08971035       0.03402638 </v>
   <v>      -0.01793756       0.03036895       0.14490181 </v>
   <v>      -0.00000000       0.05969415       0.02513622 </v>
   <v>      -0.00000000       0.00382162       0.13248860 </v>
   <v>      -0.01755325       0.08971035       0.03402638 </v>
   <v>       0.01793756       0.03036895       0.14490181 </v>
   <v>       0.03842512       0.50593054      -0.05915500 </v>
   <v>      -0.01747164       0.38312420      -0.06990793 </v>
   <v>      -0.00000000       0.53608184      -0.06447658 </v>
   <v>      -0.00000000       0.33025500      -0.00928258 </v>
   <v>      -0.03842512       0.50593054      -0.05915500 </v>
   <v>       0.01747164       0.38312420      -0.06990793 </v>
   <v>      -0.00219114      -0.39337199       0.06907212 </v>
   <v>       0.00805707      -0.38112418       0.05440730 </v>
   <v>       0.00219114      -0.39337199       0.06907212 </v>
   <v>      -0.00805707      -0.38112418       0.05440730 </v>
   <v>      -0.00000000      -0.38781029       0.06648588 </v>
   <v>      -0.00000000      -0.38552733       0.06943878 </v>
   <v>      -0.00095143      -0.17187214       0.10008636 </v>
   <v>       0.00656858      -0.17766005       0.12335759 </v>
   <v>      -0.00000000      -0.15515969       0.10305234 </v>
   <v>      -0.00000000      -0.20313907       0.12619322 </v>
   <v>       0.00095143      -0.17187214       0.10008636 </v>
   <v>      -0.00656858      -0.17766005       0.12335759 </v>
   <v>      -0.30862638      -0.09226114      -0.08516144 </v>
   <v>       0.00115295       0.18552646      -0.09798432 </v>
   <v>       0.30862638      -0.09226114      -0.08516144 </v>
   <v>      -0.00115295       0.18552646      -0.09798432 </v>
   <v>      -0.00000000       0.03879831      -0.07728240 </v>
   <v>      -0.00000000       0.17380428      -0.10517224 </v>
   <v>       0.02167175      -0.09917385      -0.12727802 </v>
   <v>      -0.02671098       0.01502396      -0.11389387 </v>
   <v>      -0.00000000       0.45902638       0.24378217 </v>
   <v>      -0.00000000       0.09674758       0.10141592 </v>
   <v>      -0.02167175      -0.09917385      -0.12727802 </v>
   <v>       0.02671098       0.01502396      -0.11389387 </v>
   <v>      -0.02932033       0.01963133       0.11258173 </v>
   <v>       0.08097997      -0.03928444       0.22986286 </v>
   <v>       0.02932033       0.01963133       0.11258173 </v>
   <v>      -0.08097997      -0.03928444       0.22986286 </v>
   <v>      -0.00000000       0.03412037       0.09718405 </v>
   <v>      -0.00000000       0.02827396       0.13155610 </v>
   <v>       0.03146361       0.34900630      -0.11674267 </v>
   <v>      -0.00190821       0.39300307      -0.01806803 </v>
   <v>      -0.03146361       0.34900630      -0.11674267 </v>
   <v>       0.00190821       0.39300307      -0.01806803 </v>
   <v>      -0.00000000       0.37149465      -0.09435600 </v>
   <v>      -0.00000000       0.39281061      -0.05070963 </v>
   <v>      -0.05344698      -0.35123832       0.09219610 </v>
   <v>       0.12110169      -0.43533213       0.06982752 </v>
   <v>      -0.00000000      -0.38045584       0.10625021 </v>
   <v>      -0.00000000      -0.23728524      -0.22427782 </v>
   <v>       0.05344698      -0.35123832       0.09219610 </v>
   <v>      -0.12110169      -0.43533213       0.06982752 </v>
  </varray>
  <varray name="stress" >
   <v>     -41.31132149       0.00000000       0.00000000 </v>
   <v>       0.00000000     -34.30231167       2.73655023 </v>
   <v>       0.00000000       2.73655095     -35.67090727 </v>
  </varray>
  <energy>
   <i name="e_fr_energy">   -938.57364705 </i>
   <i name="e_wo_entrp">   -938.57364705 </i>
   <i name="e_0_energy">   -938.57364705 </i>
  </energy>
  <time name="totalsc">29059.8929061.15</time>
  <eigenvalues>
   <array>
    <dimension dim="1">band</dimension>
    <dimension dim="2">kpoint</dimension>
    <dimension dim="3">spin</dimension>
    <field>eigene</field>
    <field>occ</field>
    <set>
     <set comment="spin 1">
      <set comment="kpoint 1">
       <r>  -18.8395    1.0000 </r>
       <r>  -18.5543    1.0000 </r>
       <r>  -18.5051    1.0000 </r>
       <r>  -18.3765    1.0000 </r>
       <r>  -18.2964    1.0000 </r>
       <r>  -18.1625    1.0000 </r>
       <r>  -18.1481    1.0000 </r>
       <r>  -18.0863    1.0000 </r>
       <r>  -17.9936    1.0000 </r>
       <r>  -17.9655    1.0000 </r>
       <r>  -17.9597    1.0000 </r>
       <r>  -17.9234    1.0000 </r>
       <r>  -17.9040    1.0000 </r>
       <r>  -17.8667    1.0000 </r>
       <r>  -17.8644    1.0000 </r>
       <r>  -17.8162    1.0000 </r>
       <r>  -17.8138    1.0000 </r>
       <r>  -17.7693    1.0000 </r>
       <r>  -17.7291    1.0000 </r>
       <r>  -17.7218    1.0000 </r>
       <r>  -17.7112    1.0000 </r>
       <r>  -17.6903    1.0000 </r>
       <r>  -17.6621    1.0000 </r>
       <r>  -17.6602    1.0000 </r>
       <r>  -17.6534    1.0000 </r>
       <r>  -17.5657    1.0000 </r>
       <r>  -17.5611    1.0000 </r>
       <r>  -17.5410    1.0000 </r>
       <r>  -17.5317    1.0000 </r>
       <r>  -17.5162    1.0000 </r>
       <r>  -17.5016    1.0000 </r>
       <r>  -17.5006    1.0000 </r>
       <r>  -17.4822    1.0000 </r>
       <r>  -17.4294    1.0000 </r>
       <r>  -17.4239    1.0000 </r>
       <r>  -17.3983    1.0000 </r>
       <r>  -17.3904    1.0000 </r>
       <r>  -17.3740    1.0000 </r>
       <r>  -17.3565    1.0000 </r>
       <r>  -17.3365    1.0000 </r>
       <r>  -17.3334    1.0000 </r>
       <r>  -17.3224    1.0000 </r>
       <r>  -17.3169    1.0000 </r>
       <r>  -17.2927    1.0000 </r>
       <r>  -17.2390    1.0000 </r>
       <r>  -17.2308    1.0000 </r>
       <r>  -17.2175    1.0000 </r>
       <r>  -17.2154    1.0000 </r>
       <r>  -17.1722    1.0000 </r>
       <r>  -17.1533    1.0000 </r>
       <r>  -17.1483    1.0000 </r>
       <r>  -17.1357    1.0000 </r>
       <r>  -17.1297    1.0000 </r>
       <r>  -17.1112    1.0000 </r>
       <r>  -17.0960    1.0000 </r>
       <r>  -17.0943    1.0000 </r>
       <r>  -17.0894    1.0000 </r>
       <r>  -17.0839    1.0000 </r>
       <r>  -17.0741    1.0000 </r>
       <r>  -17.0709    1.0000 </r>
       <r>  -17.0503    1.0000 </r>
       <r>  -17.0475    1.0000 </r>
       <r>  -17.0403    1.0000 </r>
       <r>  -17.0101    1.0000 </r>
       <r>  -16.9725    1.0000 </r>
       <r>  -16.9224    1.0000 </r>
       <r>  -16.9207    1.0000 </r>
       <r>  -16.8876    1.0000 </r>
       <r>  -16.7455    1.0000 </r>
       <r>  -16.6565    1.0000 </r>
       <r>  -16.5401    1.0000 </r>
       <r>  -16.3825    1.0000 </r>
       <r>  -13.2656    1.0000 </r>
       <r>  -13.2558    1.0000 </r>
       <r>  -13.2469    1.0000 </r>
       <r>  -13.2371    1.0000 </r>
       <r>  -13.2341    1.0000 </r>
       <r>  -13.2230    1.0000 </r>
       <r>  -13.1907    1.0000 </r>
       <r>  -13.1901    1.0000 </r>
       <r>  -13.1874    1.0000 </r>
       <r>  -13.1831    1.0000 </r>
       <r>  -13.1826    1.0000 </r>
       <r>  -13.1708    1.0000 </r>
       <r>  -13.1686    1.0000 </r>
       <r>  -13.1648    1.0000 </r>
       <r>  -13.1619    1.0000 </r>
       <r>  -13.1574    1.0000 </r>
       <r>  -13.1558    1.0000 </r>
       <r>  -13.1555    1.0000 </r>
       <r>  -13.1478    1.0000 </r>
       <r>  -13.1458    1.0000 </r>
       <r>  -13.1404    1.0000 </r>
       <r>  -13.1386    1.0000 </r>
       <r>  -13.1361    1.0000 </r>
       <r>  -13.1306    1.0000 </r>
       <r>  -13.1275    1.0000 </r>
       <r>  -13.1263    1.0000 </r>
       <r>  -13.1247    1.0000 </r>
       <r>  -13.1226    1.0000 </r>
       <r>  -13.1182    1.0000 </r>
       <r>  -13.1153    1.0000 </r>
       <r>  -13.1150    1.0000 </r>
[...]
       <r>   -12.6681   524.7676   488.5580 </r>
       <r>   -12.5378   257.9478   522.1679 </r>
       <r>   -12.4075   195.0954   547.5884 </r>
       <r>   -12.2772   124.4905   563.8092 </r>
       <r>   -12.1469    91.4502   575.7249 </r>
       <r>   -12.0166   116.4942   590.9038 </r>
       <r>   -11.8863   105.5317   604.6543 </r>
       <r>   -11.7560    52.3826   611.4796 </r>
       <r>   -11.6257    17.6324   613.7771 </r>
       <r>   -11.4954     1.7110   614.0000 </r>
       <r>   -11.3651     0.0000   614.0000 </r>
       <r>   -11.2348     0.0000   614.0000 </r>
       <r>   -11.1045     0.0000   614.0000 </r>
       <r>   -10.9742     0.0000   614.0000 </r>
       <r>   -10.8439     0.0000   614.0000 </r>
       <r>   -10.7136     0.0000   614.0000 </r>
       <r>   -10.5834     0.0000   614.0000 </r>
       <r>   -10.4531     0.0000   614.0000 </r>
       <r>   -10.3228     0.0000   614.0000 </r>
       <r>   -10.1925     0.0000   614.0000 </r>
       <r>   -10.0622     0.0000   614.0000 </r>
       <r>    -9.9319     0.0000   614.0000 </r>
       <r>    -9.8016     0.0000   614.0000 </r>
       <r>    -9.6713     0.0000   614.0000 </r>
       <r>    -9.5410     0.0000   614.0000 </r>
       <r>    -9.4107     0.0000   614.0000 </r>
       <r>    -9.2804     0.0000   614.0000 </r>
       <r>    -9.1501     0.0000   614.0000 </r>
       <r>    -9.0198     0.0000   614.0000 </r>
       <r>    -8.8895     0.0000   614.0000 </r>
       <r>    -8.7592     0.0000   614.0000 </r>
       <r>    -8.6289     0.0000   614.0000 </r>
       <r>    -8.4986     0.0000   614.0000 </r>
       <r>    -8.3683     0.0000   614.0000 </r>
       <r>    -8.2380     0.0000   614.0000 </r>
       <r>    -8.1077     0.0000   614.0000 </r>
       <r>    -7.9774     0.0000   614.0000 </r>
       <r>    -7.8471     0.0000   614.0000 </r>
       <r>    -7.7168     0.0000   614.0000 </r>
       <r>    -7.5865     0.0000   614.0000 </r>
       <r>    -7.4562     0.0000   614.0000 </r>
       <r>    -7.3259     0.0000   614.0000 </r>
       <r>    -7.1956     0.0000   614.0000 </r>
       <r>    -7.0653     0.0000   614.0000 </r>
       <r>    -6.9350     0.0000   614.0000 </r>
       <r>    -6.8047     0.0000   614.0000 </r>
       <r>    -6.6744     0.0000   614.0000 </r>
       <r>    -6.5441     0.0000   614.0000 </r>
       <r>    -6.4138     0.0000   614.0000 </r>
       <r>    -6.2835     0.0000   614.0000 </r>
       <r>    -6.1532     0.0000   614.0000 </r>
       <r>    -6.0229     0.0000   614.0000 </r>
       <r>    -5.8926     0.0000   614.0000 </r>
       <r>    -5.7623     0.0000   614.0000 </r>
       <r>    -5.6320     0.0000   614.0000 </r>
       <r>    -5.5018     0.0000   614.0000 </r>
       <r>    -5.3715     0.8825   614.1150 </r>
       <r>    -5.2412     4.1232   614.6522 </r>
       <r>    -5.1109    16.1397   616.7552 </r>
       <r>    -4.9806    19.1145   619.2458 </r>
       <r>    -4.8503    35.6283   623.8880 </r>
       <r>    -4.7200    22.9114   626.8733 </r>
       <r>    -4.5897    44.3686   632.6545 </r>
       <r>    -4.4594    37.6538   637.5606 </r>
       <r>    -4.3291    53.6124   644.5462 </r>
       <r>    -4.1988    52.1859   651.3459 </r>
       <r>    -4.0685    49.1741   657.7531 </r>
       <r>    -3.9382    37.6461   662.6583 </r>
       <r>    -3.8079    53.4489   669.6226 </r>
       <r>    -3.6776    32.6064   673.8711 </r>
       <r>    -3.5473    35.5769   678.5067 </r>
       <r>    -3.4170    23.0698   681.5126 </r>
       <r>    -3.2867    33.9670   685.9384 </r>
       <r>    -3.1564    32.7639   690.2075 </r>
       <r>    -3.0261    39.8289   695.3971 </r>
       <r>    -2.8958    36.4364   700.1447 </r>
       <r>    -2.7655    32.8249   704.4217 </r>
       <r>    -2.6352    36.5222   709.1804 </r>
       <r>    -2.5049    37.8977   714.1184 </r>
       <r>    -2.3746    44.6374   719.9345 </r>
       <r>    -2.2443    45.7553   725.8963 </r>
       <r>    -2.1140    33.0225   730.1991 </r>
       <r>    -1.9837    44.9653   736.0579 </r>
       <r>    -1.8534    79.1508   746.3711 </r>
       <r>    -1.7231    64.4080   754.7633 </r>
       <r>    -1.5928    48.5738   761.0923 </r>
       <r>    -1.4625    65.5435   769.6324 </r>
       <r>    -1.3322    64.3061   778.0114 </r>
       <r>    -1.2019    46.1897   784.0298 </r>
       <r>    -1.0716    56.6188   791.4070 </r>
       <r>    -0.9413    82.3223   802.1334 </r>
       <r>    -0.8110    57.5439   809.6312 </r>
       <r>    -0.6807    80.7783   820.1564 </r>
       <r>    -0.5505    69.6713   829.2344 </r>
       <r>    -0.4202    53.8263   836.2479 </r>
       <r>    -0.2899    71.0551   845.5062 </r>
       <r>    -0.1596    73.6525   855.1029 </r>
       <r>    -0.0293    77.0656   865.1443 </r>
       <r>     0.1010    71.9338   874.5171 </r>
       <r>     0.2313    66.5734   883.1915 </r>
       <r>     0.3616    68.9923   892.1810 </r>
       <r>     0.4919    90.2993   903.9468 </r>
       <r>     0.6222    90.0522   915.6803 </r>
       <r>     0.7525    87.6130   927.0961 </r>
       <r>     0.8828    89.2501   938.7251 </r>
       <r>     1.0131   100.1152   951.7699 </r>
       <r>     1.1434   121.0054   967.5366 </r>
       <r>     1.2737   124.7340   983.7891 </r>
       <r>     1.4040   123.3473   999.8609 </r>
       <r>     1.5343   111.5750  1014.3989 </r>
       <r>     1.6646    75.3914  1024.2222 </r>
       <r>     1.7949    51.9063  1030.9854 </r>
       <r>     1.9252    47.7094  1037.2018 </r>
       <r>     2.0555    10.5400  1038.5752 </r>
       <r>     2.1858    15.5459  1040.6007 </r>
       <r>     2.3161    12.5613  1042.2374 </r>
       <r>     2.4464    13.3885  1043.9819 </r>
       <r>     2.5767     0.1387  1044.0000 </r>
       <r>     2.7070     0.0000  1044.0000 </r>
       <r>     2.8373     1.3721  1044.1788 </r>
       <r>     2.9676    11.2215  1045.6409 </r>
       <r>     3.0979     2.7556  1046.0000 </r>
       <r>     3.2282     0.0002  1046.0000 </r>
       <r>     3.3585     0.0000  1046.0000 </r>
       <r>     3.4888     0.0000  1046.0000 </r>
       <r>     3.6191     0.0000  1046.0000 </r>
       <r>     3.7494     0.0000  1046.0000 </r>
       <r>     3.8797     0.0000  1046.0000 </r>
       <r>     4.0100     0.0000  1046.0000 </r>
       <r>     4.1403     0.0000  1046.0000 </r>
       <r>     4.2706     0.0000  1046.0000 </r>
       <r>     4.4009     0.0000  1046.0000 </r>
       <r>     4.5311     0.0000  1046.0000 </r>
       <r>     4.6614     0.0000  1046.0000 </r>
       <r>     4.7917     0.0000  1046.0000 </r>
       <r>     4.9220     0.0000  1046.0000 </r>
       <r>     5.0523     0.0000  1046.0000 </r>
       <r>     5.1826     0.0000  1046.0000 </r>
       <r>     5.3129     0.0000  1046.0000 </r>
       <r>     5.4432     0.0000  1046.0000 </r>
       <r>     5.5735     0.0000  1046.0000 </r>
       <r>     5.7038     0.0000  1046.0000 </r>
       <r>     5.8341     0.0000  1046.0000 </r>
       <r>     5.9644     0.0000  1046.0000 </r>
       <r>     6.0947     0.0000  1046.0000 </r>
       <r>     6.2250     0.0000  1046.0000 </r>
       <r>     6.3553     0.0000  1046.0000 </r>
       <r>     6.4856     0.0000  1046.0000 </r>
       <r>     6.6159     0.3623  1046.0472 </r>
       <r>     6.7462     1.5515  1046.2494 </r>
       <r>     6.8765     0.0049  1046.2500 </r>
       <r>     7.0068     0.0000  1046.2500 </r>
       <r>     7.1371     0.0000  1046.2500 </r>
       <r>     7.2674     0.0015  1046.2502 </r>
       <r>     7.3977     1.4169  1046.4348 </r>
       <r>     7.5280     3.1664  1046.8474 </r>
       <r>     7.6583     2.7839  1047.2101 </r>
       <r>     7.7886     1.4524  1047.3994 </r>
       <r>     7.9189     4.6144  1048.0006 </r>
       <r>     8.0492     1.9011  1048.2483 </r>
       <r>     8.1795     0.0135  1048.2501 </r>
       <r>     8.3098     2.5127  1048.5775 </r>
       <r>     8.4401     5.7656  1049.3287 </r>
       <r>     8.5704     7.0683  1050.2497 </r>
       <r>     8.7007     4.3788  1050.8202 </r>
       <r>     8.8310     7.0483  1051.7386 </r>
       <r>     8.9613     3.1513  1052.1492 </r>
       <r>     9.0916     5.2048  1052.8274 </r>
       <r>     9.2219    10.9581  1054.2552 </r>
       <r>     9.3522     3.6017  1054.7245 </r>
       <r>     9.4825     4.2787  1055.2820 </r>
       <r>     9.6127     9.6403  1056.5381 </r>
       <r>     9.7430    11.5235  1058.0396 </r>
       <r>     9.8733    14.5128  1059.9306 </r>
       <r>    10.0036     6.6418  1060.7960 </r>
       <r>    10.1339    14.3227  1062.6622 </r>
       <r>    10.2642    22.1976  1065.5545 </r>
       <r>    10.3945    30.1369  1069.4812 </r>
       <r>    10.5248    39.2699  1074.5980 </r>
       <r>    10.6551    36.4969  1079.3534 </r>
       <r>    10.7854    42.1902  1084.8507 </r>
       <r>    10.9157    26.4870  1088.3019 </r>
       <r>    11.0460    25.4928  1091.6236 </r>
       <r>    11.1763    27.3111  1095.1821 </r>
       <r>    11.3066    33.4564  1099.5414 </r>
       <r>    11.4369    32.4353  1103.7676 </r>
       <r>    11.5672    42.2371  1109.2710 </r>
       <r>    11.6975    38.0758  1114.2322 </r>
       <r>    11.8278    35.3213  1118.8345 </r>
       <r>    11.9581    24.1540  1121.9817 </r>
       <r>    12.0884    28.4498  1125.6886 </r>
       <r>    12.2187    39.4266  1130.8258 </r>
       <r>    12.3490    51.4286  1137.5268 </r>
       <r>    12.4793    40.8143  1142.8448 </r>
       <r>    12.6096    33.5487  1147.2161 </r>
       <r>    12.7399    19.7268  1149.7864 </r>
       <r>    12.8702    20.0047  1152.3930 </r>
       <r>    13.0005    36.6204  1157.1646 </r>
       <r>    13.1308    38.4924  1162.1800 </r>
       <r>    13.2611    45.2561  1168.0768 </r>
       <r>    13.3914    29.5251  1171.9238 </r>
       <r>    13.5217    30.6527  1175.9178 </r>
       <r>    13.6520    34.4961  1180.4125 </r>
       <r>    13.7823    25.8022  1183.7745 </r>
       <r>    13.9126    36.8397  1188.5746 </r>
       <r>    14.0429    38.7920  1193.6291 </r>
       <r>    14.1732    26.1514  1197.0366 </r>
       <r>    14.3035    30.6987  1201.0365 </r>
       <r>    14.4338    36.0947  1205.7396 </r>
       <r>    14.5640    30.3091  1209.6888 </r>
       <r>    14.6943    30.6764  1213.6858 </r>
       <r>    14.8246    26.7462  1217.1708 </r>
       <r>    14.9549    26.8278  1220.6664 </r>
       <r>    15.0852    30.1052  1224.5890 </r>
       <r>    15.2155    24.1745  1227.7389 </r>
       <r>    15.3458    26.3720  1231.1751 </r>
       <r>    15.4761    23.7826  1234.2739 </r>
       <r>    15.6064    23.4065  1237.3237 </r>
       <r>    15.7367    26.0027  1240.7118 </r>
       <r>    15.8670    18.2234  1243.0863 </r>
       <r>    15.9973    16.3132  1245.2118 </r>
       <r>    16.1276    15.8925  1247.2826 </r>
       <r>    16.2579    14.3452  1249.1517 </r>
       <r>    16.3882    11.0410  1250.5903 </r>
       <r>    16.5185     7.0105  1251.5038 </r>
       <r>    16.6488     2.0624  1251.7725 </r>
       <r>    16.7791     1.7277  1251.9976 </r>
       <r>    16.9094     0.0182  1252.0000 </r>
       <r>    17.0397     0.0000  1252.0000 </r>
       <r>    17.1700     0.0000  1252.0000 </r>
       <r>    17.3003     0.0000  1252.0000 </r>
       <r>    17.4306     0.0000  1252.0000 </r>
       <r>    17.5609     0.0000  1252.0000 </r>
       <r>    17.6912     0.0000  1252.0000 </r>
       <r>    17.8215     0.0000  1252.0000 </r>
       <r>    17.9518     0.0000  1252.0000 </r>
       <r>    18.0821     0.0000  1252.0000 </r>
       <r>    18.2124     0.0000  1252.0000 </r>
       <r>    18.3427     0.0000  1252.0000 </r>
       <r>    18.4730     0.0000  1252.0000 </r>
      </set>
     </set>
    </array>
   </total>
  </dos>
 </calculation>
 <structure name="finalpos" >
  <crystal>
   <varray name="basis" >
    <v>       0.00000000      12.28047342       0.00000000 </v>
    <v>       9.14270205       0.00000000       0.00000000 </v>
    <v>       0.00000000      -2.76826177     -11.30069772 </v>
   </varray>
   <i name="volume">   1268.80515525 </i>
   <varray name="rec_basis" >
    <v>       0.00000000       0.08143009      -0.01994742 </v>
    <v>       0.10937686      -0.00000000       0.00000000 </v>
    <v>       0.00000000       0.00000000      -0.08849011 </v>
   </varray>
  </crystal>
  <varray name="positions" >
   <v>       0.65950564       0.99987060       0.15732782 </v>
   <v>       0.65920166       0.00012126       0.65715483 </v>
   <v>       0.65915564       0.33333333       0.15709118 </v>
   <v>       0.65975602       0.33333333       0.65682507 </v>
   <v>       0.65950564       0.66679606       0.15732782 </v>
   <v>       0.65920166       0.66654541       0.65715483 </v>
   <v>       0.84368769       0.16772090       0.34445246 </v>
   <v>       0.84124712       0.16736567       0.84448056 </v>
   <v>       0.84368769       0.49894577       0.34445246 </v>
   <v>       0.84124712       0.49930099       0.84448056 </v>
   <v>       0.84413649       0.83333333       0.34329151 </v>
   <v>       0.84168509       0.83333333       0.84348867 </v>
   <v>       0.59020058       0.16794783       0.39695254 </v>
   <v>       0.58978447       0.16666301       0.89761410 </v>
   <v>       0.59020058       0.49871883       0.39695254 </v>
   <v>       0.58978447       0.50000366       0.89761410 </v>
   <v>       0.59354475       0.83333333       0.39794029 </v>
   <v>       0.59022782       0.83333333       0.89744497 </v>
   <v>       0.90868348       0.99918805       0.10257350 </v>
   <v>       0.90760717       0.99952909       0.60154297 </v>
   <v>       0.91164212       0.33333333       0.10780010 </v>
   <v>       0.90896863       0.33333333       0.59968866 </v>
   <v>       0.90868348       0.66747861       0.10257350 </v>
   <v>       0.90760717       0.66713757       0.60154297 </v>
   <v>       0.16075526       0.16902173       0.16163983 </v>
   <v>       0.15759195       0.16889464       0.65002564 </v>
   <v>       0.16075526       0.49764494       0.16163983 </v>
   <v>       0.15759195       0.49777203       0.65002564 </v>
   <v>       0.15925978       0.83333333       0.15845546 </v>
   <v>       0.15766232       0.83333333       0.65431470 </v>
   <v>       0.34222450       0.99967084       0.34313768 </v>
   <v>       0.33898565       0.00009187       0.84206641 </v>
   <v>       0.33423214       0.33333333       0.34639779 </v>
   <v>       0.33868561       0.33333333       0.84265137 </v>
   <v>       0.34222450       0.66699582       0.34313768 </v>
   <v>       0.33898565       0.66657480       0.84206641 </v>
   <v>       0.08866343       0.00871014       0.39589971 </v>
   <v>       0.09237471       0.00008299       0.89842851 </v>
   <v>       0.09040357       0.33333333       0.89694441 </v>
   <v>       0.08866343       0.65795653       0.39589971 </v>
   <v>       0.09237471       0.66658367       0.89842851 </v>
   <v>       0.40933474       0.16628299       0.10241828 </v>
   <v>       0.40966946       0.16676794       0.60306629 </v>
   <v>       0.40933474       0.50038368       0.10241828 </v>
   <v>       0.40966946       0.49989872       0.60306629 </v>
   <v>       0.40887644       0.83333333       0.10184165 </v>
   <v>       0.40934894       0.83333333       0.60247151 </v>
   <v>       0.99659370       0.16504344       0.12955511 </v>
   <v>       0.99502256       0.16601432       0.62634869 </v>
   <v>       0.99659370       0.50162323       0.12955511 </v>
   <v>       0.99502256       0.50065235       0.62634869 </v>
   <v>       0.99632168       0.83333333       0.12683215 </v>
   <v>       0.99522874       0.83333333       0.62779921 </v>
   <v>       0.50546252       0.99911870       0.37312199 </v>
   <v>       0.50246438       0.99982323       0.87209662 </v>
   <v>       0.50136161       0.33333333       0.37270729 </v>
   <v>       0.50233698       0.33333333       0.87251843 </v>
   <v>       0.50546252       0.66754797       0.37312199 </v>
   <v>       0.50246438       0.66684344       0.87209662 </v>
   <v>       0.67267785       0.16639006       0.28039059 </v>
   <v>       0.67307697       0.16736396       0.78178687 </v>
   <v>       0.67267785       0.50027660       0.28039059 </v>
   <v>       0.67307697       0.49930271       0.78178687 </v>
   <v>       0.67335193       0.83333333       0.27993820 </v>
   <v>       0.67285196       0.83333333       0.78128114 </v>
   <v>       0.82657149       0.99859699       0.21834837 </v>
   <v>       0.82716367       0.00017368       0.71986519 </v>
   <v>       0.82520628       0.33333333       0.21884405 </v>
   <v>       0.82815580       0.33333333       0.71957319 </v>
   <v>       0.82657149       0.66806968       0.21834837 </v>
   <v>       0.82716367       0.66649299       0.71986519 </v>
   <v>       0.82938711       0.99879686       0.44570030 </v>
   <v>       0.83242345       0.99989140       0.94588709 </v>
   <v>       0.82605774       0.33333333       0.44597021 </v>
   <v>       0.83581692       0.33333333       0.94882473 </v>
   <v>       0.82938711       0.66786980       0.44570030 </v>
   <v>       0.83242345       0.66677527       0.94588709 </v>
   <v>       0.66722998       0.16651132       0.05371531 </v>
   <v>       0.66669463       0.16661915       0.55448038 </v>
   <v>       0.66722998       0.50015535       0.05371531 </v>
   <v>       0.66669463       0.50004752       0.55448038 </v>
   <v>       0.66754975       0.83333333       0.05349405 </v>
   <v>       0.66833230       0.83333333       0.55533313 </v>
   <v>       0.49692493       0.99941392       0.12585356 </v>
   <v>       0.49712768       0.99978574       0.62924797 </v>
   <v>       0.49655722       0.33333333       0.12617654 </v>
   <v>       0.49724046       0.33333333       0.62919096 </v>
   <v>       0.49692493       0.66725274       0.12585356 </v>
   <v>       0.49712768       0.66688093       0.62924797 </v>
   <v>       0.00093721       0.17101579       0.37098801 </v>
   <v>       0.00333265       0.16599557       0.87253757 </v>
   <v>       0.00093721       0.49565087       0.37098801 </v>
   <v>       0.00333265       0.50067110       0.87253757 </v>
   <v>       0.00576637       0.83333333       0.37356113 </v>
   <v>       0.00419804       0.83333333       0.87312755 </v>
   <v>       0.17373867       0.99911476       0.28137826 </v>
   <v>       0.17175495       0.00038062       0.77938856 </v>
   <v>       0.17549691       0.33333333       0.27291109 </v>
   <v>       0.17193350       0.33333333       0.78103451 </v>
   <v>       0.17373867       0.66755191       0.28137826 </v>
   <v>       0.17175495       0.66628604       0.77938856 </v>
   <v>       0.33049739       0.16265833       0.22007396 </v>
   <v>       0.32768552       0.16663135       0.71953007 </v>
   <v>       0.33049739       0.50400834       0.22007396 </v>
   <v>       0.32768552       0.50003532       0.71953007 </v>
   <v>       0.32839893       0.83333333       0.21931272 </v>
   <v>       0.32676720       0.83333333       0.71866639 </v>
   <v>       0.33548154       0.16417608       0.44689050 </v>
   <v>       0.33232679       0.16626949       0.94570690 </v>
   <v>       0.33548154       0.50249058       0.44689050 </v>
   <v>       0.33232679       0.50039718       0.94570690 </v>
   <v>       0.33508359       0.83333333       0.44591601 </v>
   <v>       0.33118345       0.83333333       0.94528369 </v>
   <v>       0.16700028       0.00107724       0.05555075 </v>
   <v>       0.16714177       0.99950009       0.55298523 </v>
   <v>       0.16878754       0.33333333       0.05206405 </v>
   <v>       0.17148493       0.33333333       0.55518131 </v>
   <v>       0.16700028       0.66558943       0.05555075 </v>
   <v>       0.16714177       0.66716658       0.55298523 </v>
  </varray>
 </structure>
</modeling>
