       N       E                     dE             d eps       ncg     rms          ort
DAV:   1    -0.214651267616E+05   -0.21465E+05   -0.54741E+05  5088   0.745E+03
DAV:   2    -0.655151116301E+05   -0.44050E+05   -0.42729E+05  5088   0.118E+03
DAV:   3    -0.699489577793E+05   -0.44338E+04   -0.39606E+04  5088   0.342E+02
DAV:   4    -0.704476353448E+05   -0.49868E+03   -0.42190E+03  5088   0.101E+02
DAV:   5    -0.373985342188E+05    0.33049E+05   -0.75526E+02  5088   0.544E+01
SDA:   6     0.145182353012E+05    0.51917E+05   -0.75526E+02  5088   0.877E+05 0.000E+00
CGA:   7     0.243470785043E+04   -0.12084E+05   -0.13080E+05  5088   0.975E+04 0.608E+04
CGA:   8     0.121266800904E+04   -0.12220E+04   -0.12965E+04  5088   0.626E+04 0.255E+04
CGA:   9     0.428971569933E+03   -0.78370E+03   -0.69054E+03  5088   0.125E+05-0.866E+03
CGA:  10     0.302392594197E+03   -0.12658E+03   -0.46307E+03  5088   0.766E+04-0.252E+04
CGA:  11    -0.765435100096E+02   -0.37894E+03   -0.46511E+03  5088   0.422E+04-0.108E+04
CGA:  12    -0.455587043178E+03   -0.37904E+03   -0.40781E+03  5088   0.168E+04 0.381E+02
CGA:  13    -0.688299262212E+03   -0.23271E+03   -0.23746E+03  5088   0.700E+03 0.720E+02
CGA:  14    -0.818882319873E+03   -0.13058E+03   -0.13006E+03  5088   0.410E+03 0.382E+02
CGA:  15    -0.908151851641E+03   -0.89270E+02   -0.90007E+02  5088   0.217E+03-0.111E+02
CGA:  16    -0.947890543550E+03   -0.39739E+02   -0.39734E+02  5088   0.117E+03-0.421E+00
CGA:  17    -0.969286379553E+03   -0.21396E+02   -0.21412E+02  5088   0.572E+02-0.109E+01
CGA:  18    -0.979309593597E+03   -0.10023E+02   -0.10024E+02  5088   0.237E+02-0.923E-01
CGA:  19    -0.984083404193E+03   -0.47738E+01   -0.47732E+01  5088   0.120E+02-0.750E-02
CGA:  20    -0.986811943563E+03   -0.27285E+01   -0.27269E+01  5088   0.589E+01 0.632E-02
CGA:  21    -0.988090828361E+03   -0.12789E+01   -0.12797E+01  5088   0.291E+01-0.191E-01
CGA:  22    -0.988720839406E+03   -0.63001E+00   -0.63052E+00  5088   0.165E+01-0.960E-02
CGA:  23    -0.989044756566E+03   -0.32392E+00   -0.32395E+00  5088   0.730E+00-0.161E-02
CGA:  24    -0.989184400942E+03   -0.13964E+00   -0.13965E+00  5088   0.309E+00-0.762E-03
CGA:  25    -0.989255929052E+03   -0.71528E-01   -0.71533E-01  5088   0.162E+00-0.867E-04
CGA:  26    -0.989295508420E+03   -0.39579E-01   -0.39558E-01  5088   0.864E-01 0.321E-03
CGA:  27    -0.989314286715E+03   -0.18778E-01   -0.18771E-01  5088   0.444E-01 0.234E-03
CGA:  28    -0.989323735075E+03   -0.94484E-02   -0.94470E-02  5088   0.253E-01 0.644E-04
CGA:  29    -0.989328686743E+03   -0.49517E-02   -0.49519E-02  5088   0.115E-01-0.449E-04
CGA:  30    -0.989331026392E+03   -0.23396E-02   -0.23404E-02  5088   0.524E-02-0.596E-04
CGA:  31    -0.989332244159E+03   -0.12178E-02   -0.12190E-02  5088   0.262E-02-0.285E-04
CGA:  32    -0.989332873919E+03   -0.62976E-03   -0.62972E-03  5088   0.131E-02 0.130E-06
CGA:  33    -0.989333176703E+03   -0.30278E-03   -0.30253E-03  5088   0.716E-03 0.741E-05
CGA:  34    -0.989333340063E+03   -0.16336E-03   -0.16328E-03  5088   0.410E-03 0.302E-05
CGA:  35    -0.989333424981E+03   -0.84918E-04   -0.84935E-04  5088   0.190E-03-0.267E-05
CGA:  36    -0.989333465505E+03   -0.40523E-04   -0.40562E-04  5088   0.899E-04-0.262E-05
SDA:  37    -0.989333486844E+03   -0.21339E-04   -0.21291E-04  5088   0.456E-04 0.124E-05
CGA:  38    -0.989333503240E+03   -0.16396E-04   -0.15860E-04  5088   0.788E-05 0.369E-05
CGA:  39    -0.989333507503E+03   -0.42633E-05   -0.42627E-05  5088   0.398E-05 0.260E-08
   1 F= -.98933351E+03 E0= -.98933351E+03  d E =-.684380E-12
