<?xml version="1.0" encoding="ISO-8859-1"?>
<modeling>
 <generator>
  <i name="program" type="string">vasp </i>
  <i name="version" type="string">6.4.2  </i>
  <i name="subversion" type="string">20Jul23 (build Mar  2 2025 11:04:54) complex                          parallel </i>
  <i name="platform" type="string">LinuxNV </i>
  <i name="date" type="string">2025 03 04 </i>
  <i name="time" type="string">13:32:13 </i>
 </generator>
 <incar>
  <i type="int" name="ISTART">     0</i>
  <i type="string" name="PREC">Normal</i>
  <i type="string" name="ALGO">All</i>
  <i type="int" name="ISPIN">     1</i>
  <i type="int" name="ICHARG">     0</i>
  <i type="int" name="IBRION">    -1</i>
  <i name="EDIFF">      0.00001000</i>
  <i name="EDIFFG">     -0.00500000</i>
  <i type="int" name="NSW">     0</i>
  <i type="int" name="ISIF">     2</i>
  <i name="ENCUT">    450.00000000</i>
  <i type="string" name="LREAL">Auto</i>
  <i type="logical" name="LPLANE"> T  </i>
  <i name="TIME">      0.40000000</i>
  <i type="int" name="ISMEAR">     0</i>
  <i name="SIGMA">      0.05000000</i>
  <i type="logical" name="LWAVE"> T  </i>
  <i type="logical" name="LCHARG"> T  </i>
  <i name="HFSCREEN">      0.18000000</i>
  <i type="logical" name="LHFCALC"> T  </i>
  <i type="int" name="LMAXFOCK">     4</i>
  <i name="AEXX">      0.35000000</i>
  <i type="string" name="PRECFOCK">Fast</i>
 </incar>
 <primitive_cell>
  <structure name="primitive_cell" >
   <crystal>
    <varray name="basis" >
     <v>      -1.52378368       6.14023671       0.00000000 </v>
     <v>       1.52378368       6.14023671       0.00000000 </v>
     <v>       0.00000000      -1.38413089      -5.65034886 </v>
    </varray>
    <i name="volume">    105.73376294 </i>
    <varray name="rec_basis" >
     <v>      -0.32813057       0.08143009      -0.01994742 </v>
     <v>       0.32813057       0.08143009      -0.01994742 </v>
     <v>       0.00000000       0.00000000      -0.17698022 </v>
    </varray>
   </crystal>
   <varray name="positions" >
    <v>       0.65883830       0.65883830       0.31473034 </v>
    <v>       0.34116170       0.34116170       0.68526966 </v>
    <v>       0.09047440       0.09047440       0.79478600 </v>
    <v>       0.90952560       0.90952560       0.20521400 </v>
    <v>       0.49646913       0.49646913       0.25666409 </v>
    <v>       0.50353087       0.50353087       0.74333591 </v>
    <v>       0.17337106       0.17337107       0.56323016 </v>
    <v>       0.82662893       0.82662894       0.43676984 </v>
    <v>       0.83549502       0.83549502       0.89084592 </v>
    <v>       0.16450498       0.16450498       0.10915408 </v>
   </varray>
  </structure>
  <varray name="primitive_index" >
   <v type="int" >        1 </v>
   <v type="int" >        7 </v>
   <v type="int" >       13 </v>
   <v type="int" >       19 </v>
   <v type="int" >       85 </v>
   <v type="int" >       55 </v>
   <v type="int" >       61 </v>
   <v type="int" >       67 </v>
   <v type="int" >       74 </v>
   <v type="int" >       79 </v>
  </varray>
 </primitive_cell>
 <kpoints>
  <generation param="Gamma">
   <v type="int" name="divisions">       2        2        2 </v>
   <v name="usershift">      0.00000000       0.00000000       0.00000000 </v>
   <v name="genvec1">      0.50000000       0.00000000       0.00000000 </v>
   <v name="genvec2">      0.00000000       0.50000000       0.00000000 </v>
   <v name="genvec3">      0.00000000       0.00000000       0.50000000 </v>
   <v name="shift">      0.00000000       0.00000000       0.00000000 </v>
  </generation>
  <varray name="kpointlist" >
   <v>       0.00000000       0.00000000       0.00000000 </v>
   <v>       0.50000000       0.00000000       0.00000000 </v>
   <v>       0.00000000       0.50000000       0.00000000 </v>
   <v>       0.50000000       0.50000000       0.00000000 </v>
   <v>       0.00000000       0.00000000       0.50000000 </v>
   <v>       0.50000000       0.00000000       0.50000000 </v>
   <v>       0.00000000       0.50000000       0.50000000 </v>
   <v>       0.50000000       0.50000000       0.50000000 </v>
  </varray>
  <varray name="weights" >
   <v>       0.12500000 </v>
   <v>       0.12500000 </v>
   <v>       0.12500000 </v>
   <v>       0.12500000 </v>
   <v>       0.12500000 </v>
   <v>       0.12500000 </v>
   <v>       0.12500000 </v>
   <v>       0.12500000 </v>
  </varray>
 </kpoints>
 <parameters>
  <separator name="general" >
   <i type="string" name="SYSTEM">unknown system</i>
   <i type="logical" name="LCOMPAT"> F  </i>
  </separator>
  <separator name="electronic" >
   <i type="string" name="PREC">normal</i>
   <i name="ENMAX">    450.00000000</i>
   <i name="ENAUG">    605.39200000</i>
   <i name="EDIFF">      0.00001000</i>
   <i type="int" name="IALGO">    58</i>
   <i type="int" name="IWAVPR">    10</i>
   <i type="int" name="NBANDS">   636</i>
   <i type="int" name="NBANDSLOW">    -1</i>
   <i type="int" name="NBANDSHIGH">    -1</i>
   <i name="NELECT">   1056.00000000</i>
   <i type="int" name="TURBO">     0</i>
   <i type="int" name="IRESTART">     0</i>
   <i type="int" name="NREBOOT">     0</i>
   <i type="int" name="NMIN">     0</i>
   <i name="EREF">      0.00000000</i>
   <separator name="electronic smearing" >
    <i type="int" name="ISMEAR">     0</i>
    <i name="SIGMA">      0.05000000</i>
    <i name="KSPACING">      0.50000000</i>
    <i type="logical" name="KGAMMA"> T  </i>
    <i type="logical" name="KBLOWUP"> T  </i>
   </separator>
   <separator name="electronic projectors" >
    <i type="logical" name="LREAL"> T  </i>
    <v name="ROPT">     -0.00050000     -0.00050000</v>
    <i type="int" name="LMAXPAW">  -100</i>
    <i type="int" name="LMAXMIX">     2</i>
    <i type="logical" name="NLSPLINE"> F  </i>
   </separator>
   <separator name="electronic startup" >
    <i type="int" name="ISTART">     0</i>
    <i type="int" name="ICHARG">     0</i>
    <i type="int" name="INIWAV">     1</i>
   </separator>
   <separator name="electronic spin" >
    <i type="int" name="ISPIN">     1</i>
    <i type="logical" name="LNONCOLLINEAR"> F  </i>
    <v name="MAGMOM">      1.00000000      1.00000000      1.00000000      1.00000000      1.00000000      1.00000000      1.00000000      1.00000000      1.00000000      1.00000000      1.00000000      1.00000000      1.00000000      1.00000000      1.00000000      1.00000000      1.00000000      1.00000000      1.00000000      1.00000000
      1.00000000      1.00000000      1.00000000      1.00000000      1.00000000      1.00000000      1.00000000      1.00000000      1.00000000      1.00000000      1.00000000      1.00000000      1.00000000      1.00000000      1.00000000      1.00000000      1.00000000      1.00000000      1.00000000      1.00000000
      1.00000000      1.00000000      1.00000000      1.00000000      1.00000000      1.00000000      1.00000000      1.00000000      1.00000000      1.00000000      1.00000000      1.00000000      1.00000000      1.00000000      1.00000000      1.00000000      1.00000000      1.00000000      1.00000000      1.00000000
      1.00000000      1.00000000      1.00000000      1.00000000      1.00000000      1.00000000      1.00000000      1.00000000      1.00000000      1.00000000      1.00000000      1.00000000      1.00000000      1.00000000      1.00000000      1.00000000      1.00000000      1.00000000      1.00000000      1.00000000
      1.00000000      1.00000000      1.00000000      1.00000000      1.00000000      1.00000000      1.00000000      1.00000000      1.00000000      1.00000000      1.00000000      1.00000000      1.00000000      1.00000000      1.00000000      1.00000000      1.00000000      1.00000000      1.00000000      1.00000000
      1.00000000      1.00000000      1.00000000      1.00000000      1.00000000      1.00000000      1.00000000      1.00000000      1.00000000      1.00000000      1.00000000      1.00000000      1.00000000      1.00000000      1.00000000      1.00000000      1.00000000      1.00000000      1.00000000      1.00000000
</v>
    <i name="NUPDOWN">     -1.00000000</i>
    <i type="logical" name="LSORBIT"> F  </i>
    <v name="SAXIS">      0.00000000      0.00000000      1.00000000</v>
    <i type="logical" name="LSPIRAL"> F  </i>
    <v name="QSPIRAL">      0.00000000      0.00000000      0.00000000</v>
    <i type="logical" name="LZEROZ"> F  </i>
   </separator>
   <separator name="electronic exchange-correlation" >
    <i type="logical" name="LASPH"> F  </i>
    <i type="logical" name="LMETAGGA"> F  </i>
   </separator>
   <separator name="electronic convergence" >
    <i type="int" name="NELM">    60</i>
    <i type="int" name="NELMDL">    -5</i>
    <i type="int" name="NELMIN">     2</i>
    <i name="ENINI">    450.00000000</i>
    <separator name="electronic convergence detail" >
     <i type="logical" name="LDIAG"> T  </i>
     <i type="logical" name="LSUBROT"> F  </i>
     <i name="WEIMIN">      0.00000000</i>
     <i name="EBREAK">      0.00000000</i>
     <i name="DEPER">      0.30000000</i>
     <i type="int" name="NRMM">     4</i>
     <i name="TIME">      0.40000000</i>
    </separator>
   </separator>
   <separator name="electronic mixer" >
    <i name="AMIX">      0.40000000</i>
    <i name="BMIX">      1.00000000</i>
    <i name="AMIN">      0.10000000</i>
    <i name="AMIX_MAG">      1.60000000</i>
    <i name="BMIX_MAG">      1.00000000</i>
    <separator name="electronic mixer details" >
     <i type="int" name="IMIX">     4</i>
     <i type="logical" name="MIXFIRST"> F  </i>
     <i type="int" name="MAXMIX">   -45</i>
     <i name="WC">    100.00000000</i>
     <i type="int" name="INIMIX">     1</i>
     <i type="int" name="MIXPRE">     1</i>
     <i type="int" name="MREMOVE">     5</i>
    </separator>
   </separator>
   <separator name="electronic dipolcorrection" >
    <i type="logical" name="LDIPOL"> F  </i>
    <i type="logical" name="LMONO"> F  </i>
    <i type="int" name="IDIPOL">     0</i>
    <i name="EPSILON">      1.00000000</i>
    <v name="DIPOL">   -100.00000000   -100.00000000   -100.00000000</v>
    <i name="EFIELD">      0.00000000</i>
   </separator>
  </separator>
  <separator name="grids" >
   <i type="int" name="NGX">    64</i>
   <i type="int" name="NGY">    48</i>
   <i type="int" name="NGZ">    60</i>
   <i type="int" name="NGXF">   128</i>
   <i type="int" name="NGYF">    96</i>
   <i type="int" name="NGZF">   120</i>
   <i type="logical" name="ADDGRID"> F  </i>
  </separator>
  <separator name="ionic" >
   <i type="int" name="NSW">     0</i>
   <i type="int" name="IBRION">    -1</i>
   <i type="int" name="MDALGO">     0</i>
   <i type="int" name="ISIF">     2</i>
   <i name="PSTRESS">      0.00000000</i>
   <i name="EDIFFG">     -0.00500000</i>
   <i type="int" name="NFREE">     0</i>
   <i name="POTIM">      0.50000000</i>
   <i name="SMASS">     -3.00000000</i>
   <i name="SCALEE">      1.00000000</i>
  </separator>
  <separator name="ionic md" >
   <i name="TEBEG">      0.00010000</i>
   <i name="TEEND">      0.00010000</i>
   <i type="int" name="NBLOCK">     1</i>
   <i type="int" name="KBLOCK">     1</i>
   <i type="int" name="NPACO">   256</i>
   <i name="APACO">     10.00000000</i>
  </separator>
  <separator name="symmetry" >
   <i type="int" name="ISYM">     3</i>
   <i name="SYMPREC">      0.00001000</i>
  </separator>
  <separator name="dos" >
   <i type="int" name="LORBIT">     0</i>
   <v name="RWIGS">     -1.00000000     -1.00000000</v>
   <i type="int" name="NEDOS">   301</i>
   <i name="EMIN">     10.00000000</i>
   <i name="EMAX">    -10.00000000</i>
   <i name="EFERMI">      0.00000000</i>
  </separator>
  <separator name="writing" >
   <i type="int" name="NWRITE">     2</i>
   <i type="logical" name="LWAVE"> T  </i>
   <i type="logical" name="LDOWNSAMPLE"> F  </i>
   <i type="logical" name="LCHARG"> T  </i>
   <i type="logical" name="LPARD"> F  </i>
   <i type="logical" name="LVTOT"> F  </i>
   <i type="logical" name="LVHAR"> F  </i>
   <i type="logical" name="LELF"> F  </i>
   <i type="logical" name="LOPTICS"> F  </i>
   <v name="STM">      0.00000000      0.00000000      0.00000000      0.00000000      0.00000000      0.00000000      0.00000000</v>
  </separator>
  <separator name="performance" >
   <i type="int" name="NPAR">     4</i>
   <i type="int" name="NSIM">     4</i>
   <i type="int" name="NBLK">    -1</i>
   <i type="logical" name="LPLANE"> T  </i>
   <i type="logical" name="LSCALAPACK"> T  </i>
   <i type="logical" name="LSCAAWARE"> F  </i>
   <i type="logical" name="LSCALU"> F  </i>
   <i type="logical" name="LASYNC"> F  </i>
   <i type="logical" name="LORBITALREAL"> F  </i>
  </separator>
  <separator name="miscellaneous" >
   <i type="int" name="IDIOT">     3</i>
   <i type="int" name="PHON_NSTRUCT">    -1</i>
   <i type="logical" name="LMUSIC"> F  </i>
   <v name="POMASS">     69.72300000     16.00000000</v>
   <v name="DARWINR">      0.00000000      0.00000000</v>
   <v name="DARWINV">      1.00000000      1.00000000</v>
   <i type="logical" name="LCORR"> T  </i>
  </separator>
  <i type="logical" name="GGA_COMPAT"> T  </i>
  <i type="logical" name="LBERRY"> F  </i>
  <i type="int" name="ICORELEVEL">     0</i>
  <i type="logical" name="LDAU"> F  </i>
  <i type="int" name="I_CONSTRAINED_M">     0</i>
  <separator name="electronic exchange-correlation" >
   <i type="string" name="GGA">--</i>
   <i type="int" name="VOSKOWN">     0</i>
   <i type="logical" name="LHFCALC"> T  </i>
   <i type="string" name="PRECFOCK">fast</i>
   <i type="logical" name="LSYMGRAD"> F  </i>
   <i type="logical" name="LHFONE"> F  </i>
   <i type="logical" name="LRHFCALC"> F  </i>
   <i type="logical" name="LTHOMAS"> F  </i>
   <i type="logical" name="LMODELHF"> F  </i>
   <i type="logical" name="LFOCKACE"> T  </i>
   <i name="ENCUT4O">     -1.00000000</i>
   <i type="int" name="EXXOEP">     0</i>
   <i type="int" name="FOURORBIT">     0</i>
   <i name="AEXX">      0.35000000</i>
   <i name="HFALPHA">     -1.00000000</i>
   <i name="MCALPHA">      0.00000000</i>
   <i name="ALDAX">      0.65000000</i>
   <i name="AGGAX">      0.65000000</i>
   <i name="ALDAC">      1.00000000</i>
   <i name="AGGAC">      1.00000000</i>
   <i type="int" name="NKREDX">     1</i>
   <i type="int" name="NKREDY">     1</i>
   <i type="int" name="NKREDZ">     1</i>
   <i type="logical" name="SHIFTRED"> F  </i>
   <i type="logical" name="ODDONLY"> F  </i>
   <i type="logical" name="EVENONLY"> F  </i>
   <i type="int" name="LMAXFOCK">     4</i>
   <i type="int" name="NMAXFOCKAE">     1</i>
   <i type="logical" name="LFOCKAEDFT"> F  </i>
   <i name="HFSCREEN">      0.18000000</i>
   <i name="HFSCREENC">      0.18000000</i>
   <i type="int" name="NBANDSGWLOW">     1</i>
  </separator>
  <separator name="vdW DFT" >
   <i type="logical" name="LUSE_VDW"> F  </i>
   <i type="int" name="IVDW_NL">     1</i>
   <i type="logical" name="LSPIN_VDW"> F  </i>
   <i name="Zab_VDW">     -0.84910000</i>
   <i name="PARAM1">      0.12340000</i>
   <i name="PARAM2">      1.00000000</i>
   <i name="PARAM3">      0.00000000</i>
  </separator>
  <separator name="model GW" >
   <i type="int" name="MODEL_GW">     0</i>
   <i name="MODEL_EPS0">      6.34402578</i>
   <i name="MODEL_ALPHA">      1.00000000</i>
  </separator>
  <separator name="linear response parameters" >
   <i type="logical" name="LEPSILON"> F  </i>
   <i type="logical" name="LRPA"> F  </i>
   <i type="logical" name="LNABLA"> F  </i>
   <i type="logical" name="LVEL"> F  </i>
   <i name="CSHIFT">      0.10000000</i>
   <i name="OMEGAMAX">     -1.00000000</i>
   <i name="DEG_THRESHOLD">      0.00200000</i>
   <i name="RTIME">     -0.10000000</i>
   <i name="WPLASMAI">      0.00000000</i>
   <v name="DFIELD">      0.00000000      0.00000000      0.00000000</v>
   <v name="WPLASMA">      0.00000000      0.00000000      0.00000000      0.00000000      0.00000000      0.00000000      0.00000000      0.00000000      0.00000000</v>
  </separator>
  <separator name="orbital magnetization" >
   <i type="logical" name="NUCIND"> F  </i>
   <v name="MAGPOS">      0.00000000      0.00000000      0.00000000</v>
   <i type="logical" name="LNICSALL"> T  </i>
   <i type="logical" name="ORBITALMAG"> F  </i>
   <i type="logical" name="LMAGBLOCH"> F  </i>
   <i type="logical" name="LCHIMAG"> F  </i>
   <i type="logical" name="LGAUGE"> T  </i>
   <i type="int" name="MAGATOM">     0</i>
   <v name="MAGDIPOL">      0.00000000      0.00000000      0.00000000</v>
   <v name="AVECCONST">      0.00000000      0.00000000      0.00000000</v>
  </separator>
  <separator name="response functions" >
   <i type="logical" name="LALL_IN_ONE"> F  </i>
   <i type="int" name="IALL_IN_ONE">    -1</i>
   <i type="int" name="NBANDS_WAVE">    -1</i>
   <i type="logical" name="LFINITE_TEMPERATURE"> F  </i>
   <i type="logical" name="LADDER"> F  </i>
   <i type="logical" name="LRPAFORCE"> F  </i>
   <i type="logical" name="LFXC"> F  </i>
   <i type="logical" name="LHARTREE"> T  </i>
   <i type="int" name="IBSE">     0</i>
   <v type="int" name="KPOINT">    -1     0     0     0</v>
   <i type="logical" name="LTCTC"> F  </i>
   <i type="logical" name="LTCTE"> F  </i>
   <i type="logical" name="LTETE"> F  </i>
   <i type="logical" name="LTRIPLET"> F  </i>
   <i type="logical" name="LFXCEPS"> F  </i>
   <i type="logical" name="LFXHEG"> F  </i>
   <i type="int" name="NATURALO">     2</i>
   <i type="logical" name="LHOLEGF"> F  </i>
   <i type="logical" name="L2ORDER"> F  </i>
   <i type="logical" name="LDMP1"> F  </i>
   <i type="logical" name="LMP2LT"> F  </i>
   <i type="logical" name="LSMP2LT"> F  </i>
   <i type="logical" name="LGWLF"> F  </i>
   <i name="ENCUTGW">     -1.60000002</i>
   <i name="ENCUTGWSOFT">     -1.60000002</i>
   <i name="ENCUTLF">     -1.00000000</i>
   <i type="logical" name="LESF_SPLINES"> F  </i>
   <i type="int" name="LMAXMP2">    -1</i>
   <i name="SCISSOR">      0.00000000</i>
   <i type="int" name="NOMEGA">     0</i>
   <i type="int" name="NOMEGAR">     0</i>
   <i type="int" name="NBANDSGW">    -1</i>
   <i type="int" name="NBANDSO">    -1</i>
   <i type="int" name="NBANDSV">    -1</i>
   <i type="int" name="NELMGW">     1</i>
   <i type="int" name="NELMHF">     1</i>
   <i type="int" name="DIM">     3</i>
   <i type="int" name="IESPILON">     4</i>
   <i type="int" name="ANTIRES">     0</i>
   <i name="OMEGAMAX">    -30.00000000</i>
   <i name="OMEGAMIN">    -30.00000000</i>
   <i name="OMEGATL">   -200.00000000</i>
   <i type="int" name="OMEGAGRID">     0</i>
   <i name="CSHIFT">     -0.10000000</i>
   <i type="logical" name="LSELFENERGY"> F  </i>
   <i type="logical" name="LSPECTRAL"> F  </i>
   <i type="logical" name="LSPECTRALGW"> F  </i>
   <i type="logical" name="LSINGLES"> F  </i>
   <i type="logical" name="LFERMIGW"> F  </i>
   <i type="logical" name="ODDONLYGW"> F  </i>
   <i type="logical" name="EVENONLYGW"> F  </i>
   <i type="int" name="NKREDLFX">     1</i>
   <i type="int" name="NKREDLFY">     1</i>
   <i type="int" name="NKREDLFZ">     1</i>
   <i type="int" name="MAXMEM">  2800</i>
   <i type="int" name="TELESCOPE">     0</i>
   <i type="int" name="NTAUPAR">    -1</i>
   <i type="int" name="NOMEGAPAR">    -1</i>
   <i name="DAMP_NEWTON">      0.80000001</i>
   <i name="LAMBDA">      1.00000000</i>
  </separator>
  <separator name="External order field" >
   <i name="OFIELD_KAPPA">      0.00000000</i>
   <v name="OFIELD_K">      0.00000000      0.00000000      0.00000000</v>
   <i name="OFIELD_Q6_NEAR">      0.00000000</i>
   <i name="OFIELD_Q6_FAR">      0.00000000</i>
   <i name="OFIELD_A">      0.00000000</i>
  </separator>
  <separator name="optional k-points parameters" >
   <i type="int" name="KPOINTS_OPT_MODE">     1</i>
   <i type="logical" name="LKPOINTS_OPT"> F  </i>
  </separator>
 </parameters>
 <atominfo>
  <atoms>     120 </atoms>
  <types>       2 </types>
  <array name="atoms" >
   <dimension dim="1">ion</dimension>
   <field type="string">element</field>
   <field type="int">atomtype</field>
   <set>
    <rc><c>Ga</c><c>   1</c></rc>
    <rc><c>Ga</c><c>   1</c></rc>
    <rc><c>Ga</c><c>   1</c></rc>
    <rc><c>Ga</c><c>   1</c></rc>
    <rc><c>Ga</c><c>   1</c></rc>
    <rc><c>Ga</c><c>   1</c></rc>
    <rc><c>Ga</c><c>   1</c></rc>
    <rc><c>Ga</c><c>   1</c></rc>
    <rc><c>Ga</c><c>   1</c></rc>
    <rc><c>Ga</c><c>   1</c></rc>
    <rc><c>Ga</c><c>   1</c></rc>
    <rc><c>Ga</c><c>   1</c></rc>
    <rc><c>Ga</c><c>   1</c></rc>
    <rc><c>Ga</c><c>   1</c></rc>
    <rc><c>Ga</c><c>   1</c></rc>
    <rc><c>Ga</c><c>   1</c></rc>
    <rc><c>Ga</c><c>   1</c></rc>
    <rc><c>Ga</c><c>   1</c></rc>
    <rc><c>Ga</c><c>   1</c></rc>
    <rc><c>Ga</c><c>   1</c></rc>
    <rc><c>Ga</c><c>   1</c></rc>
    <rc><c>Ga</c><c>   1</c></rc>
    <rc><c>Ga</c><c>   1</c></rc>
    <rc><c>Ga</c><c>   1</c></rc>
    <rc><c>Ga</c><c>   1</c></rc>
    <rc><c>Ga</c><c>   1</c></rc>
    <rc><c>Ga</c><c>   1</c></rc>
    <rc><c>Ga</c><c>   1</c></rc>
    <rc><c>Ga</c><c>   1</c></rc>
    <rc><c>Ga</c><c>   1</c></rc>
    <rc><c>Ga</c><c>   1</c></rc>
    <rc><c>Ga</c><c>   1</c></rc>
    <rc><c>Ga</c><c>   1</c></rc>
    <rc><c>Ga</c><c>   1</c></rc>
    <rc><c>Ga</c><c>   1</c></rc>
    <rc><c>Ga</c><c>   1</c></rc>
    <rc><c>Ga</c><c>   1</c></rc>
    <rc><c>Ga</c><c>   1</c></rc>
    <rc><c>Ga</c><c>   1</c></rc>
    <rc><c>Ga</c><c>   1</c></rc>
    <rc><c>Ga</c><c>   1</c></rc>
    <rc><c>Ga</c><c>   1</c></rc>
    <rc><c>Ga</c><c>   1</c></rc>
    <rc><c>Ga</c><c>   1</c></rc>
    <rc><c>Ga</c><c>   1</c></rc>
    <rc><c>Ga</c><c>   1</c></rc>
    <rc><c>Ga</c><c>   1</c></rc>
    <rc><c>Ga</c><c>   1</c></rc>
    <rc><c>O </c><c>   2</c></rc>
    <rc><c>O </c><c>   2</c></rc>
    <rc><c>O </c><c>   2</c></rc>
    <rc><c>O </c><c>   2</c></rc>
    <rc><c>O </c><c>   2</c></rc>
    <rc><c>O </c><c>   2</c></rc>
    <rc><c>O </c><c>   2</c></rc>
    <rc><c>O </c><c>   2</c></rc>
    <rc><c>O </c><c>   2</c></rc>
    <rc><c>O </c><c>   2</c></rc>
    <rc><c>O </c><c>   2</c></rc>
    <rc><c>O </c><c>   2</c></rc>
    <rc><c>O </c><c>   2</c></rc>
    <rc><c>O </c><c>   2</c></rc>
    <rc><c>O </c><c>   2</c></rc>
    <rc><c>O </c><c>   2</c></rc>
    <rc><c>O </c><c>   2</c></rc>
    <rc><c>O </c><c>   2</c></rc>
    <rc><c>O </c><c>   2</c></rc>
    <rc><c>O </c><c>   2</c></rc>
    <rc><c>O </c><c>   2</c></rc>
    <rc><c>O </c><c>   2</c></rc>
    <rc><c>O </c><c>   2</c></rc>
    <rc><c>O </c><c>   2</c></rc>
    <rc><c>O </c><c>   2</c></rc>
    <rc><c>O </c><c>   2</c></rc>
    <rc><c>O </c><c>   2</c></rc>
    <rc><c>O </c><c>   2</c></rc>
    <rc><c>O </c><c>   2</c></rc>
    <rc><c>O </c><c>   2</c></rc>
    <rc><c>O </c><c>   2</c></rc>
    <rc><c>O </c><c>   2</c></rc>
    <rc><c>O </c><c>   2</c></rc>
    <rc><c>O </c><c>   2</c></rc>
    <rc><c>O </c><c>   2</c></rc>
    <rc><c>O </c><c>   2</c></rc>
    <rc><c>O </c><c>   2</c></rc>
    <rc><c>O </c><c>   2</c></rc>
    <rc><c>O </c><c>   2</c></rc>
    <rc><c>O </c><c>   2</c></rc>
    <rc><c>O </c><c>   2</c></rc>
    <rc><c>O </c><c>   2</c></rc>
    <rc><c>O </c><c>   2</c></rc>
    <rc><c>O </c><c>   2</c></rc>
    <rc><c>O </c><c>   2</c></rc>
    <rc><c>O </c><c>   2</c></rc>
    <rc><c>O </c><c>   2</c></rc>
    <rc><c>O </c><c>   2</c></rc>
    <rc><c>O </c><c>   2</c></rc>
    <rc><c>O </c><c>   2</c></rc>
    <rc><c>O </c><c>   2</c></rc>
    <rc><c>O </c><c>   2</c></rc>
    <rc><c>O </c><c>   2</c></rc>
    <rc><c>O </c><c>   2</c></rc>
    <rc><c>O </c><c>   2</c></rc>
    <rc><c>O </c><c>   2</c></rc>
    <rc><c>O </c><c>   2</c></rc>
    <rc><c>O </c><c>   2</c></rc>
    <rc><c>O </c><c>   2</c></rc>
    <rc><c>O </c><c>   2</c></rc>
    <rc><c>O </c><c>   2</c></rc>
    <rc><c>O </c><c>   2</c></rc>
    <rc><c>O </c><c>   2</c></rc>
    <rc><c>O </c><c>   2</c></rc>
    <rc><c>O </c><c>   2</c></rc>
    <rc><c>O </c><c>   2</c></rc>
    <rc><c>O </c><c>   2</c></rc>
    <rc><c>O </c><c>   2</c></rc>
    <rc><c>O </c><c>   2</c></rc>
    <rc><c>O </c><c>   2</c></rc>
    <rc><c>O </c><c>   2</c></rc>
    <rc><c>O </c><c>   2</c></rc>
   </set>
  </array>
  <array name="atomtypes" >
   <dimension dim="1">type</dimension>
   <field type="int">atomspertype</field>
   <field type="string">element</field>
   <field>mass</field>
   <field>valence</field>
   <field type="string">pseudopotential</field>
   <set>
    <rc><c>  48</c><c>Ga</c><c>     69.72300000</c><c>     13.00000000</c><c>  PAW_PBE Ga_d 06Jul2010                </c></rc>
    <rc><c>  72</c><c>O </c><c>     16.00000000</c><c>      6.00000000</c><c>  PAW_PBE O 08Apr2002                   </c></rc>
   </set>
  </array>
 </atominfo>
 <structure name="initialpos" >
  <crystal>
   <varray name="basis" >
    <v>       0.00000000      12.28047342       0.00000000 </v>
    <v>       9.14270205       0.00000000       0.00000000 </v>
    <v>       0.00000000      -2.76826177     -11.30069772 </v>
   </varray>
   <i name="volume">   1268.80515525 </i>
   <varray name="rec_basis" >
    <v>       0.00000000       0.08143009      -0.01994742 </v>
    <v>       0.10937686      -0.00000000       0.00000000 </v>
    <v>       0.00000000       0.00000000      -0.08849011 </v>
   </varray>
  </crystal>
  <varray name="positions" >
   <v>       0.65883830       0.00000000       0.15736517 </v>
   <v>       0.65883830       0.00000000       0.65736517 </v>
   <v>       0.65883830       0.33333333       0.15736517 </v>
   <v>       0.65883830       0.33333333       0.65736517 </v>
   <v>       0.65883830       0.66666667       0.15736517 </v>
   <v>       0.65883830       0.66666667       0.65736517 </v>
   <v>       0.84116170       0.16666667       0.34263483 </v>
   <v>       0.84116170       0.16666667       0.84263483 </v>
   <v>       0.84116170       0.50000000       0.34263483 </v>
   <v>       0.84116170       0.50000000       0.84263483 </v>
   <v>       0.84116170       0.83333333       0.34263483 </v>
   <v>       0.84116170       0.83333333       0.84263483 </v>
   <v>       0.59047440       0.16666667       0.39739300 </v>
   <v>       0.59047440       0.16666667       0.89739300 </v>
   <v>       0.59047440       0.50000000       0.39739300 </v>
   <v>       0.59047440       0.50000000       0.89739300 </v>
   <v>       0.59047440       0.83333333       0.39739300 </v>
   <v>       0.59047440       0.83333333       0.89739300 </v>
   <v>       0.90952560       0.00000000       0.10260700 </v>
   <v>       0.90952560       0.00000000       0.60260700 </v>
   <v>       0.90952560       0.33333333       0.10260700 </v>
   <v>       0.90952560       0.33333333       0.60260700 </v>
   <v>       0.90952560       0.66666667       0.10260700 </v>
   <v>       0.90952560       0.66666667       0.60260700 </v>
   <v>       0.15883830       0.16666667       0.15736517 </v>
   <v>       0.15883830       0.16666667       0.65736517 </v>
   <v>       0.15883830       0.50000000       0.15736517 </v>
   <v>       0.15883830       0.50000000       0.65736517 </v>
   <v>       0.15883830       0.83333333       0.15736517 </v>
   <v>       0.15883830       0.83333333       0.65736517 </v>
   <v>       0.34116170       0.00000000       0.34263483 </v>
   <v>       0.34116170       0.00000000       0.84263483 </v>
   <v>       0.34116170       0.33333333       0.34263483 </v>
   <v>       0.34116170       0.33333333       0.84263483 </v>
   <v>       0.34116170       0.66666667       0.34263483 </v>
   <v>       0.34116170       0.66666667       0.84263483 </v>
   <v>       0.09047440       0.00000000       0.39739300 </v>
   <v>       0.09047440       0.00000000       0.89739300 </v>
   <v>       0.09047440       0.33333333       0.39739300 </v>
   <v>       0.09047440       0.33333333       0.89739300 </v>
   <v>       0.09047440       0.66666667       0.39739300 </v>
   <v>       0.09047440       0.66666667       0.89739300 </v>
   <v>       0.40952560       0.16666667       0.10260700 </v>
   <v>       0.40952560       0.16666667       0.60260700 </v>
   <v>       0.40952560       0.50000000       0.10260700 </v>
   <v>       0.40952560       0.50000000       0.60260700 </v>
   <v>       0.40952560       0.83333333       0.10260700 </v>
   <v>       0.40952560       0.83333333       0.60260700 </v>
   <v>       0.99646913       0.16666667       0.12833205 </v>
   <v>       0.99646913       0.16666667       0.62833205 </v>
   <v>       0.99646913       0.50000000       0.12833205 </v>
   <v>       0.99646913       0.50000000       0.62833205 </v>
   <v>       0.99646913       0.83333333       0.12833205 </v>
   <v>       0.99646913       0.83333333       0.62833205 </v>
   <v>       0.50353087       0.00000000       0.37166795 </v>
   <v>       0.50353087       0.00000000       0.87166795 </v>
   <v>       0.50353087       0.33333333       0.37166795 </v>
   <v>       0.50353087       0.33333333       0.87166795 </v>
   <v>       0.50353087       0.66666667       0.37166795 </v>
   <v>       0.50353087       0.66666667       0.87166795 </v>
   <v>       0.67337106       0.16666667       0.28161508 </v>
   <v>       0.67337106       0.16666667       0.78161508 </v>
   <v>       0.67337106       0.50000000       0.28161508 </v>
   <v>       0.67337106       0.50000000       0.78161508 </v>
   <v>       0.67337106       0.83333333       0.28161508 </v>
   <v>       0.67337106       0.83333333       0.78161508 </v>
   <v>       0.82662894       0.00000000       0.21838492 </v>
   <v>       0.82662894       0.00000000       0.71838492 </v>
   <v>       0.82662894       0.33333333       0.21838492 </v>
   <v>       0.82662894       0.33333333       0.71838492 </v>
   <v>       0.82662894       0.66666667       0.21838492 </v>
   <v>       0.82662894       0.66666667       0.71838492 </v>
   <v>       0.83549502       0.00000000       0.44542296 </v>
   <v>       0.83549502       0.00000000       0.94542296 </v>
   <v>       0.83549502       0.33333333       0.44542296 </v>
   <v>       0.83549502       0.33333333       0.94542296 </v>
   <v>       0.83549502       0.66666667       0.44542296 </v>
   <v>       0.83549502       0.66666667       0.94542296 </v>
   <v>       0.66450498       0.16666667       0.05457704 </v>
   <v>       0.66450498       0.16666667       0.55457704 </v>
   <v>       0.66450498       0.50000000       0.05457704 </v>
   <v>       0.66450498       0.50000000       0.55457704 </v>
   <v>       0.66450498       0.83333333       0.05457704 </v>
   <v>       0.66450498       0.83333333       0.55457704 </v>
   <v>       0.49646913       0.00000000       0.12833205 </v>
   <v>       0.49646913       0.00000000       0.62833205 </v>
   <v>       0.49646913       0.33333333       0.12833205 </v>
   <v>       0.49646913       0.33333333       0.62833205 </v>
   <v>       0.49646913       0.66666667       0.12833205 </v>
   <v>       0.49646913       0.66666667       0.62833205 </v>
   <v>       0.00353087       0.16666667       0.37166795 </v>
   <v>       0.00353087       0.16666667       0.87166795 </v>
   <v>       0.00353087       0.50000000       0.37166795 </v>
   <v>       0.00353087       0.50000000       0.87166795 </v>
   <v>       0.00353087       0.83333333       0.37166795 </v>
   <v>       0.00353087       0.83333333       0.87166795 </v>
   <v>       0.17337106       0.00000000       0.28161508 </v>
   <v>       0.17337106       0.00000000       0.78161508 </v>
   <v>       0.17337106       0.33333333       0.28161508 </v>
   <v>       0.17337106       0.33333333       0.78161508 </v>
   <v>       0.17337106       0.66666667       0.28161508 </v>
   <v>       0.17337106       0.66666667       0.78161508 </v>
   <v>       0.32662894       0.16666667       0.21838492 </v>
   <v>       0.32662894       0.16666667       0.71838492 </v>
   <v>       0.32662894       0.50000000       0.21838492 </v>
   <v>       0.32662894       0.50000000       0.71838492 </v>
   <v>       0.32662894       0.83333333       0.21838492 </v>
   <v>       0.32662894       0.83333333       0.71838492 </v>
   <v>       0.33549502       0.16666667       0.44542296 </v>
   <v>       0.33549502       0.16666667       0.94542296 </v>
   <v>       0.33549502       0.50000000       0.44542296 </v>
   <v>       0.33549502       0.50000000       0.94542296 </v>
   <v>       0.33549502       0.83333333       0.44542296 </v>
   <v>       0.33549502       0.83333333       0.94542296 </v>
   <v>       0.16450498       0.00000000       0.05457704 </v>
   <v>       0.16450498       0.00000000       0.55457704 </v>
   <v>       0.16450498       0.33333333       0.05457704 </v>
   <v>       0.16450498       0.33333333       0.55457704 </v>
   <v>       0.16450498       0.66666667       0.05457704 </v>
   <v>       0.16450498       0.66666667       0.55457704 </v>
  </varray>
 </structure>
 <calculation>
  <scstep>
   <time name="total">   16.24   16.29</time>
   <energy>
    <i name="alphaZ">   5537.53060054 </i>
    <i name="ewald"> -88727.78127417 </i>
    <i name="hartreedc">  -2110.61857496 </i>
    <i name="XCdc">   2806.42393171 </i>
    <i name="pawpsdc">  56249.36288509 </i>
    <i name="pawaedc"> -88057.94552872 </i>
    <i name="eentropy">     -0.00244221 </i>
    <i name="bandstr"> -41022.17126443 </i>
    <i name="atom"> 133860.07490555 </i>
    <i name="e_fr_energy"> -21465.12676159 </i>
    <i name="e_wo_entrp"> -21465.12431938 </i>
    <i name="e_0_energy"> -21465.12554048 </i>
   </energy>
  </scstep>
  <scstep>
   <time name="total">   18.50   18.47</time>
   <energy>
    <i name="e_fr_energy"> -65515.11163013 </i>
    <i name="e_wo_entrp"> -65515.09330217 </i>
    <i name="e_0_energy"> -65515.10246615 </i>
   </energy>
  </scstep>
  <scstep>
   <time name="total">   19.82   19.80</time>
   <energy>
    <i name="e_fr_energy"> -69948.95777926 </i>
    <i name="e_wo_entrp"> -69948.90388192 </i>
    <i name="e_0_energy"> -69948.93083059 </i>
   </energy>
  </scstep>
  <scstep>
   <time name="total">   22.26   22.23</time>
   <energy>
    <i name="e_fr_energy"> -70447.63534484 </i>
    <i name="e_wo_entrp"> -70447.53141890 </i>
    <i name="e_0_energy"> -70447.58338187 </i>
   </energy>
  </scstep>
  <scstep>
   <time name="total"> 1077.30 1077.27</time>
   <energy>
    <i name="e_fr_energy"> -37398.53421880 </i>
    <i name="e_wo_entrp"> -37398.53124926 </i>
    <i name="e_0_energy"> -37398.53273403 </i>
   </energy>
  </scstep>
  <scstep>
   <time name="total"> 3005.36 3410.31</time>
   <energy>
    <i name="e_fr_energy">  14518.23530122 </i>
    <i name="e_wo_entrp">  14518.28488837 </i>
    <i name="e_0_energy">  14518.26009480 </i>
   </energy>
  </scstep>
  <scstep>
   <time name="total"> 2025.30 2025.16</time>
   <energy>
    <i name="e_fr_energy">   2434.70785043 </i>
    <i name="e_wo_entrp">   2434.76550513 </i>
    <i name="e_0_energy">   2434.73667778 </i>
   </energy>
  </scstep>
  <scstep>
   <time name="total"> 2033.72 2033.68</time>
   <energy>
    <i name="e_fr_energy">   1212.66800904 </i>
    <i name="e_wo_entrp">   1212.74620088 </i>
    <i name="e_0_energy">   1212.70710496 </i>
   </energy>
  </scstep>
  <scstep>
   <time name="total"> 2046.11 2045.99</time>
   <energy>
    <i name="e_fr_energy">    428.97156993 </i>
    <i name="e_wo_entrp">    429.01599946 </i>
    <i name="e_0_energy">    428.99378470 </i>
   </energy>
  </scstep>
  <scstep>
   <time name="total"> 2031.22 2031.11</time>
   <energy>
    <i name="e_fr_energy">    302.39259420 </i>
    <i name="e_wo_entrp">    302.40298660 </i>
    <i name="e_0_energy">    302.39779040 </i>
   </energy>
  </scstep>
  <scstep>
   <time name="total"> 2023.00 2022.84</time>
   <energy>
    <i name="e_fr_energy">    -76.54351001 </i>
    <i name="e_wo_entrp">    -76.53516998 </i>
    <i name="e_0_energy">    -76.53933999 </i>
   </energy>
  </scstep>
  <scstep>
   <time name="total"> 2011.80 2011.65</time>
   <energy>
    <i name="e_fr_energy">   -455.58704318 </i>
    <i name="e_wo_entrp">   -455.58048266 </i>
    <i name="e_0_energy">   -455.58376292 </i>
   </energy>
  </scstep>
  <scstep>
   <time name="total"> 2016.03 2015.81</time>
   <energy>
    <i name="e_fr_energy">   -688.29926221 </i>
    <i name="e_wo_entrp">   -688.29847771 </i>
    <i name="e_0_energy">   -688.29886996 </i>
   </energy>
  </scstep>
  <scstep>
   <time name="total"> 2002.09 2001.92</time>
   <energy>
    <i name="e_fr_energy">   -818.88231987 </i>
    <i name="e_wo_entrp">   -818.88231987 </i>
    <i name="e_0_energy">   -818.88231987 </i>
   </energy>
  </scstep>
  <scstep>
   <time name="total"> 2011.50 2011.37</time>
   <energy>
    <i name="e_fr_energy">   -908.15185164 </i>
    <i name="e_wo_entrp">   -908.15185164 </i>
    <i name="e_0_energy">   -908.15185164 </i>
   </energy>
  </scstep>
  <scstep>
   <time name="total"> 2006.20 2006.11</time>
   <energy>
    <i name="e_fr_energy">   -947.89054355 </i>
    <i name="e_wo_entrp">   -947.89054355 </i>
    <i name="e_0_energy">   -947.89054355 </i>
   </energy>
  </scstep>
  <scstep>
   <time name="total"> 1996.80 1996.68</time>
   <energy>
    <i name="e_fr_energy">   -969.28637955 </i>
    <i name="e_wo_entrp">   -969.28637955 </i>
    <i name="e_0_energy">   -969.28637955 </i>
   </energy>
  </scstep>
  <scstep>
   <time name="total"> 2012.03 2011.89</time>
   <energy>
    <i name="e_fr_energy">   -979.30959360 </i>
    <i name="e_wo_entrp">   -979.30959360 </i>
    <i name="e_0_energy">   -979.30959360 </i>
   </energy>
  </scstep>
  <scstep>
   <time name="total"> 2004.85 2004.73</time>
   <energy>
    <i name="e_fr_energy">   -984.08340419 </i>
    <i name="e_wo_entrp">   -984.08340419 </i>
    <i name="e_0_energy">   -984.08340419 </i>
   </energy>
  </scstep>
  <scstep>
   <time name="total"> 1985.18 1985.08</time>
   <energy>
    <i name="e_fr_energy">   -986.81194356 </i>
    <i name="e_wo_entrp">   -986.81194356 </i>
    <i name="e_0_energy">   -986.81194356 </i>
   </energy>
  </scstep>
  <scstep>
   <time name="total"> 2023.08 2022.94</time>
   <energy>
    <i name="e_fr_energy">   -988.09082836 </i>
    <i name="e_wo_entrp">   -988.09082836 </i>
    <i name="e_0_energy">   -988.09082836 </i>
   </energy>
  </scstep>
  <scstep>
   <time name="total"> 2006.84 2006.74</time>
   <energy>
    <i name="e_fr_energy">   -988.72083941 </i>
    <i name="e_wo_entrp">   -988.72083941 </i>
    <i name="e_0_energy">   -988.72083941 </i>
   </energy>
  </scstep>
  <scstep>
   <time name="total"> 2007.86 2007.74</time>
   <energy>
    <i name="e_fr_energy">   -989.04475657 </i>
    <i name="e_wo_entrp">   -989.04475657 </i>
    <i name="e_0_energy">   -989.04475657 </i>
   </energy>
  </scstep>
  <scstep>
   <time name="total"> 2013.42 2013.35</time>
   <energy>
    <i name="e_fr_energy">   -989.18440094 </i>
    <i name="e_wo_entrp">   -989.18440094 </i>
    <i name="e_0_energy">   -989.18440094 </i>
   </energy>
  </scstep>
  <scstep>
   <time name="total"> 1992.00 1991.86</time>
   <energy>
    <i name="e_fr_energy">   -989.25592905 </i>
    <i name="e_wo_entrp">   -989.25592905 </i>
    <i name="e_0_energy">   -989.25592905 </i>
   </energy>
  </scstep>
  <scstep>
   <time name="total"> 1999.99 1999.84</time>
   <energy>
    <i name="e_fr_energy">   -989.29550842 </i>
    <i name="e_wo_entrp">   -989.29550842 </i>
    <i name="e_0_energy">   -989.29550842 </i>
   </energy>
  </scstep>
  <scstep>
   <time name="total"> 1996.22 1996.01</time>
   <energy>
    <i name="e_fr_energy">   -989.31428672 </i>
    <i name="e_wo_entrp">   -989.31428672 </i>
    <i name="e_0_energy">   -989.31428672 </i>
   </energy>
  </scstep>
  <scstep>
   <time name="total"> 1981.38 1981.18</time>
   <energy>
    <i name="e_fr_energy">   -989.32373507 </i>
    <i name="e_wo_entrp">   -989.32373507 </i>
    <i name="e_0_energy">   -989.32373507 </i>
   </energy>
  </scstep>
  <scstep>
   <time name="total"> 1963.40 1963.16</time>
   <energy>
    <i name="e_fr_energy">   -989.32868674 </i>
    <i name="e_wo_entrp">   -989.32868674 </i>
    <i name="e_0_energy">   -989.32868674 </i>
   </energy>
  </scstep>
  <scstep>
   <time name="total"> 1962.95 1962.72</time>
   <energy>
    <i name="e_fr_energy">   -989.33102639 </i>
    <i name="e_wo_entrp">   -989.33102639 </i>
    <i name="e_0_energy">   -989.33102639 </i>
   </energy>
  </scstep>
  <scstep>
   <time name="total"> 1964.34 1964.13</time>
   <energy>
    <i name="e_fr_energy">   -989.33224416 </i>
    <i name="e_wo_entrp">   -989.33224416 </i>
    <i name="e_0_energy">   -989.33224416 </i>
   </energy>
  </scstep>
  <scstep>
   <time name="total"> 1975.25 1975.06</time>
   <energy>
    <i name="e_fr_energy">   -989.33287392 </i>
    <i name="e_wo_entrp">   -989.33287392 </i>
    <i name="e_0_energy">   -989.33287392 </i>
   </energy>
  </scstep>
  <scstep>
   <time name="total"> 1979.77 1979.57</time>
   <energy>
    <i name="e_fr_energy">   -989.33317670 </i>
    <i name="e_wo_entrp">   -989.33317670 </i>
    <i name="e_0_energy">   -989.33317670 </i>
   </energy>
  </scstep>
  <scstep>
   <time name="total"> 1982.91 1982.71</time>
   <energy>
    <i name="e_fr_energy">   -989.33334006 </i>
    <i name="e_wo_entrp">   -989.33334006 </i>
    <i name="e_0_energy">   -989.33334006 </i>
   </energy>
  </scstep>
  <scstep>
   <time name="total"> 1977.71 1977.52</time>
   <energy>
    <i name="e_fr_energy">   -989.33342498 </i>
    <i name="e_wo_entrp">   -989.33342498 </i>
    <i name="e_0_energy">   -989.33342498 </i>
   </energy>
  </scstep>
  <scstep>
   <time name="total"> 2003.65 2003.60</time>
   <energy>
    <i name="e_fr_energy">   -989.33346550 </i>
    <i name="e_wo_entrp">   -989.33346550 </i>
    <i name="e_0_energy">   -989.33346550 </i>
   </energy>
  </scstep>
  <scstep>
   <time name="total"> 2008.81 2008.72</time>
   <energy>
    <i name="e_fr_energy">   -989.33348684 </i>
    <i name="e_wo_entrp">   -989.33348684 </i>
    <i name="e_0_energy">   -989.33348684 </i>
   </energy>
  </scstep>
  <scstep>
   <time name="total"> 1995.94 1995.89</time>
   <energy>
    <i name="e_fr_energy">   -989.33350324 </i>
    <i name="e_wo_entrp">   -989.33350324 </i>
    <i name="e_0_energy">   -989.33350324 </i>
   </energy>
  </scstep>
  <scstep>
   <time name="total"> 2986.08 3005.60</time>
   <energy>
    <i name="alphaZ">   5537.53060054 </i>
    <i name="ewald"> -88727.78127417 </i>
    <i name="hartreedc"> -34044.81719833 </i>
    <i name="XCdc">   2800.81517544 </i>
    <i name="pawpsdc"> 121749.11643740 </i>
    <i name="pawaedc">-137249.26457396 </i>
    <i name="eentropy">     -0.00000000 </i>
    <i name="bandstr">  -9236.10926130 </i>
    <i name="atom"> 133860.07490555 </i>
    <i name="e_fr_energy">   -989.33350750 </i>
    <i name="e_wo_entrp">   -989.33350750 </i>
    <i name="e_0_energy">   -989.33350750 </i>
   </energy>
  </scstep>
  <structure>
   <crystal>
    <varray name="basis" >
     <v>       0.00000000      12.28047342       0.00000000 </v>
     <v>       9.14270205       0.00000000       0.00000000 </v>
     <v>       0.00000000      -2.76826177     -11.30069772 </v>
    </varray>
    <i name="volume">   1268.80515525 </i>
    <varray name="rec_basis" >
     <v>       0.00000000       0.08143009      -0.01994742 </v>
     <v>       0.10937686      -0.00000000       0.00000000 </v>
     <v>       0.00000000       0.00000000      -0.08849011 </v>
    </varray>
   </crystal>
   <varray name="positions" >
    <v>       0.65883830       0.00000000       0.15736517 </v>
    <v>       0.65883830       0.00000000       0.65736517 </v>
    <v>       0.65883830       0.33333333       0.15736517 </v>
    <v>       0.65883830       0.33333333       0.65736517 </v>
    <v>       0.65883830       0.66666667       0.15736517 </v>
    <v>       0.65883830       0.66666667       0.65736517 </v>
    <v>       0.84116170       0.16666667       0.34263483 </v>
    <v>       0.84116170       0.16666667       0.84263483 </v>
    <v>       0.84116170       0.50000000       0.34263483 </v>
    <v>       0.84116170       0.50000000       0.84263483 </v>
    <v>       0.84116170       0.83333333       0.34263483 </v>
    <v>       0.84116170       0.83333333       0.84263483 </v>
    <v>       0.59047440       0.16666667       0.39739300 </v>
    <v>       0.59047440       0.16666667       0.89739300 </v>
    <v>       0.59047440       0.50000000       0.39739300 </v>
    <v>       0.59047440       0.50000000       0.89739300 </v>
    <v>       0.59047440       0.83333333       0.39739300 </v>
    <v>       0.59047440       0.83333333       0.89739300 </v>
    <v>       0.90952560       0.00000000       0.10260700 </v>
    <v>       0.90952560       0.00000000       0.60260700 </v>
    <v>       0.90952560       0.33333333       0.10260700 </v>
    <v>       0.90952560       0.33333333       0.60260700 </v>
    <v>       0.90952560       0.66666667       0.10260700 </v>
    <v>       0.90952560       0.66666667       0.60260700 </v>
    <v>       0.15883830       0.16666667       0.15736517 </v>
    <v>       0.15883830       0.16666667       0.65736517 </v>
    <v>       0.15883830       0.50000000       0.15736517 </v>
    <v>       0.15883830       0.50000000       0.65736517 </v>
    <v>       0.15883830       0.83333333       0.15736517 </v>
    <v>       0.15883830       0.83333333       0.65736517 </v>
    <v>       0.34116170       0.00000000       0.34263483 </v>
    <v>       0.34116170       0.00000000       0.84263483 </v>
    <v>       0.34116170       0.33333333       0.34263483 </v>
    <v>       0.34116170       0.33333333       0.84263483 </v>
    <v>       0.34116170       0.66666667       0.34263483 </v>
    <v>       0.34116170       0.66666667       0.84263483 </v>
    <v>       0.09047440       0.00000000       0.39739300 </v>
    <v>       0.09047440       0.00000000       0.89739300 </v>
    <v>       0.09047440       0.33333333       0.39739300 </v>
    <v>       0.09047440       0.33333333       0.89739300 </v>
    <v>       0.09047440       0.66666667       0.39739300 </v>
    <v>       0.09047440       0.66666667       0.89739300 </v>
    <v>       0.40952560       0.16666667       0.10260700 </v>
    <v>       0.40952560       0.16666667       0.60260700 </v>
    <v>       0.40952560       0.50000000       0.10260700 </v>
    <v>       0.40952560       0.50000000       0.60260700 </v>
    <v>       0.40952560       0.83333333       0.10260700 </v>
    <v>       0.40952560       0.83333333       0.60260700 </v>
    <v>       0.99646913       0.16666667       0.12833205 </v>
    <v>       0.99646913       0.16666667       0.62833205 </v>
    <v>       0.99646913       0.50000000       0.12833205 </v>
    <v>       0.99646913       0.50000000       0.62833205 </v>
    <v>       0.99646913       0.83333333       0.12833205 </v>
    <v>       0.99646913       0.83333333       0.62833205 </v>
    <v>       0.50353087       0.00000000       0.37166795 </v>
    <v>       0.50353087       0.00000000       0.87166795 </v>
    <v>       0.50353087       0.33333333       0.37166795 </v>
    <v>       0.50353087       0.33333333       0.87166795 </v>
    <v>       0.50353087       0.66666667       0.37166795 </v>
    <v>       0.50353087       0.66666667       0.87166795 </v>
    <v>       0.67337106       0.16666667       0.28161508 </v>
    <v>       0.67337106       0.16666667       0.78161508 </v>
    <v>       0.67337106       0.50000000       0.28161508 </v>
    <v>       0.67337106       0.50000000       0.78161508 </v>
    <v>       0.67337106       0.83333333       0.28161508 </v>
    <v>       0.67337106       0.83333333       0.78161508 </v>
    <v>       0.82662894       0.00000000       0.21838492 </v>
    <v>       0.82662894       0.00000000       0.71838492 </v>
    <v>       0.82662894       0.33333333       0.21838492 </v>
    <v>       0.82662894       0.33333333       0.71838492 </v>
    <v>       0.82662894       0.66666667       0.21838492 </v>
    <v>       0.82662894       0.66666667       0.71838492 </v>
    <v>       0.83549502       0.00000000       0.44542296 </v>
    <v>       0.83549502       0.00000000       0.94542296 </v>
    <v>       0.83549502       0.33333333       0.44542296 </v>
    <v>       0.83549502       0.33333333       0.94542296 </v>
    <v>       0.83549502       0.66666667       0.44542296 </v>
    <v>       0.83549502       0.66666667       0.94542296 </v>
    <v>       0.66450498       0.16666667       0.05457704 </v>
    <v>       0.66450498       0.16666667       0.55457704 </v>
    <v>       0.66450498       0.50000000       0.05457704 </v>
    <v>       0.66450498       0.50000000       0.55457704 </v>
    <v>       0.66450498       0.83333333       0.05457704 </v>
    <v>       0.66450498       0.83333333       0.55457704 </v>
    <v>       0.49646913       0.00000000       0.12833205 </v>
    <v>       0.49646913       0.00000000       0.62833205 </v>
    <v>       0.49646913       0.33333333       0.12833205 </v>
    <v>       0.49646913       0.33333333       0.62833205 </v>
    <v>       0.49646913       0.66666667       0.12833205 </v>
    <v>       0.49646913       0.66666667       0.62833205 </v>
    <v>       0.00353087       0.16666667       0.37166795 </v>
    <v>       0.00353087       0.16666667       0.87166795 </v>
    <v>       0.00353087       0.50000000       0.37166795 </v>
    <v>       0.00353087       0.50000000       0.87166795 </v>
    <v>       0.00353087       0.83333333       0.37166795 </v>
    <v>       0.00353087       0.83333333       0.87166795 </v>
    <v>       0.17337106       0.00000000       0.28161508 </v>
    <v>       0.17337106       0.00000000       0.78161508 </v>
    <v>       0.17337106       0.33333333       0.28161508 </v>
    <v>       0.17337106       0.33333333       0.78161508 </v>
    <v>       0.17337106       0.66666667       0.28161508 </v>
    <v>       0.17337106       0.66666667       0.78161508 </v>
    <v>       0.32662894       0.16666667       0.21838492 </v>
    <v>       0.32662894       0.16666667       0.71838492 </v>
    <v>       0.32662894       0.50000000       0.21838492 </v>
    <v>       0.32662894       0.50000000       0.71838492 </v>
    <v>       0.32662894       0.83333333       0.21838492 </v>
    <v>       0.32662894       0.83333333       0.71838492 </v>
    <v>       0.33549502       0.16666667       0.44542296 </v>
    <v>       0.33549502       0.16666667       0.94542296 </v>
    <v>       0.33549502       0.50000000       0.44542296 </v>
    <v>       0.33549502       0.50000000       0.94542296 </v>
    <v>       0.33549502       0.83333333       0.44542296 </v>
    <v>       0.33549502       0.83333333       0.94542296 </v>
    <v>       0.16450498       0.00000000       0.05457704 </v>
    <v>       0.16450498       0.00000000       0.55457704 </v>
    <v>       0.16450498       0.33333333       0.05457704 </v>
    <v>       0.16450498       0.33333333       0.55457704 </v>
    <v>       0.16450498       0.66666667       0.05457704 </v>
    <v>       0.16450498       0.66666667       0.55457704 </v>
   </varray>
  </structure>
  <varray name="forces" >
   <v>      -0.00000000       0.01505929       0.06927339 </v>
   <v>      -0.00000000       0.01505929       0.06927339 </v>
   <v>      -0.00000000       0.01505929       0.06927339 </v>
   <v>      -0.00000000       0.01505929       0.06927339 </v>
   <v>      -0.00000000       0.01505929       0.06927339 </v>
   <v>       0.00000000       0.01505929       0.06927339 </v>
   <v>       0.00000000      -0.01505929      -0.06927339 </v>
   <v>      -0.00000000      -0.01505929      -0.06927339 </v>
   <v>       0.00000000      -0.01505929      -0.06927339 </v>
   <v>      -0.00000000      -0.01505929      -0.06927339 </v>
   <v>      -0.00000000      -0.01505929      -0.06927339 </v>
   <v>      -0.00000000      -0.01505929      -0.06927339 </v>
   <v>       0.00000000      -0.06457576      -0.01391230 </v>
   <v>       0.00000000      -0.06457576      -0.01391230 </v>
   <v>      -0.00000000      -0.06457576      -0.01391230 </v>
   <v>      -0.00000000      -0.06457576      -0.01391230 </v>
   <v>       0.00000000      -0.06457576      -0.01391230 </v>
   <v>       0.00000000      -0.06457576      -0.01391230 </v>
   <v>      -0.00000000       0.06457576       0.01391230 </v>
   <v>      -0.00000000       0.06457576       0.01391230 </v>
   <v>       0.00000000       0.06457576       0.01391230 </v>
   <v>      -0.00000000       0.06457576       0.01391230 </v>
   <v>      -0.00000000       0.06457576       0.01391230 </v>
   <v>      -0.00000000       0.06457576       0.01391230 </v>
   <v>      -0.00000000       0.01505929       0.06927339 </v>
   <v>      -0.00000000       0.01505929       0.06927339 </v>
   <v>      -0.00000000       0.01505929       0.06927339 </v>
   <v>      -0.00000000       0.01505929       0.06927339 </v>
   <v>       0.00000000       0.01505929       0.06927339 </v>
   <v>       0.00000000       0.01505929       0.06927339 </v>
   <v>      -0.00000000      -0.01505929      -0.06927339 </v>
   <v>      -0.00000000      -0.01505929      -0.06927339 </v>
   <v>      -0.00000000      -0.01505929      -0.06927339 </v>
   <v>      -0.00000000      -0.01505929      -0.06927339 </v>
   <v>      -0.00000000      -0.01505929      -0.06927339 </v>
   <v>      -0.00000000      -0.01505929      -0.06927339 </v>
   <v>      -0.00000000      -0.06457576      -0.01391230 </v>
   <v>      -0.00000000      -0.06457576      -0.01391230 </v>
   <v>       0.00000000      -0.06457576      -0.01391230 </v>
   <v>      -0.00000000      -0.06457576      -0.01391230 </v>
   <v>      -0.00000000      -0.06457576      -0.01391230 </v>
   <v>       0.00000000      -0.06457576      -0.01391230 </v>
   <v>      -0.00000000       0.06457576       0.01391230 </v>
   <v>       0.00000000       0.06457576       0.01391230 </v>
   <v>       0.00000000       0.06457576       0.01391230 </v>
   <v>       0.00000000       0.06457576       0.01391230 </v>
   <v>      -0.00000000       0.06457576       0.01391230 </v>
   <v>      -0.00000000       0.06457576       0.01391230 </v>
   <v>      -0.00000000      -0.19386860       0.09464470 </v>
   <v>      -0.00000000      -0.19386860       0.09464470 </v>
   <v>       0.00000000      -0.19386860       0.09464470 </v>
   <v>       0.00000000      -0.19386860       0.09464470 </v>
   <v>       0.00000000      -0.19386860       0.09464470 </v>
   <v>      -0.00000000      -0.19386860       0.09464470 </v>
   <v>       0.00000000       0.19386860      -0.09464470 </v>
   <v>       0.00000000       0.19386860      -0.09464470 </v>
   <v>      -0.00000000       0.19386860      -0.09464470 </v>
   <v>       0.00000000       0.19386860      -0.09464470 </v>
   <v>      -0.00000000       0.19386860      -0.09464470 </v>
   <v>      -0.00000000       0.19386860      -0.09464470 </v>
   <v>       0.00000000      -0.05416357      -0.10676838 </v>
   <v>       0.00000000      -0.05416357      -0.10676838 </v>
   <v>       0.00000000      -0.05416357      -0.10676838 </v>
   <v>      -0.00000000      -0.05416357      -0.10676838 </v>
   <v>       0.00000000      -0.05416357      -0.10676838 </v>
   <v>       0.00000000      -0.05416357      -0.10676838 </v>
   <v>      -0.00000000       0.05416357       0.10676838 </v>
   <v>       0.00000000       0.05416357       0.10676838 </v>
   <v>       0.00000000       0.05416357       0.10676838 </v>
   <v>       0.00000000       0.05416357       0.10676838 </v>
   <v>      -0.00000000       0.05416357       0.10676838 </v>
   <v>       0.00000000       0.05416357       0.10676838 </v>
   <v>       0.00000000       0.20729108      -0.10041484 </v>
   <v>       0.00000000       0.20729108      -0.10041484 </v>
   <v>      -0.00000000       0.20729108      -0.10041484 </v>
   <v>      -0.00000000       0.20729108      -0.10041484 </v>
   <v>       0.00000000       0.20729108      -0.10041484 </v>
   <v>      -0.00000000       0.20729108      -0.10041484 </v>
   <v>      -0.00000000      -0.20729108       0.10041484 </v>
   <v>      -0.00000000      -0.20729108       0.10041484 </v>
   <v>       0.00000000      -0.20729108       0.10041484 </v>
   <v>      -0.00000000      -0.20729108       0.10041484 </v>
   <v>      -0.00000000      -0.20729108       0.10041484 </v>
   <v>       0.00000000      -0.20729108       0.10041484 </v>
   <v>      -0.00000000      -0.19386860       0.09464470 </v>
   <v>       0.00000000      -0.19386860       0.09464470 </v>
   <v>      -0.00000000      -0.19386860       0.09464470 </v>
   <v>       0.00000000      -0.19386860       0.09464470 </v>
   <v>       0.00000000      -0.19386860       0.09464470 </v>
   <v>      -0.00000000      -0.19386860       0.09464470 </v>
   <v>       0.00000000       0.19386860      -0.09464470 </v>
   <v>       0.00000000       0.19386860      -0.09464470 </v>
   <v>      -0.00000000       0.19386860      -0.09464470 </v>
   <v>      -0.00000000       0.19386860      -0.09464470 </v>
   <v>       0.00000000       0.19386860      -0.09464470 </v>
   <v>      -0.00000000       0.19386860      -0.09464470 </v>
   <v>      -0.00000000      -0.05416357      -0.10676838 </v>
   <v>       0.00000000      -0.05416357      -0.10676838 </v>
   <v>      -0.00000000      -0.05416357      -0.10676838 </v>
   <v>       0.00000000      -0.05416357      -0.10676838 </v>
   <v>      -0.00000000      -0.05416357      -0.10676838 </v>
   <v>       0.00000000      -0.05416357      -0.10676838 </v>
   <v>       0.00000000       0.05416357       0.10676838 </v>
   <v>       0.00000000       0.05416357       0.10676838 </v>
   <v>      -0.00000000       0.05416357       0.10676838 </v>
   <v>      -0.00000000       0.05416357       0.10676838 </v>
   <v>       0.00000000       0.05416357       0.10676838 </v>
   <v>       0.00000000       0.05416357       0.10676838 </v>
   <v>       0.00000000       0.20729108      -0.10041484 </v>
   <v>       0.00000000       0.20729108      -0.10041484 </v>
   <v>       0.00000000       0.20729108      -0.10041484 </v>
   <v>       0.00000000       0.20729108      -0.10041484 </v>
   <v>      -0.00000000       0.20729108      -0.10041484 </v>
   <v>      -0.00000000       0.20729108      -0.10041484 </v>
   <v>       0.00000000      -0.20729108       0.10041484 </v>
   <v>       0.00000000      -0.20729108       0.10041484 </v>
   <v>      -0.00000000      -0.20729108       0.10041484 </v>
   <v>      -0.00000000      -0.20729108       0.10041484 </v>
   <v>       0.00000000      -0.20729108       0.10041484 </v>
   <v>      -0.00000000      -0.20729108       0.10041484 </v>
  </varray>
  <varray name="stress" >
   <v>     -53.48525239       0.00000000       0.00000000 </v>
   <v>       0.00000000     -46.68125843       1.88735713 </v>
   <v>       0.00000000       1.88735662     -49.66732074 </v>
  </varray>
  <energy>
   <i name="e_fr_energy">   -989.33350750 </i>
   <i name="e_wo_entrp">   -989.33350750 </i>
   <i name="e_0_energy">   -989.33350750 </i>
  </energy>
  <time name="totalsc">74369.1774799.69</time>
  <eigenvalues>
   <array>
    <dimension dim="1">band</dimension>
    <dimension dim="2">kpoint</dimension>
    <dimension dim="3">spin</dimension>
    <field>eigene</field>
    <field>occ</field>
    <set>
     <set comment="spin 1">
      <set comment="kpoint 1">
       <r>  -19.0839    1.0000 </r>
       <r>  -18.8123    1.0000 </r>
       <r>  -18.7372    1.0000 </r>
       <r>  -18.6806    1.0000 </r>
       <r>  -18.5424    1.0000 </r>
       <r>  -18.3867    1.0000 </r>
       <r>  -18.3867    1.0000 </r>
       <r>  -18.3079    1.0000 </r>
       <r>  -18.2391    1.0000 </r>
       <r>  -18.2155    1.0000 </r>
       <r>  -18.2155    1.0000 </r>
       <r>  -18.1272    1.0000 </r>
       <r>  -18.1272    1.0000 </r>
       <r>  -18.1005    1.0000 </r>
       <r>  -18.1005    1.0000 </r>
       <r>  -18.0875    1.0000 </r>
       <r>  -18.0875    1.0000 </r>
       <r>  -18.0509    1.0000 </r>
       <r>  -17.9207    1.0000 </r>
       <r>  -17.9207    1.0000 </r>
       <r>  -17.9122    1.0000 </r>
       <r>  -17.9087    1.0000 </r>
       <r>  -17.9077    1.0000 </r>
       <r>  -17.9063    1.0000 </r>
       <r>  -17.9063    1.0000 </r>
       <r>  -17.8832    1.0000 </r>
       <r>  -17.7883    1.0000 </r>
       <r>  -17.7735    1.0000 </r>
       <r>  -17.7735    1.0000 </r>
       <r>  -17.7486    1.0000 </r>
       <r>  -17.7486    1.0000 </r>
       <r>  -17.7196    1.0000 </r>
       <r>  -17.7196    1.0000 </r>
       <r>  -17.7172    1.0000 </r>
       <r>  -17.6874    1.0000 </r>
       <r>  -17.6874    1.0000 </r>
       <r>  -17.6632    1.0000 </r>
       <r>  -17.6560    1.0000 </r>
       <r>  -17.6560    1.0000 </r>
       <r>  -17.5826    1.0000 </r>
       <r>  -17.5826    1.0000 </r>
       <r>  -17.5815    1.0000 </r>
       <r>  -17.5815    1.0000 </r>
       <r>  -17.5734    1.0000 </r>
       <r>  -17.5650    1.0000 </r>
       <r>  -17.5650    1.0000 </r>
       <r>  -17.5446    1.0000 </r>
       <r>  -17.5446    1.0000 </r>
       <r>  -17.4772    1.0000 </r>
       <r>  -17.4194    1.0000 </r>
       <r>  -17.4194    1.0000 </r>
       <r>  -17.3867    1.0000 </r>
       <r>  -17.3828    1.0000 </r>
       <r>  -17.3828    1.0000 </r>
       <r>  -17.3157    1.0000 </r>
       <r>  -17.3157    1.0000 </r>
       <r>  -17.3114    1.0000 </r>
       <r>  -17.3114    1.0000 </r>
       <r>  -17.3048    1.0000 </r>
       <r>  -17.3048    1.0000 </r>
       <r>  -17.3032    1.0000 </r>
       <r>  -17.3032    1.0000 </r>
       <r>  -17.2919    1.0000 </r>
       <r>  -17.2919    1.0000 </r>
       <r>  -17.2866    1.0000 </r>
       <r>  -17.2866    1.0000 </r>
       <r>  -17.2723    1.0000 </r>
       <r>  -17.2710    1.0000 </r>
       <r>  -17.2641    1.0000 </r>
       <r>  -17.2640    1.0000 </r>
       <r>  -17.2198    1.0000 </r>
       <r>  -17.1792    1.0000 </r>
       <r>  -13.4561    1.0000 </r>
       <r>  -13.4546    1.0000 </r>
       <r>  -13.4514    1.0000 </r>
       <r>  -13.4137    1.0000 </r>
       <r>  -13.4118    1.0000 </r>
       <r>  -13.4091    1.0000 </r>
       <r>  -13.4079    1.0000 </r>
       <r>  -13.4052    1.0000 </r>
       <r>  -13.4042    1.0000 </r>
       <r>  -13.4027    1.0000 </r>
       <r>  -13.3990    1.0000 </r>
       <r>  -13.3984    1.0000 </r>
       <r>  -13.3957    1.0000 </r>
       <r>  -13.3845    1.0000 </r>
       <r>  -13.3613    1.0000 </r>
       <r>  -13.3613    1.0000 </r>
       <r>  -13.3603    1.0000 </r>
       <r>  -13.3471    1.0000 </r>
       <r>  -13.3471    1.0000 </r>
       <r>  -13.3452    1.0000 </r>
       <r>  -13.3452    1.0000 </r>
       <r>  -13.3444    1.0000 </r>
       <r>  -13.3444    1.0000 </r>
       <r>  -13.3386    1.0000 </r>
       <r>  -13.3386    1.0000 </r>
       <r>  -13.3378    1.0000 </r>
       <r>  -13.3378    1.0000 </r>
       <r>  -13.3340    1.0000 </r>
       <r>  -13.3340    1.0000 </r>
       <r>  -13.3321    1.0000 </r>
       <r>  -13.3321    1.0000 </r>
       <r>  -13.3229    1.0000 </r>
       <r>  -13.3229    1.0000 </r>
       <r>  -13.3143    1.0000 </r>
       <r>  -13.3143    1.0000 </r>
       <r>  -13.3133    1.0000 </r>
       <r>  -13.3121    1.0000 </r>
       <r>  -13.3121    1.0000 </r>
       <r>  -13.3105    1.0000 </r>
       <r>  -13.3092    1.0000 </r>
       <r>  -13.3089    1.0000 </r>
       <r>  -13.3089    1.0000 </r>
       <r>  -13.3050    1.0000 </r>
       <r>  -13.3036    1.0000 </r>
       <r>  -13.3036    1.0000 </r>
       <r>  -13.3020    1.0000 </r>
       <r>  -13.3020    1.0000 </r>
       <r>  -13.2982    1.0000 </r>
       <r>  -13.2951    1.0000 </r>
       <r>  -13.2951    1.0000 </r>
       <r>  -13.2928    1.0000 </r>
       <r>  -13.2928    1.0000 </r>
       <r>  -13.2889    1.0000 </r>
       <r>  -13.2889    1.0000 </r>
       <r>  -13.2860    1.0000 </r>
       <r>  -13.2825    1.0000 </r>
       <r>  -13.2815    1.0000 </r>
       <r>  -13.2802    1.0000 </r>
       <r>  -13.2795    1.0000 </r>
       <r>  -13.2762    1.0000 </r>
       <r>  -13.2511    1.0000 </r>
       <r>  -13.2463    1.0000 </r>
       <r>  -13.2462    1.0000 </r>
       <r>  -13.2462    1.0000 </r>
       <r>  -13.2221    1.0000 </r>
       <r>  -13.2213    1.0000 </r>
       <r>  -13.2152    1.0000 </r>
       <r>  -13.2082    1.0000 </r>
       <r>  -13.2045    1.0000 </r>
       <r>  -13.1905    1.0000 </r>
       <r>  -13.1905    1.0000 </r>
       <r>  -13.1866    1.0000 </r>
       <r>  -13.1866    1.0000 </r>
       <r>  -13.1823    1.0000 </r>
       <r>  -13.1823    1.0000 </r>
       <r>  -13.1808    1.0000 </r>
       <r>  -13.1808    1.0000 </r>
       <r>  -13.1773    1.0000 </r>
       <r>  -13.1773    1.0000 </r>
       <r>  -13.1744    1.0000 </r>
       <r>  -13.1744    1.0000 </r>
       <r>  -13.1642    1.0000 </r>
       <r>  -13.1640    1.0000 </r>
       <r>  -13.1640    1.0000 </r>
       <r>  -13.1639    1.0000 </r>
       <r>  -13.1638    1.0000 </r>
       <r>  -13.1615    1.0000 </r>
       <r>  -13.1615    1.0000 </r>
       <r>  -13.1598    1.0000 </r>
       <r>  -13.1597    1.0000 </r>
       <r>  -13.1597    1.0000 </r>
       <r>  -13.1595    1.0000 </r>
       <r>  -13.1595    1.0000 </r>
       <r>  -13.1553    1.0000 </r>
       <r>  -13.1544    1.0000 </r>
       <r>  -13.1485    1.0000 </r>
       <r>  -13.1485    1.0000 </r>
       <r>  -13.1472    1.0000 </r>
       <r>  -13.1472    1.0000 </r>
       <r>  -13.1456    1.0000 </r>
       <r>  -13.1456    1.0000 </r>
       <r>  -13.1447    1.0000 </r>
       <r>  -13.1447    1.0000 </r>
       <r>  -13.1392    1.0000 </r>
       <r>  -13.1392    1.0000 </r>
       <r>  -13.1360    1.0000 </r>
       <r>  -13.1323    1.0000 </r>
       <r>  -13.1323    1.0000 </r>
       <r>  -13.1296    1.0000 </r>
       <r>  -13.1296    1.0000 </r>
       <r>  -13.1285    1.0000 </r>
       <r>  -13.1285    1.0000 </r>
       <r>  -13.1180    1.0000 </r>
       <r>  -13.1180    1.0000 </r>
       <r>  -13.1022    1.0000 </r>
       <r>  -13.1022    1.0000 </r>
       <r>  -13.1015    1.0000 </r>
       <r>  -13.1015    1.0000 </r>
       <r>  -13.0954    1.0000 </r>
       <r>  -13.0954    1.0000 </r>
       <r>  -13.0839    1.0000 </r>
       <r>  -13.0839    1.0000 </r>
       <r>  -13.0836    1.0000 </r>
       <r>  -13.0654    1.0000 </r>
       <r>  -13.0650    1.0000 </r>
       <r>  -13.0644    1.0000 </r>
       <r>  -13.0643    1.0000 </r>
       <r>  -13.0554    1.0000 </r>
       <r>  -13.0477    1.0000 </r>
       <r>  -13.0477    1.0000 </r>
       <r>  -13.0472    1.0000 </r>
       <r>  -13.0472    1.0000 </r>
       <r>  -13.0466    1.0000 </r>
       <r>  -13.0447    1.0000 </r>
       <r>  -13.0415    1.0000 </r>
       <r>  -13.0383    1.0000 </r>
       <r>  -13.0380    1.0000 </r>
       <r>  -13.0378    1.0000 </r>
       <r>  -13.0378    1.0000 </r>
       <r>  -13.0373    1.0000 </r>
       <r>  -13.0352    1.0000 </r>
       <r>  -13.0329    1.0000 </r>
       <r>  -13.0303    1.0000 </r>
       <r>  -13.0290    1.0000 </r>
       <r>  -13.0290    1.0000 </r>
       <r>  -13.0244    1.0000 </r>
       <r>  -13.0244    1.0000 </r>
       <r>  -13.0139    1.0000 </r>
       <r>  -13.0139    1.0000 </r>
       <r>  -13.0105    1.0000 </r>
       <r>  -13.0100    1.0000 </r>
       <r>  -13.0033    1.0000 </r>
       <r>  -13.0033    1.0000 </r>
       <r>  -13.0032    1.0000 </r>
       <r>  -13.0032    1.0000 </r>
       <r>  -12.9993    1.0000 </r>
       <r>  -12.9993    1.0000 </r>
       <r>  -12.9963    1.0000 </r>
       <r>  -12.9963    1.0000 </r>
       <r>  -12.9866    1.0000 </r>
       <r>  -12.9866    1.0000 </r>
       <r>  -12.9853    1.0000 </r>
       <r>  -12.9853    1.0000 </r>
       <r>  -12.9846    1.0000 </r>
       <r>  -12.9846    1.0000 </r>
       <r>  -12.9834    1.0000 </r>
       <r>  -12.9834    1.0000 </r>
       <r>  -12.9817    1.0000 </r>
       <r>  -12.9792    1.0000 </r>
       <r>  -12.9767    1.0000 </r>
       <r>  -12.9753    1.0000 </r>
       <r>  -12.9753    1.0000 </r>
       <r>  -12.9750    1.0000 </r>
       <r>  -12.9665    1.0000 </r>
       <r>  -12.9605    1.0000 </r>
       <r>  -12.9605    1.0000 </r>
       <r>  -12.9474    1.0000 </r>
       <r>  -12.9474    1.0000 </r>
       <r>  -12.9466    1.0000 </r>
       <r>  -12.9369    1.0000 </r>
       <r>  -12.9369    1.0000 </r>
       <r>  -12.9315    1.0000 </r>
       <r>  -12.9290    1.0000 </r>
       <r>  -12.9280    1.0000 </r>
       <r>  -12.9267    1.0000 </r>
       <r>  -12.9222    1.0000 </r>
       <r>  -12.9215    1.0000 </r>
       <r>  -12.9215    1.0000 </r>
       <r>  -12.9187    1.0000 </r>
       <r>  -12.9187    1.0000 </r>
       <r>  -12.9132    1.0000 </r>
       <r>  -12.8981    1.0000 </r>
       <r>  -12.8981    1.0000 </r>
       <r>  -12.8565    1.0000 </r>
       <r>  -12.8462    1.0000 </r>
       <r>  -12.8377    1.0000 </r>
       <r>  -12.8377    1.0000 </r>
       <r>  -12.7995    1.0000 </r>
       <r>  -12.7951    1.0000 </r>
       <r>  -12.7736    1.0000 </r>
       <r>  -12.7736    1.0000 </r>
       <r>  -12.7683    1.0000 </r>
       <r>  -12.7224    1.0000 </r>
       <r>  -12.6928    1.0000 </r>
       <r>  -12.6567    1.0000 </r>
       <r>  -12.6567    1.0000 </r>
       <r>  -12.6280    1.0000 </r>
       <r>  -12.6125    1.0000 </r>
       <r>  -12.6125    1.0000 </r>
       <r>  -12.5951    1.0000 </r>
       <r>  -12.5950    1.0000 </r>
       <r>  -12.5887    1.0000 </r>
       <r>  -12.5887    1.0000 </r>
       <r>  -12.5380    1.0000 </r>
       <r>  -12.5279    1.0000 </r>
       <r>  -12.5279    1.0000 </r>
       <r>  -12.4893    1.0000 </r>
       <r>  -12.4893    1.0000 </r>
       <r>  -12.3425    1.0000 </r>
       <r>  -12.3425    1.0000 </r>
       <r>  -12.3326    1.0000 </r>
       <r>  -12.3326    1.0000 </r>
       <r>  -12.2921    1.0000 </r>
       <r>  -12.2921    1.0000 </r>
       <r>  -12.2752    1.0000 </r>
       <r>  -12.2650    1.0000 </r>
       <r>  -12.2650    1.0000 </r>
       <r>  -12.2643    1.0000 </r>
       <r>  -12.2643    1.0000 </r>
       <r>  -12.2508    1.0000 </r>
       <r>  -12.2091    1.0000 </r>
       <r>  -12.2091    1.0000 </r>
       <r>  -12.1886    1.0000 </r>
       <r>  -12.1886    1.0000 </r>
       <r>  -12.1770    1.0000 </r>
       <r>  -12.1770    1.0000 </r>
       <r>  -12.1034    1.0000 </r>
       <r>  -12.0845    1.0000 </r>
       <r>  -12.0845    1.0000 </r>
       <r>  -11.9438    1.0000 </r>
       <r>   -5.3961    1.0000 </r>
       <r>   -5.3897    1.0000 </r>
       <r>   -5.1066    1.0000 </r>
       <r>   -5.1066    1.0000 </r>
       <r>   -4.7610    1.0000 </r>
       <r>   -4.7610    1.0000 </r>
       <r>   -4.6613    1.0000 </r>
       <r>   -4.6613    1.0000 </r>
       <r>   -4.6554    1.0000 </r>
       <r>   -4.6554    1.0000 </r>
       <r>   -4.5905    1.0000 </r>
       <r>   -4.4815    1.0000 </r>
       <r>   -4.4815    1.0000 </r>
       <r>   -4.4609    1.0000 </r>
       <r>   -4.4609    1.0000 </r>
       <r>   -4.4529    1.0000 </r>
       <r>   -4.4404    1.0000 </r>
       <r>   -4.4404    1.0000 </r>
       <r>   -4.2638    1.0000 </r>
       <r>   -4.2086    1.0000 </r>
       <r>   -4.1200    1.0000 </r>
       <r>   -4.1200    1.0000 </r>
       <r>   -4.0201    1.0000 </r>
       <r>   -3.9660    1.0000 </r>
       <r>   -3.9660    1.0000 </r>
       <r>   -3.9562    1.0000 </r>
       <r>   -3.9562    1.0000 </r>
       <r>   -3.8162    1.0000 </r>
       <r>   -3.8162    1.0000 </r>
       <r>   -3.7403    1.0000 </r>
       <r>   -3.7403    1.0000 </r>
       <r>   -3.7169    1.0000 </r>
       <r>   -3.7169    1.0000 </r>
       <r>   -3.7027    1.0000 </r>
       <r>   -3.4651    1.0000 </r>
       <r>   -3.4201    1.0000 </r>
       <r>   -3.4201    1.0000 </r>
       <r>   -3.3902    1.0000 </r>
       <r>   -3.3902    1.0000 </r>
       <r>   -3.3540    1.0000 </r>
       <r>   -3.3452    1.0000 </r>
       <r>   -3.3452    1.0000 </r>
       <r>   -3.0451    1.0000 </r>
       <r>   -3.0327    1.0000 </r>
       <r>   -2.9711    1.0000 </r>
       <r>   -2.9711    1.0000 </r>
       <r>   -2.8485    1.0000 </r>
       <r>   -2.7337    1.0000 </r>
       <r>   -2.7337    1.0000 </r>
       <r>   -2.7046    1.0000 </r>
       <r>   -2.7046    1.0000 </r>
       <r>   -2.6082    1.0000 </r>
       <r>   -2.6082    1.0000 </r>
       <r>   -2.5539    1.0000 </r>
       <r>   -2.5539    1.0000 </r>
       <r>   -2.5338    1.0000 </r>
       <r>   -2.5097    1.0000 </r>
       <r>   -2.4738    1.0000 </r>
       <r>   -2.4670    1.0000 </r>
       <r>   -2.4670    1.0000 </r>
       <r>   -2.2158    1.0000 </r>
       <r>   -2.2158    1.0000 </r>
       <r>   -2.2107    1.0000 </r>
       <r>   -2.2107    1.0000 </r>
       <r>   -2.0456    1.0000 </r>
       <r>   -2.0456    1.0000 </r>
       <r>   -1.9715    1.0000 </r>
       <r>   -1.9715    1.0000 </r>
       <r>   -1.9156    1.0000 </r>
       <r>   -1.9156    1.0000 </r>
       <r>   -1.8698    1.0000 </r>
       <r>   -1.8306    1.0000 </r>
       <r>   -1.8069    1.0000 </r>
       <r>   -1.8069    1.0000 </r>
       <r>   -1.7916    1.0000 </r>
       <r>   -1.7915    1.0000 </r>
       <r>   -1.7107    1.0000 </r>
       <r>   -1.7107    1.0000 </r>
       <r>   -1.5698    1.0000 </r>
       <r>   -1.5698    1.0000 </r>
       <r>   -1.4580    1.0000 </r>
       <r>   -1.4300    1.0000 </r>
       <r>   -1.4300    1.0000 </r>
       <r>   -1.3276    1.0000 </r>
       <r>   -1.3276    1.0000 </r>
       <r>   -1.3228    1.0000 </r>
       <r>   -1.3164    1.0000 </r>
       <r>   -1.2180    1.0000 </r>
       <r>   -1.2180    1.0000 </r>
       <r>   -1.1378    1.0000 </r>
       <r>   -1.1147    1.0000 </r>
       <r>   -1.1147    1.0000 </r>
       <r>   -1.1077    1.0000 </r>
       <r>   -1.1077    1.0000 </r>
       <r>   -0.8842    1.0000 </r>
       <r>   -0.8640    1.0000 </r>
       <r>   -0.8448    1.0000 </r>
       <r>   -0.8435    1.0000 </r>
       <r>   -0.8434    1.0000 </r>
       <r>   -0.8144    1.0000 </r>
       <r>   -0.8144    1.0000 </r>
       <r>   -0.7717    1.0000 </r>
       <r>   -0.7183    1.0000 </r>
       <r>   -0.7171    1.0000 </r>
       <r>   -0.7171    1.0000 </r>
       <r>   -0.6757    1.0000 </r>
       <r>   -0.6193    1.0000 </r>
       <r>   -0.4959    1.0000 </r>
       <r>   -0.4901    1.0000 </r>
       <r>   -0.4901    1.0000 </r>
       <r>   -0.4709    1.0000 </r>
       <r>   -0.4709    1.0000 </r>
       <r>   -0.4674    1.0000 </r>
       <r>   -0.4674    1.0000 </r>
       <r>   -0.4486    1.0000 </r>
       <r>   -0.4104    1.0000 </r>
       <r>   -0.4104    1.0000 </r>
       <r>   -0.4069    1.0000 </r>
       <r>   -0.4069    1.0000 </r>
       <r>   -0.3471    1.0000 </r>
       <r>   -0.3092    1.0000 </r>
       <r>   -0.2995    1.0000 </r>
       <r>   -0.2989    1.0000 </r>
       <r>   -0.2989    1.0000 </r>
       <r>   -0.2400    1.0000 </r>
       <r>   -0.2400    1.0000 </r>
       <r>   -0.1812    1.0000 </r>
       <r>   -0.1264    1.0000 </r>
       <r>   -0.1264    1.0000 </r>
       <r>   -0.1161    1.0000 </r>
       <r>   -0.1150    1.0000 </r>
       <r>   -0.1142    1.0000 </r>
       <r>   -0.1089    1.0000 </r>
       <r>    0.0213    1.0000 </r>
       <r>    0.0727    1.0000 </r>
       <r>    0.1425    1.0000 </r>
       <r>    0.1962    1.0000 </r>
       <r>    0.1962    1.0000 </r>
       <r>    0.2839    1.0000 </r>
       <r>    0.2845    1.0000 </r>
       <r>    0.3014    1.0000 </r>
       <r>    0.3014    1.0000 </r>
       <r>    0.3797    1.0000 </r>
       <r>    0.3797    1.0000 </r>
       <r>    0.4208    1.0000 </r>
       <r>    0.4405    1.0000 </r>
       <r>    0.4635    1.0000 </r>
       <r>    0.4637    1.0000 </r>
       <r>    0.4847    1.0000 </r>
       <r>    0.5427    1.0000 </r>
       <r>    0.5427    1.0000 </r>
       <r>    0.6062    1.0000 </r>
       <r>    0.6062    1.0000 </r>
       <r>    0.6222    1.0000 </r>
       <r>    0.6222    1.0000 </r>
       <r>    0.6774    1.0000 </r>
       <r>    0.6774    1.0000 </r>
       <r>    0.6930    1.0000 </r>
       <r>    0.6930    1.0000 </r>
       <r>    0.7187    1.0000 </r>
       <r>    0.7187    1.0000 </r>
       <r>    0.7354    1.0000 </r>
       <r>    0.7354    1.0000 </r>
       <r>    0.7433    1.0000 </r>
       <r>    0.7433    1.0000 </r>
       <r>    0.7499    1.0000 </r>
       <r>    0.7517    1.0000 </r>
       <r>    0.7786    1.0000 </r>
       <r>    0.9936    1.0000 </r>
       <r>    0.9936    1.0000 </r>
       <r>    1.0017    1.0000 </r>
       <r>    1.0017    1.0000 </r>
       <r>    1.0232    1.0000 </r>
       <r>    1.0232    1.0000 </r>
       <r>    1.0596    1.0000 </r>
       <r>    1.0596    1.0000 </r>
       <r>    1.0913    1.0000 </r>
       <r>    1.0931    1.0000 </r>
       <r>    1.1153    1.0000 </r>
       <r>    1.1153    1.0000 </r>
       <r>    1.1293    1.0000 </r>
       <r>    1.1293    1.0000 </r>
       <r>    1.1775    1.0000 </r>
       <r>    1.1775    1.0000 </r>
       <r>    1.1964    1.0000 </r>
       <r>    1.2675    1.0000 </r>
       <r>    1.2789    1.0000 </r>
       <r>    1.2823    1.0000 </r>
       <r>    1.2866    1.0000 </r>
       <r>    1.3023    1.0000 </r>
       <r>    1.3274    1.0000 </r>
       <r>    1.3326    1.0000 </r>
       <r>    1.3350    1.0000 </r>
       <r>    1.3388    1.0000 </r>
       <r>    1.3388    1.0000 </r>
       <r>    1.3817    1.0000 </r>
       <r>    1.3817    1.0000 </r>
       <r>    1.3955    1.0000 </r>
       <r>    1.3980    1.0000 </r>
       <r>    1.3980    1.0000 </r>
       <r>    1.4108    1.0000 </r>
       <r>    1.4732    1.0000 </r>
       <r>    1.4972    1.0000 </r>
       <r>    1.4972    1.0000 </r>
       <r>    1.5409    1.0000 </r>
       <r>    1.5421    1.0000 </r>
       <r>    1.5421    1.0000 </r>
       <r>    1.5828    1.0000 </r>
       <r>    1.6581    1.0000 </r>
       <r>    1.6819    1.0000 </r>
       <r>    1.7196    1.0000 </r>
       <r>    1.7196    1.0000 </r>
       <r>    1.7632    1.0000 </r>
       <r>    1.7632    1.0000 </r>
       <r>    1.8820    1.0000 </r>
       <r>    1.8862    1.0000 </r>
       <r>    6.8746    0.0000 </r>
       <r>    9.1167    0.0000 </r>
       <r>    9.3566    0.0000 </r>
       <r>    9.3772    0.0000 </r>
       <r>    9.5024    0.0000 </r>
       <r>    9.8546    0.0000 </r>
       <r>    9.9732    0.0000 </r>
       <r>   10.4216    0.0000 </r>
       <r>   10.4216    0.0000 </r>
       <r>   10.4297    0.0000 </r>
       <r>   10.4562    0.0000 </r>
       <r>   10.5384    0.0000 </r>
       <r>   10.5384    0.0000 </r>
       <r>   10.7465    0.0000 </r>
       <r>   10.7465    0.0000 </r>
       <r>   10.9239    0.0000 </r>
       <r>   10.9239    0.0000 </r>
       <r>   10.9862    0.0000 </r>
       <r>   11.0054    0.0000 </r>
       <r>   11.0054    0.0000 </r>
       <r>   11.0532    0.0000 </r>
       <r>   11.0532    0.0000 </r>
       <r>   11.1469    0.0000 </r>
       <r>   11.1469    0.0000 </r>
       <r>   11.3779    0.0000 </r>
       <r>   11.3874    0.0000 </r>
       <r>   11.4254    0.0000 </r>
       <r>   11.4818    0.0000 </r>
       <r>   11.4820    0.0000 </r>
       <r>   11.5985    0.0000 </r>
       <r>   11.6078    0.0000 </r>
       <r>   11.6173    0.0000 </r>
       <r>   11.7375    0.0000 </r>
       <r>   11.7376    0.0000 </r>
       <r>   11.9413    0.0000 </r>
       <r>   11.9413    0.0000 </r>
       <r>   12.1298    0.0000 </r>
       <r>   12.2265    0.0000 </r>
       <r>   12.2269    0.0000 </r>
       <r>   12.2935    0.0000 </r>
       <r>   12.3254    0.0000 </r>
[...]
       <r>   -12.3283    95.0294   590.1667 </r>
       <r>   -12.1886   116.8146   606.4839 </r>
       <r>   -12.0489   107.1728   621.4544 </r>
       <r>   -11.9092    17.8960   623.9542 </r>
       <r>   -11.7695     0.3281   624.0000 </r>
       <r>   -11.6298     0.0000   624.0000 </r>
       <r>   -11.4902     0.0000   624.0000 </r>
       <r>   -11.3505     0.0000   624.0000 </r>
       <r>   -11.2108     0.0000   624.0000 </r>
       <r>   -11.0711     0.0000   624.0000 </r>
       <r>   -10.9314     0.0000   624.0000 </r>
       <r>   -10.7917     0.0000   624.0000 </r>
       <r>   -10.6520     0.0000   624.0000 </r>
       <r>   -10.5124     0.0000   624.0000 </r>
       <r>   -10.3727     0.0000   624.0000 </r>
       <r>   -10.2330     0.0000   624.0000 </r>
       <r>   -10.0933     0.0000   624.0000 </r>
       <r>    -9.9536     0.0000   624.0000 </r>
       <r>    -9.8139     0.0000   624.0000 </r>
       <r>    -9.6742     0.0000   624.0000 </r>
       <r>    -9.5346     0.0000   624.0000 </r>
       <r>    -9.3949     0.0000   624.0000 </r>
       <r>    -9.2552     0.0000   624.0000 </r>
       <r>    -9.1155     0.0000   624.0000 </r>
       <r>    -8.9758     0.0000   624.0000 </r>
       <r>    -8.8361     0.0000   624.0000 </r>
       <r>    -8.6965     0.0000   624.0000 </r>
       <r>    -8.5568     0.0000   624.0000 </r>
       <r>    -8.4171     0.0000   624.0000 </r>
       <r>    -8.2774     0.0000   624.0000 </r>
       <r>    -8.1377     0.0000   624.0000 </r>
       <r>    -7.9980     0.0000   624.0000 </r>
       <r>    -7.8583     0.0000   624.0000 </r>
       <r>    -7.7187     0.0000   624.0000 </r>
       <r>    -7.5790     0.0000   624.0000 </r>
       <r>    -7.4393     0.0000   624.0000 </r>
       <r>    -7.2996     0.0000   624.0000 </r>
       <r>    -7.1599     0.0000   624.0000 </r>
       <r>    -7.0202     0.0000   624.0000 </r>
       <r>    -6.8805     0.0000   624.0000 </r>
       <r>    -6.7409     0.0000   624.0000 </r>
       <r>    -6.6012     0.0000   624.0000 </r>
       <r>    -6.4615     0.0000   624.0000 </r>
       <r>    -6.3218     0.0000   624.0000 </r>
       <r>    -6.1821     0.0000   624.0000 </r>
       <r>    -6.0424     0.0000   624.0000 </r>
       <r>    -5.9028     0.0000   624.0000 </r>
       <r>    -5.7631     0.0000   624.0000 </r>
       <r>    -5.6234     0.0000   624.0000 </r>
       <r>    -5.4837     0.0294   624.0041 </r>
       <r>    -5.3440     6.4340   624.9028 </r>
       <r>    -5.2043    13.3247   626.7641 </r>
       <r>    -5.0646    21.4268   629.7571 </r>
       <r>    -4.9250    36.2121   634.8154 </r>
       <r>    -4.7853    20.8021   637.7211 </r>
       <r>    -4.6456    54.0836   645.2758 </r>
       <r>    -4.5059    31.9048   649.7324 </r>
       <r>    -4.3662    66.3305   658.9978 </r>
       <r>    -4.2265    50.6780   666.0768 </r>
       <r>    -4.0868    37.7783   671.3538 </r>
       <r>    -3.9472    59.8655   679.7161 </r>
       <r>    -3.8075    37.5092   684.9556 </r>
       <r>    -3.6678    25.4986   688.5174 </r>
       <r>    -3.5281    28.7889   692.5388 </r>
       <r>    -3.3884    29.6083   696.6746 </r>
       <r>    -3.2487    42.3200   702.5861 </r>
       <r>    -3.1091    35.1893   707.5015 </r>
       <r>    -2.9694    38.4060   712.8662 </r>
       <r>    -2.8297    30.2215   717.0877 </r>
       <r>    -2.6900    40.4094   722.7323 </r>
       <r>    -2.5503    33.1258   727.3595 </r>
       <r>    -2.4106    58.4542   735.5246 </r>
       <r>    -2.2709    29.0234   739.5788 </r>
       <r>    -2.1313    36.0399   744.6130 </r>
       <r>    -1.9916    64.7991   753.6645 </r>
       <r>    -1.8519    79.1753   764.7241 </r>
       <r>    -1.7122    50.9840   771.8458 </r>
       <r>    -1.5725    68.3651   781.3954 </r>
       <r>    -1.4328    65.1255   790.4924 </r>
       <r>    -1.2931    41.9685   796.3548 </r>
       <r>    -1.1535    46.7493   802.8850 </r>
       <r>    -1.0138    85.3695   814.8098 </r>
       <r>    -0.8741    61.5456   823.4068 </r>
       <r>    -0.7344    83.4085   835.0577 </r>
       <r>    -0.5947    57.9972   843.1591 </r>
       <r>    -0.4550    59.0669   851.4098 </r>
       <r>    -0.3154    72.7966   861.5784 </r>
       <r>    -0.1757    79.9425   872.7452 </r>
       <r>    -0.0360    82.5191   884.2719 </r>
       <r>     0.1037    66.1309   893.5094 </r>
       <r>     0.2434    63.6397   902.3989 </r>
       <r>     0.3831    85.1190   914.2887 </r>
       <r>     0.5228    89.1167   926.7370 </r>
       <r>     0.6624    86.1173   938.7663 </r>
       <r>     0.8021    94.7961   952.0079 </r>
       <r>     0.9418    80.6094   963.2678 </r>
       <r>     1.0815   137.9545   982.5380 </r>
       <r>     1.2212   120.1331   999.3188 </r>
       <r>     1.3609   137.2229  1018.4868 </r>
       <r>     1.5006   112.3584  1034.1816 </r>
       <r>     1.6402    63.0489  1042.9885 </r>
       <r>     1.7799    49.3766  1049.8857 </r>
       <r>     1.9196    42.5466  1055.8288 </r>
       <r>     2.0593     1.2253  1056.0000 </r>
       <r>     2.1990     0.0000  1056.0000 </r>
       <r>     2.3387     0.0000  1056.0000 </r>
       <r>     2.4784     0.0000  1056.0000 </r>
       <r>     2.6180     0.0000  1056.0000 </r>
       <r>     2.7577     0.0000  1056.0000 </r>
       <r>     2.8974     0.0000  1056.0000 </r>
       <r>     3.0371     0.0000  1056.0000 </r>
       <r>     3.1768     0.0000  1056.0000 </r>
       <r>     3.3165     0.0000  1056.0000 </r>
       <r>     3.4561     0.0000  1056.0000 </r>
       <r>     3.5958     0.0000  1056.0000 </r>
       <r>     3.7355     0.0000  1056.0000 </r>
       <r>     3.8752     0.0000  1056.0000 </r>
       <r>     4.0149     0.0000  1056.0000 </r>
       <r>     4.1546     0.0000  1056.0000 </r>
       <r>     4.2943     0.0000  1056.0000 </r>
       <r>     4.4339     0.0000  1056.0000 </r>
       <r>     4.5736     0.0000  1056.0000 </r>
       <r>     4.7133     0.0000  1056.0000 </r>
       <r>     4.8530     0.0000  1056.0000 </r>
       <r>     4.9927     0.0000  1056.0000 </r>
       <r>     5.1324     0.0000  1056.0000 </r>
       <r>     5.2721     0.0000  1056.0000 </r>
       <r>     5.4117     0.0000  1056.0000 </r>
       <r>     5.5514     0.0000  1056.0000 </r>
       <r>     5.6911     0.0000  1056.0000 </r>
       <r>     5.8308     0.0000  1056.0000 </r>
       <r>     5.9705     0.0000  1056.0000 </r>
       <r>     6.1102     0.0000  1056.0000 </r>
       <r>     6.2498     0.0000  1056.0000 </r>
       <r>     6.3895     0.0000  1056.0000 </r>
       <r>     6.5292     0.0000  1056.0000 </r>
       <r>     6.6689     0.0000  1056.0000 </r>
       <r>     6.8086     0.0554  1056.0077 </r>
       <r>     6.9483     1.7011  1056.2454 </r>
       <r>     7.0880     0.0333  1056.2500 </r>
       <r>     7.2276     0.0000  1056.2500 </r>
       <r>     7.3673     0.0000  1056.2500 </r>
       <r>     7.5070     0.0000  1056.2500 </r>
       <r>     7.6467     0.4290  1056.3099 </r>
       <r>     7.7864     5.3801  1057.0614 </r>
       <r>     7.9261     1.3499  1057.2500 </r>
       <r>     8.0658     1.2964  1057.4311 </r>
       <r>     8.2054     5.5043  1058.1999 </r>
       <r>     8.3451     0.3583  1058.2500 </r>
       <r>     8.4848     0.0003  1058.2500 </r>
       <r>     8.6245     5.0774  1058.9593 </r>
       <r>     8.7642     6.0560  1059.8052 </r>
       <r>     8.9039     6.6989  1060.7410 </r>
       <r>     9.0435     4.8728  1061.4216 </r>
       <r>     9.1832     4.1087  1061.9955 </r>
       <r>     9.3229     3.7813  1062.5237 </r>
       <r>     9.4626    12.5806  1064.2811 </r>
       <r>     9.6023     3.7940  1064.8110 </r>
       <r>     9.7420     3.1661  1065.2533 </r>
       <r>     9.8817     6.8199  1066.2059 </r>
       <r>    10.0213    16.4531  1068.5042 </r>
       <r>    10.1610    10.9548  1070.0344 </r>
       <r>    10.3007     7.0668  1071.0215 </r>
       <r>    10.4404    13.5245  1072.9107 </r>
       <r>    10.5801    26.0318  1076.5469 </r>
       <r>    10.7198    27.0911  1080.3312 </r>
       <r>    10.8595    48.0047  1087.0367 </r>
       <r>    10.9991    38.3403  1092.3923 </r>
       <r>    11.1388    41.5967  1098.2027 </r>
       <r>    11.2785    11.9926  1099.8779 </r>
       <r>    11.4182    33.4732  1104.5536 </r>
       <r>    11.5579    34.6859  1109.3987 </r>
       <r>    11.6976    25.7762  1112.9993 </r>
       <r>    11.8372    43.0260  1119.0093 </r>
       <r>    11.9769    30.8093  1123.3129 </r>
       <r>    12.1166    40.9303  1129.0303 </r>
       <r>    12.2563    30.1321  1133.2393 </r>
       <r>    12.3960    20.5908  1136.1155 </r>
       <r>    12.5357    44.9883  1142.3997 </r>
       <r>    12.6754    56.1798  1150.2472 </r>
       <r>    12.8150    45.3462  1156.5814 </r>
       <r>    12.9547    23.3043  1159.8366 </r>
       <r>    13.0944    11.6729  1161.4672 </r>
       <r>    13.2341    12.9008  1163.2692 </r>
       <r>    13.3738    27.7308  1167.1428 </r>
       <r>    13.5135    22.0215  1170.2189 </r>
       <r>    13.6532    17.2731  1172.6316 </r>
       <r>    13.7928    24.0600  1175.9925 </r>
       <r>    13.9325    24.7921  1179.4556 </r>
       <r>    14.0722    26.6679  1183.1807 </r>
       <r>    14.2119    36.2356  1188.2422 </r>
       <r>    14.3516    30.2124  1192.4625 </r>
       <r>    14.4913    11.3236  1194.0442 </r>
       <r>    14.6309    13.0537  1195.8676 </r>
       <r>    14.7706    16.0674  1198.1120 </r>
       <r>    14.9103    20.3776  1200.9584 </r>
       <r>    15.0500    19.4769  1203.6790 </r>
       <r>    15.1897    24.7370  1207.1344 </r>
       <r>    15.3294    18.7065  1209.7474 </r>
       <r>    15.4691    20.3710  1212.5930 </r>
       <r>    15.6087    18.3088  1215.1504 </r>
       <r>    15.7484    32.8995  1219.7460 </r>
       <r>    15.8881    28.7027  1223.7553 </r>
       <r>    16.0278    24.7547  1227.2132 </r>
       <r>    16.1675    22.7856  1230.3960 </r>
       <r>    16.3072    24.8440  1233.8663 </r>
       <r>    16.4469    20.7685  1236.7674 </r>
       <r>    16.5865    24.5369  1240.1948 </r>
       <r>    16.7262    19.1234  1242.8661 </r>
       <r>    16.8659    22.4817  1246.0064 </r>
       <r>    17.0056    19.3570  1248.7103 </r>
       <r>    17.1453    20.4103  1251.5613 </r>
       <r>    17.2850    20.6473  1254.4454 </r>
       <r>    17.4246    21.4854  1257.4466 </r>
       <r>    17.5643    21.5699  1260.4596 </r>
       <r>    17.7040    15.9209  1262.6835 </r>
       <r>    17.8437    13.2827  1264.5389 </r>
       <r>    17.9834    12.7870  1266.3251 </r>
       <r>    18.1231     5.7305  1267.1256 </r>
       <r>    18.2628     6.5335  1268.0382 </r>
       <r>    18.4024     5.1261  1268.7542 </r>
       <r>    18.5421     6.9601  1269.7264 </r>
       <r>    18.6818     7.5651  1270.7832 </r>
       <r>    18.8215     4.3139  1271.3858 </r>
       <r>    18.9612     2.7358  1271.7679 </r>
       <r>    19.1009     1.6509  1271.9985 </r>
       <r>    19.2406     0.0107  1272.0000 </r>
       <r>    19.3802     0.0000  1272.0000 </r>
       <r>    19.5199     0.0000  1272.0000 </r>
       <r>    19.6596     0.0000  1272.0000 </r>
       <r>    19.7993     0.0000  1272.0000 </r>
       <r>    19.9390     0.0000  1272.0000 </r>
       <r>    20.0787     0.0000  1272.0000 </r>
       <r>    20.2183     0.0000  1272.0000 </r>
       <r>    20.3580     0.0000  1272.0000 </r>
       <r>    20.4977     0.0000  1272.0000 </r>
       <r>    20.6374     0.0000  1272.0000 </r>
       <r>    20.7771     0.0000  1272.0000 </r>
       <r>    20.9168     0.0000  1272.0000 </r>
      </set>
     </set>
    </array>
   </total>
  </dos>
 </calculation>
 <structure name="finalpos" >
  <crystal>
   <varray name="basis" >
    <v>       0.00000000      12.28047342       0.00000000 </v>
    <v>       9.14270205       0.00000000       0.00000000 </v>
    <v>       0.00000000      -2.76826177     -11.30069772 </v>
   </varray>
   <i name="volume">   1268.80515525 </i>
   <varray name="rec_basis" >
    <v>       0.00000000       0.08143009      -0.01994742 </v>
    <v>       0.10937686      -0.00000000       0.00000000 </v>
    <v>       0.00000000       0.00000000      -0.08849011 </v>
   </varray>
  </crystal>
  <varray name="positions" >
   <v>       0.65883830       0.00000000       0.15736517 </v>
   <v>       0.65883830       0.00000000       0.65736517 </v>
   <v>       0.65883830       0.33333333       0.15736517 </v>
   <v>       0.65883830       0.33333333       0.65736517 </v>
   <v>       0.65883830       0.66666667       0.15736517 </v>
   <v>       0.65883830       0.66666667       0.65736517 </v>
   <v>       0.84116170       0.16666667       0.34263483 </v>
   <v>       0.84116170       0.16666667       0.84263483 </v>
   <v>       0.84116170       0.50000000       0.34263483 </v>
   <v>       0.84116170       0.50000000       0.84263483 </v>
   <v>       0.84116170       0.83333333       0.34263483 </v>
   <v>       0.84116170       0.83333333       0.84263483 </v>
   <v>       0.59047440       0.16666667       0.39739300 </v>
   <v>       0.59047440       0.16666667       0.89739300 </v>
   <v>       0.59047440       0.50000000       0.39739300 </v>
   <v>       0.59047440       0.50000000       0.89739300 </v>
   <v>       0.59047440       0.83333333       0.39739300 </v>
   <v>       0.59047440       0.83333333       0.89739300 </v>
   <v>       0.90952560       0.00000000       0.10260700 </v>
   <v>       0.90952560       0.00000000       0.60260700 </v>
   <v>       0.90952560       0.33333333       0.10260700 </v>
   <v>       0.90952560       0.33333333       0.60260700 </v>
   <v>       0.90952560       0.66666667       0.10260700 </v>
   <v>       0.90952560       0.66666667       0.60260700 </v>
   <v>       0.15883830       0.16666667       0.15736517 </v>
   <v>       0.15883830       0.16666667       0.65736517 </v>
   <v>       0.15883830       0.50000000       0.15736517 </v>
   <v>       0.15883830       0.50000000       0.65736517 </v>
   <v>       0.15883830       0.83333333       0.15736517 </v>
   <v>       0.15883830       0.83333333       0.65736517 </v>
   <v>       0.34116170       0.00000000       0.34263483 </v>
   <v>       0.34116170       0.00000000       0.84263483 </v>
   <v>       0.34116170       0.33333333       0.34263483 </v>
   <v>       0.34116170       0.33333333       0.84263483 </v>
   <v>       0.34116170       0.66666667       0.34263483 </v>
   <v>       0.34116170       0.66666667       0.84263483 </v>
   <v>       0.09047440       0.00000000       0.39739300 </v>
   <v>       0.09047440       0.00000000       0.89739300 </v>
   <v>       0.09047440       0.33333333       0.39739300 </v>
   <v>       0.09047440       0.33333333       0.89739300 </v>
   <v>       0.09047440       0.66666667       0.39739300 </v>
   <v>       0.09047440       0.66666667       0.89739300 </v>
   <v>       0.40952560       0.16666667       0.10260700 </v>
   <v>       0.40952560       0.16666667       0.60260700 </v>
   <v>       0.40952560       0.50000000       0.10260700 </v>
   <v>       0.40952560       0.50000000       0.60260700 </v>
   <v>       0.40952560       0.83333333       0.10260700 </v>
   <v>       0.40952560       0.83333333       0.60260700 </v>
   <v>       0.99646913       0.16666667       0.12833205 </v>
   <v>       0.99646913       0.16666667       0.62833205 </v>
   <v>       0.99646913       0.50000000       0.12833205 </v>
   <v>       0.99646913       0.50000000       0.62833205 </v>
   <v>       0.99646913       0.83333333       0.12833205 </v>
   <v>       0.99646913       0.83333333       0.62833205 </v>
   <v>       0.50353087       0.00000000       0.37166795 </v>
   <v>       0.50353087       0.00000000       0.87166795 </v>
   <v>       0.50353087       0.33333333       0.37166795 </v>
   <v>       0.50353087       0.33333333       0.87166795 </v>
   <v>       0.50353087       0.66666667       0.37166795 </v>
   <v>       0.50353087       0.66666667       0.87166795 </v>
   <v>       0.67337106       0.16666667       0.28161508 </v>
   <v>       0.67337106       0.16666667       0.78161508 </v>
   <v>       0.67337106       0.50000000       0.28161508 </v>
   <v>       0.67337106       0.50000000       0.78161508 </v>
   <v>       0.67337106       0.83333333       0.28161508 </v>
   <v>       0.67337106       0.83333333       0.78161508 </v>
   <v>       0.82662894       0.00000000       0.21838492 </v>
   <v>       0.82662894       0.00000000       0.71838492 </v>
   <v>       0.82662894       0.33333333       0.21838492 </v>
   <v>       0.82662894       0.33333333       0.71838492 </v>
   <v>       0.82662894       0.66666667       0.21838492 </v>
   <v>       0.82662894       0.66666667       0.71838492 </v>
   <v>       0.83549502       0.00000000       0.44542296 </v>
   <v>       0.83549502       0.00000000       0.94542296 </v>
   <v>       0.83549502       0.33333333       0.44542296 </v>
   <v>       0.83549502       0.33333333       0.94542296 </v>
   <v>       0.83549502       0.66666667       0.44542296 </v>
   <v>       0.83549502       0.66666667       0.94542296 </v>
   <v>       0.66450498       0.16666667       0.05457704 </v>
   <v>       0.66450498       0.16666667       0.55457704 </v>
   <v>       0.66450498       0.50000000       0.05457704 </v>
   <v>       0.66450498       0.50000000       0.55457704 </v>
   <v>       0.66450498       0.83333333       0.05457704 </v>
   <v>       0.66450498       0.83333333       0.55457704 </v>
   <v>       0.49646913       0.00000000       0.12833205 </v>
   <v>       0.49646913       0.00000000       0.62833205 </v>
   <v>       0.49646913       0.33333333       0.12833205 </v>
   <v>       0.49646913       0.33333333       0.62833205 </v>
   <v>       0.49646913       0.66666667       0.12833205 </v>
   <v>       0.49646913       0.66666667       0.62833205 </v>
   <v>       0.00353087       0.16666667       0.37166795 </v>
   <v>       0.00353087       0.16666667       0.87166795 </v>
   <v>       0.00353087       0.50000000       0.37166795 </v>
   <v>       0.00353087       0.50000000       0.87166795 </v>
   <v>       0.00353087       0.83333333       0.37166795 </v>
   <v>       0.00353087       0.83333333       0.87166795 </v>
   <v>       0.17337106       0.00000000       0.28161508 </v>
   <v>       0.17337106       0.00000000       0.78161508 </v>
   <v>       0.17337106       0.33333333       0.28161508 </v>
   <v>       0.17337106       0.33333333       0.78161508 </v>
   <v>       0.17337106       0.66666667       0.28161508 </v>
   <v>       0.17337106       0.66666667       0.78161508 </v>
   <v>       0.32662894       0.16666667       0.21838492 </v>
   <v>       0.32662894       0.16666667       0.71838492 </v>
   <v>       0.32662894       0.50000000       0.21838492 </v>
   <v>       0.32662894       0.50000000       0.71838492 </v>
   <v>       0.32662894       0.83333333       0.21838492 </v>
   <v>       0.32662894       0.83333333       0.71838492 </v>
   <v>       0.33549502       0.16666667       0.44542296 </v>
   <v>       0.33549502       0.16666667       0.94542296 </v>
   <v>       0.33549502       0.50000000       0.44542296 </v>
   <v>       0.33549502       0.50000000       0.94542296 </v>
   <v>       0.33549502       0.83333333       0.44542296 </v>
   <v>       0.33549502       0.83333333       0.94542296 </v>
   <v>       0.16450498       0.00000000       0.05457704 </v>
   <v>       0.16450498       0.00000000       0.55457704 </v>
   <v>       0.16450498       0.33333333       0.05457704 </v>
   <v>       0.16450498       0.33333333       0.55457704 </v>
   <v>       0.16450498       0.66666667       0.05457704 </v>
   <v>       0.16450498       0.66666667       0.55457704 </v>
  </varray>
 </structure>
</modeling>
