 running    4 mpi-ranks, on    1 nodes
 distrk:  each k-point on    1 cores,    4 groups
 distr:  one band on    1 cores,    1 groups
 OpenACC runtime initialized ...    4 GPUs detected
 vasp.6.4.2 20Jul23 (build Nov 12 2023 22:16:35) complex                         
 POSCAR found type information on POSCAR GaO 
 POSCAR found :  2 types and     120 ions
 scaLAPACK will be used selectively (only on CPU)
 LDA part: xc-table for Pade appr. of Perdew
 POSCAR, INCAR and KPOINTS ok, starting setup
 FFT: planning ... GRIDC
 FFT: planning ... GRID_SOFT
 FFT: planning ... GRID
 WAVECAR not read
 initial charge from wavefunction
 entering main loop
       N       E                     dE             d eps       ncg     rms          ort
DAV:   1    -0.181529253810E+05   -0.18153E+05   -0.54826E+05   633   0.745E+03
DAV:   2    -0.623081447260E+05   -0.44155E+05   -0.42871E+05   633   0.119E+03
DAV:   3    -0.667361125579E+05   -0.44280E+04   -0.39513E+04   633   0.343E+02
DAV:   4    -0.672262497018E+05   -0.49014E+03   -0.42155E+03   633   0.100E+02
DAV:   5    -0.370855897849E+05    0.30141E+05   -0.70636E+02   633   0.518E+01
 gam= 0.000 g(H,U,f)=  0.631E+05 0.346E+05 0.407E+03 ort(H,U,f) = 0.000E+00 0.000E+00 0.000E+00
SDA:   6     0.144415765748E+05    0.51527E+05   -0.70636E+02   633   0.982E+05 0.000E+00
 gam= 0.000 trial= 0.400  step= 0.272 mean= 0.400
 gam= 0.267 g(H,U,f)=  0.947E+04 0.377E+04 0.130E+05 ort(H,U,f) = 0.131E+05-0.280E+04-0.303E+05
CGA:   7     0.273941677716E+04   -0.11702E+05   -0.13364E+05   633   0.263E+05-0.200E+05
 gam= 0.267 trial= 0.394  step= 0.239 mean= 0.394
 gam= 0.208 g(H,U,f)=  0.344E+04 0.199E+04 0.426E+02 ort(H,U,f) = 0.626E+03 0.110E+04 0.110E+03
CGA:   8     0.877681394209E+03   -0.18617E+04   -0.25015E+04   633   0.547E+04 0.184E+04
 gam= 0.208 trial= 0.386  step= 0.168 mean= 0.386
 gam= 1.216 g(H,U,f)=  0.276E+04 0.376E+04 0.134E+03 ort(H,U,f) = 0.831E+03-0.683E+03-0.305E+01
CGA:   9     0.553603439652E+03   -0.32408E+03   -0.49335E+03   633   0.666E+04 0.144E+03
 gam= 1.216 trial= 0.375  step= 0.177 mean= 0.375
 gam= 0.962 g(H,U,f)=  0.250E+04 0.388E+04 0.313E+02 ort(H,U,f) =-0.735E+03 0.113E+03-0.401E+01
CGA:  10     0.144057910647E+03   -0.40955E+03   -0.60542E+03   633   0.641E+04-0.626E+03
 gam= 0.962 trial= 0.365  step= 0.173 mean= 0.365
 gam= 0.441 g(H,U,f)=  0.237E+04 0.450E+03 0.529E-01 ort(H,U,f) =-0.163E+04 0.387E+03-0.869E-01
CGA:  11    -0.315700354095E+03   -0.45976E+03   -0.50187E+03   633   0.282E+04-0.125E+04
 gam= 0.441 trial= 0.356  step= 0.298 mean= 0.356
 gam= 0.326 g(H,U,f)=  0.849E+03 0.717E+02 0.625E-17 ort(H,U,f) =-0.880E+02 0.109E+03 0.208E-15
CGA:  12    -0.651564242931E+03   -0.33586E+03   -0.33907E+03   633   0.920E+03 0.215E+02
 gam= 0.326 trial= 0.353  step= 0.339 mean= 0.353
 gam= 0.381 g(H,U,f)=  0.326E+03 0.246E+02 0.294E-01 ort(H,U,f) =-0.199E+02 0.583E+02 0.102E+00
CGA:  13    -0.808278201883E+03   -0.15671E+03   -0.15713E+03   633   0.351E+03 0.384E+02
 gam= 0.381 trial= 0.352  step= 0.434 mean= 0.352
 gam= 0.492 g(H,U,f)=  0.167E+03 0.587E+01 0.378E-16 ort(H,U,f) = 0.284E+02 0.580E+01-0.170E-15
CGA:  14    -0.889819205523E+03   -0.81541E+02   -0.79259E+02   633   0.173E+03 0.342E+02
 gam= 0.492 trial= 0.356  step= 0.419 mean= 0.356
 gam= 0.396 g(H,U,f)=  0.620E+02 0.635E+01 0.109E-12 ort(H,U,f) =-0.413E+01 0.471E+01-0.720E-13
CGA:  15    -0.929518720884E+03   -0.39700E+02   -0.39656E+02   633   0.683E+02 0.574E+00
 gam= 0.396 trial= 0.359  step= 0.476 mean= 0.359
 gam= 0.494 g(H,U,f)=  0.311E+02 0.261E+01 0.279E-14 ort(H,U,f) =-0.520E+01 0.495E+01 0.181E-14
CGA:  16    -0.945816791639E+03   -0.16298E+02   -0.16316E+02   633   0.337E+02-0.246E+00
 gam= 0.494 trial= 0.365  step= 0.427 mean= 0.365
 gam= 0.318 g(H,U,f)=  0.102E+02 0.584E+00 0.309E-11 ort(H,U,f) =-0.178E+01 0.170E+01 0.429E-11
CGA:  17    -0.952997151094E+03   -0.71804E+01   -0.71844E+01   633   0.107E+02-0.851E-01
 gam= 0.318 trial= 0.368  step= 0.462 mean= 0.368
 gam= 0.407 g(H,U,f)=  0.416E+01 0.213E+00 0.219E-26 ort(H,U,f) =-0.414E+00 0.381E+00 0.125E-25
CGA:  18    -0.955469592474E+03   -0.24724E+01   -0.24738E+01   633   0.437E+01-0.327E-01
 gam= 0.407 trial= 0.373  step= 0.556 mean= 0.373
 gam= 0.451 g(H,U,f)=  0.187E+01 0.105E+00 0.792E-18 ort(H,U,f) =-0.144E+00 0.132E+00 0.139E-16
CGA:  19    -0.956680272795E+03   -0.12107E+01   -0.12117E+01   633   0.197E+01-0.119E-01
 gam= 0.451 trial= 0.382  step= 0.507 mean= 0.382
 gam= 0.393 g(H,U,f)=  0.733E+00 0.419E-01 0.425E-20 ort(H,U,f) =-0.706E-01 0.649E-01 0.127E-19
CGA:  20    -0.957178560089E+03   -0.49829E+00   -0.49874E+00   633   0.775E+00-0.566E-02
 gam= 0.393 trial= 0.388  step= 0.498 mean= 0.388
 gam= 0.443 g(H,U,f)=  0.332E+00 0.112E-01 0.453E-19 ort(H,U,f) =-0.616E-02 0.530E-02 0.156E-18
CGA:  21    -0.957370978793E+03   -0.19242E+00   -0.19249E+00   633   0.343E+00-0.865E-03
 gam= 0.443 trial= 0.394  step= 0.500 mean= 0.394
 gam= 0.366 g(H,U,f)=  0.113E+00 0.123E-01 0.120E-17 ort(H,U,f) = 0.423E-02-0.463E-02 0.438E-17
CGA:  22    -0.957456620776E+03   -0.85642E-01   -0.85672E-01   633   0.125E+00-0.402E-03
 gam= 0.366 trial= 0.399  step= 0.510 mean= 0.399
 gam= 0.386 g(H,U,f)=  0.427E-01 0.571E-02 0.555E-17 ort(H,U,f) =-0.530E-02 0.510E-02 0.256E-16
CGA:  23    -0.957488564688E+03   -0.31944E-01   -0.31957E-01   633   0.484E-01-0.196E-03
 gam= 0.386 trial= 0.405  step= 0.566 mean= 0.405
 gam= 0.437 g(H,U,f)=  0.197E-01 0.142E-02 0.170E-17 ort(H,U,f) =-0.205E-02 0.210E-02 0.330E-16
CGA:  24    -0.957502231438E+03   -0.13667E-01   -0.13662E-01   633   0.211E-01 0.557E-04
 gam= 0.437 trial= 0.413  step= 0.525 mean= 0.413
 gam= 0.454 g(H,U,f)=  0.911E-02 0.482E-03 0.124E-15 ort(H,U,f) =-0.379E-03 0.484E-03-0.531E-15
CGA:  25    -0.957507794092E+03   -0.55627E-02   -0.55566E-02   633   0.959E-02 0.105E-03
 gam= 0.454 trial= 0.418  step= 0.508 mean= 0.418
 gam= 0.440 g(H,U,f)=  0.408E-02 0.140E-03 0.375E-14 ort(H,U,f) =-0.115E-03 0.164E-03-0.280E-14
CGA:  26    -0.957510243076E+03   -0.24490E-02   -0.24468E-02   633   0.422E-02 0.486E-04
 gam= 0.440 trial= 0.423  step= 0.493 mean= 0.423
 gam= 0.430 g(H,U,f)=  0.172E-02 0.919E-04 0.993E-15 ort(H,U,f) =-0.991E-04 0.841E-04 0.970E-15
CGA:  27    -0.957511289571E+03   -0.10465E-02   -0.10470E-02   633   0.182E-02-0.151E-04
 gam= 0.430 trial= 0.426  step= 0.523 mean= 0.426
 gam= 0.412 g(H,U,f)=  0.720E-03 0.275E-04 0.977E-17 ort(H,U,f) =-0.789E-04 0.469E-04 0.495E-16
CGA:  28    -0.957511761470E+03   -0.47190E-03   -0.47346E-03   633   0.748E-03-0.320E-04
 gam= 0.412 trial= 0.431  step= 0.536 mean= 0.431
 gam= 0.409 g(H,U,f)=  0.290E-03 0.160E-04 0.845E-16 ort(H,U,f) =-0.165E-04 0.198E-05 0.307E-15
CGA:  29    -0.957511957454E+03   -0.19598E-03   -0.19675E-03   633   0.306E-03-0.146E-04
 gam= 0.409 trial= 0.436  step= 0.549 mean= 0.436
 gam= 0.444 g(H,U,f)=  0.122E-03 0.133E-04 0.144E-24 ort(H,U,f) =-0.681E-05 0.663E-05 0.470E-24
CGA:  30    -0.957512039691E+03   -0.82237E-04   -0.82249E-04   633   0.136E-03-0.182E-06
 gam= 0.444 trial= 0.442  step= 0.530 mean= 0.442
 gam= 0.446 g(H,U,f)=  0.562E-04 0.433E-05 0.525E-24 ort(H,U,f) =-0.411E-05 0.621E-05 0.303E-23
CGA:  31    -0.957512075663E+03   -0.35972E-04   -0.35880E-04   633   0.605E-04 0.211E-05
 gam= 0.446 trial= 0.446  step= 0.523 mean= 0.446
 gam= 0.433 g(H,U,f)=  0.248E-04 0.140E-05 0.400E-25 ort(H,U,f) =-0.185E-05 0.108E-05 0.642E-25
CGA:  32    -0.957512091703E+03   -0.16040E-04   -0.16070E-04   633   0.262E-04-0.774E-06
 gam= 0.433 trial= 0.450  step= 0.572 mean= 0.450
 gam= 0.444 g(H,U,f)=  0.112E-04 0.475E-06 0.226E-22 ort(H,U,f) =-0.227E-05 0.735E-07-0.820E-22
CGA:  33    -0.957512098961E+03   -0.72573E-05   -0.73907E-05   633   0.116E-04-0.220E-05
 gam= 0.444 trial= 0.456  step= 0.540 mean= 0.456
 final diagonalization
   1 F= -.95751210E+03 E0= -.95751210E+03  d E =-.119735E-17
 writing wavefunctions
Warning: ieee_invalid is signaling
Warning: ieee_divide_by_zero is signaling
Warning: ieee_underflow is signaling
Warning: ieee_inexact is signaling
FORTRAN STOP
Warning: ieee_invalid is signaling
Warning: ieee_divide_by_zero is signaling
Warning: ieee_underflow is signaling
Warning: ieee_inexact is signaling
FORTRAN STOP
Warning: ieee_invalid is signaling
Warning: ieee_divide_by_zero is signaling
Warning: ieee_underflow is signaling
Warning: ieee_inexact is signaling
FORTRAN STOP
Warning: ieee_invalid is signaling
Warning: ieee_divide_by_zero is signaling
Warning: ieee_underflow is signaling
Warning: ieee_inexact is signaling
FORTRAN STOP
