       N       E                     dE             d eps       ncg     rms          ort
DAV:   1    -0.181529253810E+05   -0.18153E+05   -0.54826E+05   633   0.745E+03
DAV:   2    -0.623081447260E+05   -0.44155E+05   -0.42871E+05   633   0.119E+03
DAV:   3    -0.667361125579E+05   -0.44280E+04   -0.39513E+04   633   0.343E+02
DAV:   4    -0.672262497018E+05   -0.49014E+03   -0.42155E+03   633   0.100E+02
DAV:   5    -0.370855897849E+05    0.30141E+05   -0.70636E+02   633   0.518E+01
SDA:   6     0.144415765748E+05    0.51527E+05   -0.70636E+02   633   0.982E+05 0.000E+00
CGA:   7     0.273941677716E+04   -0.11702E+05   -0.13364E+05   633   0.263E+05-0.200E+05
CGA:   8     0.877681394209E+03   -0.18617E+04   -0.25015E+04   633   0.547E+04 0.184E+04
CGA:   9     0.553603439652E+03   -0.32408E+03   -0.49335E+03   633   0.666E+04 0.144E+03
CGA:  10     0.144057910647E+03   -0.40955E+03   -0.60542E+03   633   0.641E+04-0.626E+03
CGA:  11    -0.315700354095E+03   -0.45976E+03   -0.50187E+03   633   0.282E+04-0.125E+04
CGA:  12    -0.651564242931E+03   -0.33586E+03   -0.33907E+03   633   0.920E+03 0.215E+02
CGA:  13    -0.808278201883E+03   -0.15671E+03   -0.15713E+03   633   0.351E+03 0.384E+02
CGA:  14    -0.889819205523E+03   -0.81541E+02   -0.79259E+02   633   0.173E+03 0.342E+02
CGA:  15    -0.929518720884E+03   -0.39700E+02   -0.39656E+02   633   0.683E+02 0.574E+00
CGA:  16    -0.945816791639E+03   -0.16298E+02   -0.16316E+02   633   0.337E+02-0.246E+00
CGA:  17    -0.952997151094E+03   -0.71804E+01   -0.71844E+01   633   0.107E+02-0.851E-01
CGA:  18    -0.955469592474E+03   -0.24724E+01   -0.24738E+01   633   0.437E+01-0.327E-01
CGA:  19    -0.956680272795E+03   -0.12107E+01   -0.12117E+01   633   0.197E+01-0.119E-01
CGA:  20    -0.957178560089E+03   -0.49829E+00   -0.49874E+00   633   0.775E+00-0.566E-02
CGA:  21    -0.957370978793E+03   -0.19242E+00   -0.19249E+00   633   0.343E+00-0.865E-03
CGA:  22    -0.957456620776E+03   -0.85642E-01   -0.85672E-01   633   0.125E+00-0.402E-03
CGA:  23    -0.957488564688E+03   -0.31944E-01   -0.31957E-01   633   0.484E-01-0.196E-03
CGA:  24    -0.957502231438E+03   -0.13667E-01   -0.13662E-01   633   0.211E-01 0.557E-04
CGA:  25    -0.957507794092E+03   -0.55627E-02   -0.55566E-02   633   0.959E-02 0.105E-03
CGA:  26    -0.957510243076E+03   -0.24490E-02   -0.24468E-02   633   0.422E-02 0.486E-04
CGA:  27    -0.957511289571E+03   -0.10465E-02   -0.10470E-02   633   0.182E-02-0.151E-04
CGA:  28    -0.957511761470E+03   -0.47190E-03   -0.47346E-03   633   0.748E-03-0.320E-04
CGA:  29    -0.957511957454E+03   -0.19598E-03   -0.19675E-03   633   0.306E-03-0.146E-04
CGA:  30    -0.957512039691E+03   -0.82237E-04   -0.82249E-04   633   0.136E-03-0.182E-06
CGA:  31    -0.957512075663E+03   -0.35972E-04   -0.35880E-04   633   0.605E-04 0.211E-05
CGA:  32    -0.957512091703E+03   -0.16040E-04   -0.16070E-04   633   0.262E-04-0.774E-06
CGA:  33    -0.957512098961E+03   -0.72573E-05   -0.73907E-05   633   0.116E-04-0.220E-05
   1 F= -.95751210E+03 E0= -.95751210E+03  d E =-.119735E-17
