 vasp.6.4.2 20Jul23 (build Nov 12 2023 22:16:35) complex                         
 executed on              LinuxNV date 2025.03.25  15:34:05
 running    4 mpi-ranks, on    1 nodes
 distrk:  each k-point on    1 cores,    4 groups
 distr:  one band on NCORE=   1 cores,    1 groups
 OpenACC runtime initialized ...    4 GPUs detected


--------------------------------------------------------------------------------------------------------


 INCAR:
   PREC = Normal
   ENCUT = 450
   NELM = 500
   IBRION = -1
   ISPIN = 1
   NSW = 0
   ISIF = 2
   EDIFF = 1E-5
   EDIFFG = -5E-3
   ISTART = 0
   ICHARG = 0
   ISMEAR = 0
   SIGMA = 0.05
   LWAVE = .T.
   LCHARG = .T.
   LREAL = Auto
   LPLANE = .TRUE.
   NPAR = 1
   KPAR = 4
   NCORE = 1
   ALGO = All
   LHFCALC = .TRUE.
   HSE06 = .TRUE.
   HFSCREEN = 0.2
   TIME = 0.4
   AEXX = 0.32
   LMAXFOCK = 4
   PRECFOCK = Fast

 POTCAR:    PAW_PBE Ga_d 06Jul2010                
 POTCAR:    PAW_PBE O 08Apr2002                   
 POTCAR:    PAW_PBE Ga_d 06Jul2010                
   SHA256 =  a60ddf36e14f00ea098d9e3914b3745f1b7105e68786148f49ae384e44b4226c Ga_d/POTCAR           
   COPYR  = (c) Copyright 06Jul2010 Georg Kresse                                                    
   COPYR  = This file is part of the software VASP. Any use, copying, and all other rights are regul
   COPYR  = If you do not have a valid VASP license, you may not use, copy or distribute this file. 
   VRHFIN =Ga: s2p1                                                                                 
   LEXCH  = PE                                                                                      
   EATOM  =  2148.8298 eV,  157.9345 Ry                                                             
                                                                                                    
   TITEL  = PAW_PBE Ga_d 06Jul2010                                                                  
   LULTRA =        F    use ultrasoft PP ?                                                          
   IUNSCR =        1    unscreen: 0-lin 1-nonlin 2-no                                               
   RPACOR =    1.700    partial core radius                                                         
   POMASS =   69.723; ZVAL   =   13.000    mass and valenz                                          
   RCORE  =    2.300    outmost cutoff radius                                                       
   RWIGS  =    2.300; RWIGS  =    1.217    wigner-seitz radius (au A)                               
   ENMAX  =  282.691; ENMIN  =  212.018 eV                                                          
   ICORE  =        3    local potential                                                             
   LCOR   =        T    correct aug charges                                                         
   LPAW   =        T    paw PP                                                                      
   EAUG   =  490.690                                                                                
   DEXC   =    0.000                                                                                
   RMAX   =    2.341    core radius for proj-oper                                                   
   RAUG   =    1.300    factor for augmentation sphere                                              
   RDEP   =    2.413    radius for radial grids                                                     
   RDEPT  =    1.856    core radius for aug-charge                                                  
                                                                                                    
   Atomic configuration                                                                             
    9 entries                                                                                       
     n  l   j            E        occ.                                                              
     1  0  0.50    -10228.7831   2.0000                                                             
     2  0  0.50     -1262.1604   2.0000                                                             
     2  1  1.50     -1098.6333   6.0000                                                             
     3  0  0.50      -148.1110   2.0000                                                             
     3  1  1.50       -98.8436   6.0000                                                             
     3  2  2.50       -19.1549  10.0000                                                             
     4  0  0.50        -8.9483   2.0000                                                             
     4  1  0.50        -2.5791   1.0000                                                             
     4  3  2.50        -2.7416   0.0000                                                             
   Description                                                                                      
     l       E           TYP  RCUT    TYP  RCUT                                                     
     2    -19.1549037     23  2.300                                                                 
     2     -5.4423304     23  2.300                                                                 
     0     -8.9483111     23  2.300                                                                 
     0     68.0291300     23  2.300                                                                 
     1     -2.5790802     23  2.100                                                                 
     1     81.6349560     23  2.300                                                                 
     3      6.8029130     23  2.300                                                                 
  local pseudopotential read in
  partial core-charges read in
  partial kinetic energy density read in
  atomic valenz-charges read in
  non local Contribution for L=            2  read in
    real space projection operators read in
  non local Contribution for L=            2  read in
    real space projection operators read in
  non local Contribution for L=            0  read in
    real space projection operators read in
  non local Contribution for L=            0  read in
    real space projection operators read in
  non local Contribution for L=            1  read in
    real space projection operators read in
  non local Contribution for L=            1  read in
    real space projection operators read in
    PAW grid and wavefunctions read in
 
   number of l-projection  operators is LMAX  =            6
   number of lm-projection operators is LMMAX =           18
 
 POTCAR:    PAW_PBE O 08Apr2002                   
   SHA256 =  818f92134a0a090dccd8ba1447fa70422a3b330e708bb4f08108d8ae51209ddf O/POTCAR              
   COPYR  = (c) Copyright 08Apr2002 Georg Kresse                                                    
   COPYR  = This file is part of the software VASP. Any use, copying, and all other rights are regul
   COPYR  = If you do not have a valid VASP license, you may not use, copy or distribute this file. 
   VRHFIN =O: s2p4                                                                                  
   LEXCH  = PE                                                                                      
   EATOM  =   432.3788 eV,   31.7789 Ry                                                             
                                                                                                    
   TITEL  = PAW_PBE O 08Apr2002                                                                     
   LULTRA =        F    use ultrasoft PP ?                                                          
   IUNSCR =        1    unscreen: 0-lin 1-nonlin 2-no                                               
   RPACOR =    1.200    partial core radius                                                         
   POMASS =   16.000; ZVAL   =    6.000    mass and valenz                                          
   RCORE  =    1.520    outmost cutoff radius                                                       
   RWIGS  =    1.550; RWIGS  =    0.820    wigner-seitz radius (au A)                               
   ENMAX  =  400.000; ENMIN  =  300.000 eV                                                          
   ICORE  =        2    local potential                                                             
   LCOR   =        T    correct aug charges                                                         
   LPAW   =        T    paw PP                                                                      
   EAUG   =  605.392                                                                                
   DEXC   =    0.000                                                                                
   RMAX   =    1.553    core radius for proj-oper                                                   
   RAUG   =    1.300    factor for augmentation sphere                                              
   RDEP   =    1.550    radius for radial grids                                                     
   RDEPT  =    1.329    core radius for aug-charge                                                  
                                                                                                    
   Atomic configuration                                                                             
    4 entries                                                                                       
     n  l   j            E        occ.                                                              
     1  0  0.50      -514.6923   2.0000                                                             
     2  0  0.50       -23.9615   2.0000                                                             
     2  1  0.50        -9.0305   4.0000                                                             
     3  2  1.50        -9.5241   0.0000                                                             
   Description                                                                                      
     l       E           TYP  RCUT    TYP  RCUT                                                     
     0    -23.9615318     23  1.200                                                                 
     0     -9.5240782     23  1.200                                                                 
     1     -9.0304911     23  1.520                                                                 
     1      8.1634956     23  1.520                                                                 
     2     -9.5240782      7  1.500                                                                 
  local pseudopotential read in
  partial core-charges read in
  partial kinetic energy density read in
  kinetic energy density of atom read in
  atomic valenz-charges read in
  non local Contribution for L=            0  read in
    real space projection operators read in
  non local Contribution for L=            0  read in
    real space projection operators read in
  non local Contribution for L=            1  read in
    real space projection operators read in
  non local Contribution for L=            1  read in
    real space projection operators read in
    PAW grid and wavefunctions read in
 
   number of l-projection  operators is LMAX  =            4
   number of lm-projection operators is LMMAX =            8
 
 Optimization of the real space projectors (new method)

 maximal supplied QI-value         = 16.25
 optimisation between [QCUT,QGAM] = [ 10.73, 21.61] = [ 32.22,130.83] Ry 
 Optimized for a Real-space Cutoff    1.42 Angstroem

   l    n(q)    QCUT    max X(q) W(low)/X(q) W(high)/X(q)  e(spline) 
   2      8    10.726     7.143    0.22E-03    0.16E-03    0.73E-07
   2      8    10.726     5.586    0.40E-03    0.26E-03    0.10E-06
   0      9    10.726    12.382    0.25E-04    0.21E-05    0.37E-07
   0      9    10.726     6.622    0.42E-04    0.48E-05    0.77E-07
   1      9    10.726     7.935    0.27E-03    0.13E-04    0.16E-06
   1      9    10.726     2.425    0.23E-03    0.15E-04    0.14E-06
 Optimization of the real space projectors (new method)

 maximal supplied QI-value         = 24.76
 optimisation between [QCUT,QGAM] = [ 10.64, 21.54] = [ 31.73,129.89] Ry 
 Optimized for a Real-space Cutoff    1.23 Angstroem

   l    n(q)    QCUT    max X(q) W(low)/X(q) W(high)/X(q)  e(spline) 
   0      8    10.645    20.381    0.38E-03    0.60E-03    0.15E-06
   0      8    10.645    15.268    0.40E-03    0.65E-03    0.17E-06
   1      7    10.645     5.964    0.30E-03    0.63E-03    0.18E-06
   1      7    10.645     5.382    0.24E-03    0.53E-03    0.16E-06
  PAW_PBE Ga_d 06Jul2010                :
 energy of atom  1       EATOM=-2148.8298
 kinetic energy error for atom=    0.0038 (will be added to EATOM!!)
  PAW_PBE O 08Apr2002                   :
 energy of atom  2       EATOM= -432.3788
 kinetic energy error for atom=    0.0389 (will be added to EATOM!!)
 
 
 POSCAR: Ga48 O72
  positions in direct lattice
  velocities in cartesian coordinates
 exchange correlation table for  LEXCH =        8
   RHO(1)=    0.500       N(1)  =     2000
   RHO(2)=  100.500       N(2)  =     4000
 


--------------------------------------------------------------------------------------------------------


 ion  position               nearest neighbor table
   1  0.659  0.000  0.157-  85 1.94  83 1.95  79 1.95  67 2.02  61 2.08  65 2.08
   2  0.659  0.000  0.657-  86 1.94  84 1.95  80 1.95  68 2.02  62 2.08  66 2.08
   3  0.659  0.333  0.157-  87 1.94  81 1.95  79 1.95  69 2.02  63 2.08  61 2.08
   4  0.659  0.333  0.657-  88 1.94  82 1.95  80 1.95  70 2.02  64 2.08  62 2.08
   5  0.659  0.667  0.157-  89 1.94  81 1.95  83 1.95  71 2.02  63 2.08  65 2.08
   6  0.659  0.667  0.657-  90 1.94  82 1.95  84 1.95  72 2.02  64 2.08  66 2.08
   7  0.841  0.167  0.343-  91 1.94  73 1.95  75 1.95  61 2.02  67 2.08  69 2.08
   8  0.841  0.167  0.843-  92 1.94  74 1.95  76 1.95  62 2.02  68 2.08  70 2.08
   9  0.841  0.500  0.343-  93 1.94  77 1.95  75 1.95  63 2.02  71 2.08  69 2.08
  10  0.841  0.500  0.843-  94 1.94  78 1.95  76 1.95  64 2.02  72 2.08  70 2.08
  11  0.841  0.833  0.343-  95 1.94  73 1.95  77 1.95  65 2.02  67 2.08  71 2.08
  12  0.841  0.833  0.843-  96 1.94  74 1.95  78 1.95  66 2.02  68 2.08  72 2.08
  13  0.591  0.167  0.398-  80 1.84  55 1.85  57 1.85  61 1.87
  14  0.591  0.167  0.898-  79 1.84  56 1.85  58 1.85  62 1.87
  15  0.591  0.500  0.398-  82 1.84  59 1.85  57 1.85  63 1.87
  16  0.591  0.500  0.898-  81 1.84  60 1.85  58 1.85  64 1.87
  17  0.591  0.833  0.398-  84 1.84  55 1.85  59 1.85  65 1.87
  18  0.591  0.833  0.898-  83 1.84  56 1.85  60 1.85  66 1.87
  19  0.909  0.000  0.102-  74 1.84  53 1.85  49 1.85  67 1.87
  20  0.909  0.000  0.602-  73 1.84  54 1.85  50 1.85  68 1.87
  21  0.909  0.333  0.102-  76 1.84  51 1.85  49 1.85  69 1.87
  22  0.909  0.333  0.602-  75 1.84  52 1.85  50 1.85  70 1.87
  23  0.909  0.667  0.102-  78 1.84  51 1.85  53 1.85  71 1.87
  24  0.909  0.667  0.602-  77 1.84  52 1.85  54 1.85  72 1.87
  25  0.159  0.167  0.157-  49 1.94 115 1.95 117 1.95 103 2.02  97 2.08  99 2.08
  26  0.159  0.167  0.657-  50 1.94 116 1.95 118 1.95 104 2.02  98 2.08 100 2.08
  27  0.159  0.500  0.157-  51 1.94 117 1.95 119 1.95 105 2.02 101 2.08  99 2.08
  28  0.159  0.500  0.657-  52 1.94 118 1.95 120 1.95 106 2.02 102 2.08 100 2.08
  29  0.159  0.833  0.157-  53 1.94 115 1.95 119 1.95 107 2.02  97 2.08 101 2.08
  30  0.159  0.833  0.657-  54 1.94 116 1.95 120 1.95 108 2.02  98 2.08 102 2.08
  31  0.341  0.000  0.343-  55 1.94 109 1.95 113 1.95  97 2.02 103 2.08 107 2.08
  32  0.341  0.000  0.843-  56 1.94 110 1.95 114 1.95  98 2.02 104 2.08 108 2.08
  33  0.341  0.333  0.343-  57 1.94 111 1.95 109 1.95  99 2.02 105 2.08 103 2.08
  34  0.341  0.333  0.843-  58 1.94 112 1.95 110 1.95 100 2.02 106 2.08 104 2.08
  35  0.341  0.667  0.343-  59 1.94 111 1.95 113 1.95 101 2.02 105 2.08 107 2.08
  36  0.341  0.667  0.843-  60 1.94 112 1.95 114 1.95 102 2.02 106 2.08 108 2.08
  37  0.091  0.000  0.398- 116 1.84  95 1.85  91 1.85  97 1.87
  38  0.091  0.000  0.898- 115 1.84  96 1.85  92 1.85  98 1.87
  39  0.091  0.333  0.398- 118 1.84  93 1.85  91 1.85  99 1.87
  40  0.091  0.333  0.898- 117 1.84  94 1.85  92 1.85 100 1.87
  41  0.091  0.667  0.398- 120 1.84  93 1.85  95 1.85 101 1.87
  42  0.091  0.667  0.898- 119 1.84  94 1.85  96 1.85 102 1.87
  43  0.409  0.167  0.102- 110 1.84  85 1.85  87 1.85 103 1.87
  44  0.409  0.167  0.602- 109 1.84  86 1.85  88 1.85 104 1.87
  45  0.409  0.500  0.102- 112 1.84  89 1.85  87 1.85 105 1.87
  46  0.409  0.500  0.602- 111 1.84  90 1.85  88 1.85 106 1.87
  47  0.409  0.833  0.102- 114 1.84  85 1.85  89 1.85 107 1.87
  48  0.409  0.833  0.602- 113 1.84  86 1.85  90 1.85 108 1.87
  49  0.996  0.167  0.127-  19 1.85  21 1.85  25 1.94
  50  0.996  0.167  0.627-  20 1.85  22 1.85  26 1.94
  51  0.996  0.500  0.127-  21 1.85  23 1.85  27 1.94
  52  0.996  0.500  0.627-  22 1.85  24 1.85  28 1.94
  53  0.996  0.833  0.127-  19 1.85  23 1.85  29 1.94
  54  0.996  0.833  0.627-  20 1.85  24 1.85  30 1.94
  55  0.504  0.000  0.373-  13 1.85  17 1.85  31 1.94
  56  0.504  0.000  0.873-  14 1.85  18 1.85  32 1.94
  57  0.504  0.333  0.373-  15 1.85  13 1.85  33 1.94
  58  0.504  0.333  0.873-  16 1.85  14 1.85  34 1.94
  59  0.504  0.667  0.373-  15 1.85  17 1.85  35 1.94
  60  0.504  0.667  0.873-  16 1.85  18 1.85  36 1.94
  61  0.673  0.167  0.280-  13 1.87   7 2.02   1 2.08   3 2.08
  62  0.673  0.167  0.780-  14 1.87   8 2.02   2 2.08   4 2.08
  63  0.673  0.500  0.280-  15 1.87   9 2.02   3 2.08   5 2.08
  64  0.673  0.500  0.780-  16 1.87  10 2.02   4 2.08   6 2.08
  65  0.673  0.833  0.280-  17 1.87  11 2.02   1 2.08   5 2.08
  66  0.673  0.833  0.780-  18 1.87  12 2.02   2 2.08   6 2.08
  67  0.827  0.000  0.220-  19 1.87   1 2.02  11 2.08   7 2.08
  68  0.827  0.000  0.720-  20 1.87   2 2.02  12 2.08   8 2.08
  69  0.827  0.333  0.220-  21 1.87   3 2.02   9 2.08   7 2.08
  70  0.827  0.333  0.720-  22 1.87   4 2.02  10 2.08   8 2.08
  71  0.827  0.667  0.220-  23 1.87   5 2.02   9 2.08  11 2.08
  72  0.827  0.667  0.720-  24 1.87   6 2.02  10 2.08  12 2.08
  73  0.832  0.000  0.446-  20 1.84  11 1.95   7 1.95
  74  0.832  0.000  0.946-  19 1.84  12 1.95   8 1.95
  75  0.832  0.333  0.446-  22 1.84   9 1.95   7 1.95
  76  0.832  0.333  0.946-  21 1.84  10 1.95   8 1.95
  77  0.832  0.667  0.446-  24 1.84   9 1.95  11 1.95
  78  0.832  0.667  0.946-  23 1.84  10 1.95  12 1.95
  79  0.668  0.167  0.054-  14 1.84   1 1.95   3 1.95
  80  0.668  0.167  0.554-  13 1.84   2 1.95   4 1.95
  81  0.668  0.500  0.054-  16 1.84   5 1.95   3 1.95
  82  0.668  0.500  0.554-  15 1.84   6 1.95   4 1.95
  83  0.668  0.833  0.054-  18 1.84   1 1.95   5 1.95
  84  0.668  0.833  0.554-  17 1.84   2 1.95   6 1.95
  85  0.496  0.000  0.127-  43 1.85  47 1.85   1 1.94
  86  0.496  0.000  0.627-  44 1.85  48 1.85   2 1.94
  87  0.496  0.333  0.127-  45 1.85  43 1.85   3 1.94
  88  0.496  0.333  0.627-  46 1.85  44 1.85   4 1.94
  89  0.496  0.667  0.127-  45 1.85  47 1.85   5 1.94
  90  0.496  0.667  0.627-  46 1.85  48 1.85   6 1.94
  91  0.004  0.167  0.373-  37 1.85  39 1.85   7 1.94
  92  0.004  0.167  0.873-  38 1.85  40 1.85   8 1.94
  93  0.004  0.500  0.373-  39 1.85  41 1.85   9 1.94
  94  0.004  0.500  0.873-  40 1.85  42 1.85  10 1.94
  95  0.004  0.833  0.373-  37 1.85  41 1.85  11 1.94
  96  0.004  0.833  0.873-  38 1.85  42 1.85  12 1.94
  97  0.173  0.000  0.280-  37 1.87  31 2.02  25 2.08  29 2.08
  98  0.173  0.000  0.780-  38 1.87  32 2.02  26 2.08  30 2.08
  99  0.173  0.333  0.280-  39 1.87  33 2.02  27 2.08  25 2.08
 100  0.173  0.333  0.780-  40 1.87  34 2.02  28 2.08  26 2.08
 101  0.173  0.667  0.280-  41 1.87  35 2.02  27 2.08  29 2.08
 102  0.173  0.667  0.780-  42 1.87  36 2.02  28 2.08  30 2.08
 103  0.327  0.167  0.220-  43 1.87  25 2.02  31 2.08  33 2.08
 104  0.327  0.167  0.720-  44 1.87  26 2.02  32 2.08  34 2.08
 105  0.327  0.500  0.220-  45 1.87  27 2.02  35 2.08  33 2.08
 106  0.327  0.500  0.720-  46 1.87  28 2.02  36 2.08  34 2.08
 107  0.327  0.833  0.220-  47 1.87  29 2.02  31 2.08  35 2.08
 108  0.327  0.833  0.720-  48 1.87  30 2.02  32 2.08  36 2.08
 109  0.332  0.167  0.446-  44 1.84  31 1.95  33 1.95
 110  0.332  0.167  0.946-  43 1.84  32 1.95  34 1.95
 111  0.332  0.500  0.446-  46 1.84  35 1.95  33 1.95
 112  0.332  0.500  0.946-  45 1.84  36 1.95  34 1.95
 113  0.332  0.833  0.446-  48 1.84  31 1.95  35 1.95
 114  0.332  0.833  0.946-  47 1.84  32 1.95  36 1.95
 115  0.168  0.000  0.054-  38 1.84  29 1.95  25 1.95
 116  0.168  0.000  0.554-  37 1.84  30 1.95  26 1.95
 117  0.168  0.333  0.054-  40 1.84  27 1.95  25 1.95
 118  0.168  0.333  0.554-  39 1.84  28 1.95  26 1.95
 119  0.168  0.667  0.054-  42 1.84  27 1.95  29 1.95
 120  0.168  0.667  0.554-  41 1.84  28 1.95  30 1.95
 
  LATTYP: Found a simple monoclinic cell.
 ALAT       =    11.6348202465
 B/A-ratio  =     0.7858051831
 C/A-ratio  =     1.0554931797
 COS(beta)  =    -0.2379290539
  
  Lattice vectors:
  
 A1 = (   0.0000000000,  -2.7682617730, -11.3006977184)
 A2 = (  -9.1427020537,   0.0000000000,   0.0000000000)
 A3 = (   0.0000000000,  12.2804734172,   0.0000000000)


Analysis of symmetry for initial positions (statically):
=====================================================================
 Subroutine PRICEL returns following result:
 
  LATTYP: Found a base centered monoclinic cell.
 ALAT       =    12.2804734172
 B/A-ratio  =     0.2481636699
 C/A-ratio  =     0.4737122036
 COS(beta)  =    -0.2379290539
  
  Lattice vectors:
  
 A1 = (  -1.5237836756,   6.1402367086,   0.0000000000)
 A2 = (   1.5237836756,   6.1402367086,   0.0000000000)
 A3 = (   0.0000000000,  -1.3841308865,  -5.6503488592)
 
  12 primitive cells build up your supercell.
 

 Routine SETGRP: Setting up the symmetry group for a 
 simple monoclinic supercell.


 Subroutine GETGRP returns: Found  4 space group operations
 (whereof  4 operations were pure point group operations)
 out of a pool of  4 trial point group operations.


The static configuration has the point symmetry C_2h.


Analysis of symmetry for dynamics (positions and initial velocities):
=====================================================================
 Subroutine PRICEL returns following result:
 
  LATTYP: Found a base centered monoclinic cell.
 ALAT       =    12.2804734172
 B/A-ratio  =     0.2481636699
 C/A-ratio  =     0.4737122036
 COS(beta)  =    -0.2379290539
  
  Lattice vectors:
  
 A1 = (  -1.5237836756,   6.1402367086,   0.0000000000)
 A2 = (   1.5237836756,   6.1402367086,   0.0000000000)
 A3 = (   0.0000000000,  -1.3841308865,  -5.6503488592)
 
  12 primitive cells build up your supercell.
 

 Routine SETGRP: Setting up the symmetry group for a 
 simple monoclinic supercell.


 Subroutine GETGRP returns: Found  4 space group operations
 (whereof  4 operations were pure point group operations)
 out of a pool of  4 trial point group operations.


The dynamic configuration has the point symmetry C_2h.


 Subroutine INISYM returns: Found  4 space group operations
 (whereof  4 operations are pure point group operations),
 and found    12 'primitive' translations


----------------------------------------------------------------------------------------

                                     Primitive cell                                     

  volume of cell :     105.7338

  direct lattice vectors                    reciprocal lattice vectors
    -1.523783676  6.140236709  0.000000000    -0.328130566  0.081430085 -0.019947423
     1.523783676  6.140236709  0.000000000     0.328130566  0.081430085 -0.019947423
     0.000000000 -1.384130887 -5.650348859     0.000000000  0.000000000 -0.176980223

  length of vectors
     6.326485875  6.326485875  5.817410123     0.338671562  0.338671562  0.176980223

  position of ions in fractional coordinates (direct lattice)
     0.659013702  0.659013702  0.313188755
     0.340986298  0.340986298  0.686811245
     0.091088513  0.091088513  0.795156053
     0.908911487  0.908911487  0.204843947
     0.496365390  0.496365390  0.254455414
     0.503634610  0.503634610  0.745544586
     0.172537050  0.172537050  0.560792266
     0.827462950  0.827462950  0.439207734
     0.832086263  0.832086263  0.891616462
     0.167913737  0.167913737  0.108383538

  ion indices of the primitive-cell ions
   primitive index   ion index
                 1           1
                 2           7
                 3          13
                 4          19
                 5          85
                 6          55
                 7          61
                 8          67
                 9          74
                10          79

----------------------------------------------------------------------------------------

 
 
 KPOINTS: Automatic mesh                          

Automatic generation of k-mesh.
 Grid dimensions read from file:
 generate k-points for:    1    1    1

 Generating k-lattice:

  Cartesian coordinates                     Fractional coordinates (reciprocal lattice)
     0.000000000  0.081430085 -0.019947423     1.000000000  0.000000000  0.000000000
     0.109376855 -0.000000000  0.000000000     0.000000000  1.000000000  0.000000000
     0.000000000  0.000000000 -0.088490111     0.000000000  0.000000000  1.000000000

  Length of vectors
     0.083837691  0.109376855  0.088490111

  Shift w.r.t. Gamma in fractional coordinates (k-lattice)
     0.000000000  0.000000000  0.000000000

 
 Subroutine IBZKPT returns following result:
 ===========================================
 
 Found      1 irreducible k-points:
 
 Following reciprocal coordinates:
            Coordinates               Weight
  0.000000  0.000000  0.000000      1.000000
 
 Following cartesian coordinates:
            Coordinates               Weight
  0.000000  0.000000 -0.000000      1.000000
 
 
 Subroutine IBZKPT_HF returns following result:
 ==============================================
 
 Found      1 k-points in 1st BZ
 the following      1 k-points will be used (e.g. in the exchange kernel)
 Following reciprocal coordinates:   # in IRBZ
  0.000000  0.000000  0.000000    1.00000000   1 t-inv F


--------------------------------------------------------------------------------------------------------




 Dimension of arrays:
   k-points           NKPTS =      1   k-points in BZ     NKDIM =      1   number of bands    NBANDS=    633
   number of dos      NEDOS =    301   number of ions     NIONS =    120
   non local maximal  LDIM  =      6   non local SUM 2l+1 LMDIM =     18
   total plane-waves  NPLWV = 184320
   max r-space proj   IRMAX =   1800   max aug-charges    IRDMAX=   5704
   dimension x,y,z NGX =    64 NGY =   48 NGZ =   60
   dimension x,y,z NGXF=   128 NGYF=   96 NGZF=  120
   support grid    NGXF=   128 NGYF=   96 NGZF=  120
   ions per type =              48  72
   NGX,Y,Z   is equivalent  to a cutoff of   8.66,  8.73,  8.57 a.u.
   NGXF,Y,Z  is equivalent  to a cutoff of  17.33, 17.46, 17.15 a.u.

 SYSTEM =  unknown system                          
 POSCAR =  Ga48 O72                                

 Startparameter for this run:
   NWRITE =      2    write-flag & timer
   PREC   = normal    normal or accurate (medium, high low for compatibility)
   ISTART =      0    job   : 0-new  1-cont  2-samecut
   ICHARG =      0    charge: 1-file 2-atom 10-const
   ISPIN  =      1    spin polarized calculation?
   LNONCOLLINEAR =      F non collinear calculations
   LSORBIT =      F    spin-orbit coupling
   INIWAV =      1    electr: 0-lowe 1-rand  2-diag
   LASPH  =      F    aspherical Exc in radial PAW
 Electronic Relaxation 1
   ENCUT  =  450.0 eV  33.07 Ry    5.75 a.u.  21.24 15.81 20.12*2*pi/ulx,y,z
   ENINI  =  450.0     initial cutoff
   ENAUG  =  605.4 eV  augmentation charge cutoff
   NELM   =    500;   NELMIN=  2; NELMDL= -5     # of ELM steps 
   EDIFF  = 0.1E-04   stopping-criterion for ELM
   LREAL  =      T    real-space projection
   NLSPLINE    = F    spline interpolate recip. space projectors
   LCOMPAT=      F    compatible to vasp.4.4
   GGA_COMPAT  = T    GGA compatible to vasp.4.4-vasp.4.6
   LMAXPAW     = -100 max onsite density
   LMAXMIX     =    2 max onsite mixed and CHGCAR
   VOSKOWN=      0    Vosko Wilk Nusair interpolation
   ROPT   =   -0.00050  -0.00050
 Ionic relaxation
   EDIFFG = -.5E-02   stopping-criterion for IOM
   NSW    =      0    number of steps for IOM
   NBLOCK =      1;   KBLOCK =      1    inner block; outer block 
   IBRION =     -1    ionic relax: 0-MD 1-quasi-New 2-CG
   NFREE  =      0    steps in history (QN), initial steepest desc. (CG)
   ISIF   =      2    stress and relaxation
   IWAVPR =     10    prediction:  0-non 1-charg 2-wave 3-comb
   ISYM   =      3    0-nonsym 1-usesym 2-fastsym
   LCORR  =      T    Harris-Foulkes like correction to forces

   POTIM  = 0.5000    time-step for ionic-motion
   TEIN   =    0.0    initial temperature
   TEBEG  =    0.0;   TEEND  =   0.0 temperature during run
   SMASS  =  -3.00    Nose mass-parameter (am)
   estimated Nose-frequenzy (Omega)   =  0.10E-29 period in steps = 0.13E+47 mass=  -0.345E-26a.u.
   SCALEE = 1.0000    scale energy and forces
   NPACO  =    256;   APACO  = 10.0  distance and # of slots for P.C.
   PSTRESS=    0.0 pullay stress

  Mass of Ions in am
   POMASS =  69.72 16.00
  Ionic Valenz
   ZVAL   =  13.00  6.00
  Atomic Wigner-Seitz radii
   RWIGS  =  -1.00 -1.00
  virtual crystal weights 
   VCA    =   1.00  1.00
   NELECT =    1056.0000    total number of electrons
   NUPDOWN=      -1.0000    fix difference up-down

 DOS related values:
   EMIN   =  10.00;   EMAX   =-10.00  energy-range for DOS
   EFERMI =   0.00;   METHOD = LEGACY      
   ISMEAR =     0;   SIGMA  =   0.05  broadening in eV -4-tet -1-fermi 0-gaus

 Electronic relaxation 2 (details)
   IALGO  =     58    algorithm
   LDIAG  =      T    sub-space diagonalisation (order eigenvalues)
   LSUBROT=      F    optimize rotation matrix (better conditioning)
   TURBO    =      0    0=normal 1=particle mesh
   IRESTART =      0    0=no restart 2=restart with 2 vectors
   NREBOOT  =      0    no. of reboots
   NMIN     =      0    reboot dimension
   EREF     =   0.00    reference energy to select bands
   IMIX   =      4    mixing-type and parameters
     AMIX     =   0.40;   BMIX     =  1.00
     AMIX_MAG =   1.60;   BMIX_MAG =  1.00
     AMIN     =   0.10
     WC   =   100.;   INIMIX=   1;  MIXPRE=   1;  MAXMIX= -45

 Intra band minimization:
   WEIMIN = 0.0000     energy-eigenvalue tresh-hold
   EBREAK =  0.39E-08  absolut break condition
   DEPER  =   0.30     relativ break condition  

   TIME   =   0.40     timestep for ELM

  volume/ion in A,a.u.               =      10.57        71.35
  Fermi-wavevector in a.u.,A,eV,Ry     =   1.539919  2.910025 32.264175  2.371350
  Thomas-Fermi vector in A             =   2.646079
 
 Write flags
   LWAVE        =      T    write WAVECAR
   LDOWNSAMPLE  =      F    k-point downsampling of WAVECAR
   LCHARG       =      T    write CHGCAR
   LVTOT        =      F    write LOCPOT, total local potential
   LVHAR        =      F    write LOCPOT, Hartree potential only
   LELF         =      F    write electronic localiz. function (ELF)
   LORBIT       =      0    0 simple, 1 ext, 2 COOP (PROOUT), +10 PAW based schemes


 Dipole corrections
   LMONO  =      F    monopole corrections only (constant potential shift)
   LDIPOL =      F    correct potential (dipole corrections)
   IDIPOL =      0    1-x, 2-y, 3-z, 4-all directions 
   EPSILON=  1.0000000 bulk dielectric constant

 Exchange correlation treatment:
   GGA     =    --    GGA type
   LEXCH   =     8    internal setting for exchange type
   LIBXC   =     F    Libxc                    
   VOSKOWN =     0    Vosko Wilk Nusair interpolation
   EXXOEP  =     0    0=HF, 1=EXX-LHF (local Hartree Fock) 2=EXX OEP
   LHFCALC =     T    Hartree Fock is set to
   LSYMGRAD=     F    symmetrize gradient (conserves proper symmetry)
   PRECFOCK=fast      Normal, Fast or Accurate (Low or Medium for compatibility)
   LRHFCALC=     F    long range Hartree Fock
   LRSCOR  =     F    long range correlation only (use DFT for short range part)
   LTHOMAS =     F    Thomas Fermi screening in HF
   LMODELHF=     F    short range full HF, long range fraction AEXX
   FOCKCORR=     1    mode to apply convergence corrections
   LFOCKACE=     T    use Adeptively-Compressed-Exchange operator
   ENCUT4O =  -1.0   cutoff for four orbital integrals eV
   LMAXFOCK=     4    L truncation for augmentation on plane wave grid
   LMAXFOCKAE=  -1    L truncation for all-electron charge restoration on plane wave grid
   NMAXFOCKAE=   1    number of basis functions for all-electron charge restoration
   LFOCKAEDFT=     F  apply the AE augmentation even for DFT
   NKREDX  =     1    reduce k-point grid by
   NKREDY  =     1    reduce k-point grid by
   NKREDZ  =     1    reduce k-point grid by
   SHIFTRED=     F    shift reduced grid of Gamma
   HFKIDENT=     F    idential grid for each k-point
   ODDONLY =     F    use only odd q-grid points
   EVENONLY=     F    use only even q-grid points
   HFALPHA =   -1.0000 decay constant for conv. correction
   MCALPHA =    0.0000 extent of test-charge in conv. correction in multipole expansion
   AEXX    =    0.3200 exact exchange contribution
   HFSCREEN=    0.2000 screening length (either q_TF or 0.3 A-1)
   HFSCREENC=   0.2000 screening length for correlation (either q_TF or 0.3 A-1)
   HFRCUT  =    0.0000 spherical cutoff for potential kernel
   ALDAX   =    0.6800 LDA exchange part
   AGGAX   =    0.6800 GGA exchange part
   ALDAC   =    1.0000 LDA correlation
   AGGAC   =    1.0000 GGA correlation
   ENCUTFOCK=  -1.0 apply spherical cutoff to Coloumb kernel
   NBANDSGWLOW=     1    first orbital included in HF term
   NBLOCK_FOCK=    64    blocking factor in FOCK_ACC

 Linear response parameters
   LEPSILON=     F    determine dielectric tensor
   LRPA    =     F    only Hartree local field effects (RPA)
   LNABLA  =     F    use nabla operator in PAW spheres
   LVEL    =     F    velocity operator in full k-point grid
   CSHIFT  =0.1000    complex shift for real part using Kramers Kronig
   OMEGAMAX=  -1.0    maximum frequency
   DEG_THRESHOLD= 0.2000000E-02 threshold for treating states as degnerate
   RTIME   =   -0.100 relaxation time in fs
  (WPLASMAI=    0.000 imaginary part of plasma frequency in eV, 0.658/RTIME)
   DFIELD  = 0.0000000 0.0000000 0.0000000 field for delta impulse in time
 
  Optional k-point grid parameters
   LKPOINTS_OPT  =     F    use optional k-point grid
   KPOINTS_OPT_MODE=     1    mode for optional k-point grid
 
 Orbital magnetization related:
   ORBITALMAG=     F  switch on orbital magnetization
   LCHIMAG   =     F  perturbation theory with respect to B field
   DQ        =  0.001000  dq finite difference perturbation B field
   LLRAUG    =     F  two centre corrections for induced B field
   LBONE     =     F  B-component reconstruction in AE one-centre
   LVGVCALC  =     T  calculate vGv susceptibility
   LVGVAPPL  =     F  apply vGv susceptibility instead of pGv for G=0

 Random number generation:
   RANDOM_GENERATOR = DEFAULT
   PCG_SEED         = not used


--------------------------------------------------------------------------------------------------------


 Static calculation
 charge density and potential will be updated during run
 non-spin polarized calculation
 Conjugate gradient for all bands (Freysoldt, et al. PRB 79, 241103 (2009))
 preconditioned conjugated gradient                                        
 perform sub-space diagonalisation
    before iterative eigenvector-optimisation
 modified Broyden-mixing scheme, WC =      100.0
 initial mixing is a Kerker type mixing with AMIX =  0.4000 and BMIX =      1.0000
 Hartree-type preconditioning will be used
 using additional bands           105
 real space projection scheme for non local part
 use partial core corrections
 no Harris-corrections to forces 
 use gradient corrections 
 use of overlap-Matrix (Vanderbilt PP)
 Gauss-broadening in eV      SIGMA  =   0.05


--------------------------------------------------------------------------------------------------------


  energy-cutoff  :      450.00
  volume of cell :     1268.81
      direct lattice vectors                 reciprocal lattice vectors
     0.000000000 12.280473417  0.000000000     0.000000000  0.081430085 -0.019947423
     9.142702054  0.000000000  0.000000000     0.109376855 -0.000000000  0.000000000
     0.000000000 -2.768261773-11.300697718     0.000000000  0.000000000 -0.088490111

  length of vectors
    12.280473417  9.142702054 11.634820246     0.083837691  0.109376855  0.088490111


 
 k-points in units of 2pi/SCALE and weight: Automatic mesh                          
   0.00000000  0.00000000 -0.00000000       1.000
 
 k-points in reciprocal lattice and weights: Automatic mesh                          
   0.00000000  0.00000000  0.00000000       1.000
 
 position of ions in fractional coordinates (direct lattice) 
   0.65901370  0.00000000  0.15659438
   0.65901370  0.00000000  0.65659438
   0.65901370  0.33333333  0.15659438
   0.65901370  0.33333333  0.65659438
   0.65901370  0.66666667  0.15659438
   0.65901370  0.66666667  0.65659438
   0.84098630  0.16666667  0.34340562
   0.84098630  0.16666667  0.84340562
   0.84098630  0.50000000  0.34340562
   0.84098630  0.50000000  0.84340562
   0.84098630  0.83333333  0.34340562
   0.84098630  0.83333333  0.84340562
   0.59108851  0.16666667  0.39757803
   0.59108851  0.16666667  0.89757803
   0.59108851  0.50000000  0.39757803
   0.59108851  0.50000000  0.89757803
   0.59108851  0.83333333  0.39757803
   0.59108851  0.83333333  0.89757803
   0.90891149  0.00000000  0.10242197
   0.90891149  0.00000000  0.60242197
   0.90891149  0.33333333  0.10242197
   0.90891149  0.33333333  0.60242197
   0.90891149  0.66666667  0.10242197
   0.90891149  0.66666667  0.60242197
   0.15901370  0.16666667  0.15659438
   0.15901370  0.16666667  0.65659438
   0.15901370  0.50000000  0.15659438
   0.15901370  0.50000000  0.65659438
   0.15901370  0.83333333  0.15659438
   0.15901370  0.83333333  0.65659438
   0.34098630  0.00000000  0.34340562
   0.34098630  0.00000000  0.84340562
   0.34098630  0.33333333  0.34340562
   0.34098630  0.33333333  0.84340562
   0.34098630  0.66666667  0.34340562
   0.34098630  0.66666667  0.84340562
   0.09108851  0.00000000  0.39757803
   0.09108851  0.00000000  0.89757803
   0.09108851  0.33333333  0.39757803
   0.09108851  0.33333333  0.89757803
   0.09108851  0.66666667  0.39757803
   0.09108851  0.66666667  0.89757803
   0.40891149  0.16666667  0.10242197
   0.40891149  0.16666667  0.60242197
   0.40891149  0.50000000  0.10242197
   0.40891149  0.50000000  0.60242197
   0.40891149  0.83333333  0.10242197
   0.40891149  0.83333333  0.60242197
   0.99636539  0.16666667  0.12722771
   0.99636539  0.16666667  0.62722771
   0.99636539  0.50000000  0.12722771
   0.99636539  0.50000000  0.62722771
   0.99636539  0.83333333  0.12722771
   0.99636539  0.83333333  0.62722771
   0.50363461  0.00000000  0.37277229
   0.50363461  0.00000000  0.87277229
   0.50363461  0.33333333  0.37277229
   0.50363461  0.33333333  0.87277229
   0.50363461  0.66666667  0.37277229
   0.50363461  0.66666667  0.87277229
   0.67253705  0.16666667  0.28039613
   0.67253705  0.16666667  0.78039613
   0.67253705  0.50000000  0.28039613
   0.67253705  0.50000000  0.78039613
   0.67253705  0.83333333  0.28039613
   0.67253705  0.83333333  0.78039613
   0.82746295  0.00000000  0.21960387
   0.82746295  0.00000000  0.71960387
   0.82746295  0.33333333  0.21960387
   0.82746295  0.33333333  0.71960387
   0.82746295  0.66666667  0.21960387
   0.82746295  0.66666667  0.71960387
   0.83208626  0.00000000  0.44580823
   0.83208626  0.00000000  0.94580823
   0.83208626  0.33333333  0.44580823
   0.83208626  0.33333333  0.94580823
   0.83208626  0.66666667  0.44580823
   0.83208626  0.66666667  0.94580823
   0.66791374  0.16666667  0.05419177
   0.66791374  0.16666667  0.55419177
   0.66791374  0.50000000  0.05419177
   0.66791374  0.50000000  0.55419177
   0.66791374  0.83333333  0.05419177
   0.66791374  0.83333333  0.55419177
   0.49636539  0.00000000  0.12722771
   0.49636539  0.00000000  0.62722771
   0.49636539  0.33333333  0.12722771
   0.49636539  0.33333333  0.62722771
   0.49636539  0.66666667  0.12722771
   0.49636539  0.66666667  0.62722771
   0.00363461  0.16666667  0.37277229
   0.00363461  0.16666667  0.87277229
   0.00363461  0.50000000  0.37277229
   0.00363461  0.50000000  0.87277229
   0.00363461  0.83333333  0.37277229
   0.00363461  0.83333333  0.87277229
   0.17253705  0.00000000  0.28039613
   0.17253705  0.00000000  0.78039613
   0.17253705  0.33333333  0.28039613
   0.17253705  0.33333333  0.78039613
   0.17253705  0.66666667  0.28039613
   0.17253705  0.66666667  0.78039613
   0.32746295  0.16666667  0.21960387
   0.32746295  0.16666667  0.71960387
   0.32746295  0.50000000  0.21960387
   0.32746295  0.50000000  0.71960387
   0.32746295  0.83333333  0.21960387
   0.32746295  0.83333333  0.71960387
   0.33208626  0.16666667  0.44580823
   0.33208626  0.16666667  0.94580823
   0.33208626  0.50000000  0.44580823
   0.33208626  0.50000000  0.94580823
   0.33208626  0.83333333  0.44580823
   0.33208626  0.83333333  0.94580823
   0.16791374  0.00000000  0.05419177
   0.16791374  0.00000000  0.55419177
   0.16791374  0.33333333  0.05419177
   0.16791374  0.33333333  0.55419177
   0.16791374  0.66666667  0.05419177
   0.16791374  0.66666667  0.55419177
 
 position of ions in cartesian coordinates  (Angst):
   0.00000000  7.65950603 -1.76962572
   0.00000000  6.27537514 -7.41997458
   3.04756735  7.65950603 -1.76962572
   3.04756735  6.27537514 -7.41997458
   6.09513470  7.65950603 -1.76962572
   6.09513470  6.27537514 -7.41997458
   1.52378368  9.37707321 -3.88072314
   1.52378368  7.99294233 -9.53107200
   4.57135103  9.37707321 -3.88072314
   4.57135103  7.99294233 -9.53107200
   7.61891838  9.37707321 -3.88072314
   7.61891838  7.99294233 -9.53107200
   1.52378368  6.15824672 -4.49290910
   1.52378368  4.77411583-10.14325795
   4.57135103  6.15824672 -4.49290910
   4.57135103  4.77411583-10.14325795
   7.61891838  6.15824672 -4.49290910
   7.61891838  4.77411583-10.14325795
   0.00000000 10.87833252 -1.15743976
   0.00000000  9.49420163 -6.80778862
   3.04756735 10.87833252 -1.15743976
   3.04756735  9.49420163 -6.80778862
   6.09513470 10.87833252 -1.15743976
   6.09513470  9.49420163 -6.80778862
   1.52378368  1.51926932 -1.76962572
   1.52378368  0.13513843 -7.41997458
   4.57135103  1.51926932 -1.76962572
   4.57135103  0.13513843 -7.41997458
   7.61891838  1.51926932 -1.76962572
   7.61891838  0.13513843 -7.41997458
   0.00000000  3.23683650 -3.88072314
   0.00000000  1.85270562 -9.53107200
   3.04756735  3.23683650 -3.88072314
   3.04756735  1.85270562 -9.53107200
   6.09513470  3.23683650 -3.88072314
   6.09513470  1.85270562 -9.53107200
   0.00000000  0.01801001 -4.49290910
   0.00000000 -1.36612088-10.14325795
   3.04756735  0.01801001 -4.49290910
   3.04756735 -1.36612088-10.14325795
   6.09513470  0.01801001 -4.49290910
   6.09513470 -1.36612088-10.14325795
   1.52378368  4.73809581 -1.15743976
   1.52378368  3.35396493 -6.80778862
   4.57135103  4.73809581 -1.15743976
   4.57135103  3.35396493 -6.80778862
   7.61891838  4.73809581 -1.15743976
   7.61891838  3.35396493 -6.80778862
   1.52378368 11.88363909 -1.43776186
   1.52378368 10.49950820 -7.08811072
   4.57135103 11.88363909 -1.43776186
   4.57135103 10.49950820 -7.08811072
   7.61891838 11.88363909 -1.43776186
   7.61891838 10.49950820 -7.08811072
   0.00000000  5.15294015 -4.21258700
   0.00000000  3.76880926 -9.86293586
   3.04756735  5.15294015 -4.21258700
   3.04756735  3.76880926 -9.86293586
   6.09513470  5.15294015 -4.21258700
   6.09513470  3.76880926 -9.86293586
   1.52378368  7.48286347 -3.16867194
   1.52378368  6.09873258 -8.81902080
   4.57135103  7.48286347 -3.16867194
   4.57135103  6.09873258 -8.81902080
   7.61891838  7.48286347 -3.16867194
   7.61891838  6.09873258 -8.81902080
   0.00000000  9.55371577 -2.48167692
   0.00000000  8.16958488 -8.13202578
   3.04756735  9.55371577 -2.48167692
   3.04756735  8.16958488 -8.13202578
   6.09513470  9.55371577 -2.48167692
   6.09513470  8.16958488 -8.13202578
   0.00000000  8.98429935 -5.03794406
   0.00000000  7.60016846-10.68829292
   3.04756735  8.98429935 -5.03794406
   3.04756735  7.60016846-10.68829292
   6.09513470  8.98429935 -5.03794406
   6.09513470  7.60016846-10.68829292
   1.52378368  8.05227989 -0.61240480
   1.52378368  6.66814900 -6.26275366
   4.57135103  8.05227989 -0.61240480
   4.57135103  6.66814900 -6.26275366
   7.61891838  8.05227989 -0.61240480
   7.61891838  6.66814900 -6.26275366
   0.00000000  5.74340238 -1.43776186
   0.00000000  4.35927150 -7.08811072
   3.04756735  5.74340238 -1.43776186
   3.04756735  4.35927150 -7.08811072
   6.09513470  5.74340238 -1.43776186
   6.09513470  4.35927150 -7.08811072
   1.52378368 -0.98729656 -4.21258700
   1.52378368 -2.37142745 -9.86293586
   4.57135103 -0.98729656 -4.21258700
   4.57135103 -2.37142745 -9.86293586
   7.61891838 -0.98729656 -4.21258700
   7.61891838 -2.37142745 -9.86293586
   0.00000000  1.34262676 -3.16867194
   0.00000000 -0.04150413 -8.81902080
   3.04756735  1.34262676 -3.16867194
   3.04756735 -0.04150413 -8.81902080
   6.09513470  1.34262676 -3.16867194
   6.09513470 -0.04150413 -8.81902080
   1.52378368  3.41347906 -2.48167692
   1.52378368  2.02934818 -8.13202578
   4.57135103  3.41347906 -2.48167692
   4.57135103  2.02934818 -8.13202578
   7.61891838  3.41347906 -2.48167692
   7.61891838  2.02934818 -8.13202578
   1.52378368  2.84406264 -5.03794406
   1.52378368  1.45993175-10.68829292
   4.57135103  2.84406264 -5.03794406
   4.57135103  1.45993175-10.68829292
   7.61891838  2.84406264 -5.03794406
   7.61891838  1.45993175-10.68829292
   0.00000000  1.91204318 -0.61240480
   0.00000000  0.52791230 -6.26275366
   3.04756735  1.91204318 -0.61240480
   3.04756735  0.52791230 -6.26275366
   6.09513470  1.91204318 -0.61240480
   6.09513470  0.52791230 -6.26275366
 


--------------------------------------------------------------------------------------------------------


 k-point   1 :   0.0000 0.0000 0.0000  plane waves:   27533

 maximum and minimum number of plane-waves per node :     27533    27533

 maximum number of plane-waves:     27533
 maximum index in each direction: 
   IXMAX=   21   IYMAX=   15   IZMAX=   20
   IXMIN=  -21   IYMIN=  -15   IZMIN=  -20


 serial   3D FFT for wavefunctions
 parallel 3D FFT for charge:
    minimum data exchange during FFTs selected (reduces bandwidth)


 FFT grid for exact exchange (Hartree Fock) 
  NGX = 48; NGY = 36; NGZ = 42

 
 Radii for the augmentation spheres in the non-local exchange
 for species   1 augmentation radius   1.392 (default was   1.031)
       energy cutoff for augmentation   1800.0
 for species   2 augmentation radius   0.974 (default was   0.722)
       energy cutoff for augmentation   1800.0
 Maximum index for augmentation-charges in exchange           652
  SETUP_FOCK is finished

 total amount of memory used by VASP MPI-rank0  1085900. kBytes
=======================================================================

   base      :      30000. kBytes
   nonlr-proj:      31599. kBytes
   fftplans  :      51012. kBytes
   grid      :      90980. kBytes
   one-center:       1866. kBytes
   HF        :        129. kBytes
   wavefun   :     880314. kBytes
 
     INWAV:  cpu time      0.0001: real time      0.0001
 Broyden mixing: mesh for mixing (old mesh)
   NGX = 43   NGY = 31   NGZ = 41
  (NGX  =128   NGY  = 96   NGZ  =120)
  gives a total of  54653 points

 charge density for first step will be calculated from the start-wavefunctions


--------------------------------------------------------------------------------------------------------


 Maximum index for non-local projection operator          1707
 Maximum index for augmentation-charges          5340 (set IRDMAX)


--------------------------------------------------------------------------------------------------------


 initial charge from wavefunction
 First call to EWALD:  gamma=   0.164
 Maximum number of real-space cells 3x 3x 3
 Maximum number of reciprocal cells 3x 2x 3

    FEWALD:  cpu time      0.0738: real time      0.0738


--------------------------------------- Ionic step        1  -------------------------------------------




--------------------------------------- Iteration      1(   1)  ---------------------------------------


    POTLOK:  cpu time      0.0346: real time      0.0346
    SETDIJ:  cpu time      0.1287: real time      0.1286
    TRIAL :  cpu time      1.1632: real time      1.1704
    CORREC:  cpu time      0.0008: real time      0.0008
    --------------------------------------------
      LOOP:  cpu time      1.4632: real time      1.4704

 eigenvalue-minimisations  :  1322
 total energy-change (2. order) :-0.1815293E+05  (-0.5482582E+05)
 number of electron    1055.9999354 magnetization 
 augmentation part      122.3668778 magnetization 

 Free energy of the ion-electron system (eV)
  ---------------------------------------------------
  alpha Z        PSCENC =      5537.53060054
  Ewald energy   TEWEN  =    -88891.37402132
  -Hartree energ DENC   =     -2122.47706753
  -exchange      EXHF   =         0.00000000
  -V(xc)+E(xc)   XCENC  =      2807.26631321
  PAW double counting   =     56414.41900973   -85646.79381855
  entropy T*S    EENTRO =        -0.01100712
  eigenvalues    EBANDS =    -40152.85654009
  atomic energy  EATOM  =    133901.37115015
  ---------------------------------------------------
  free energy    TOTEN  =    -18152.92538097 eV

  energy without entropy =   -18152.91437385  energy(sigma->0) =   -18152.91987741
  exchange ACFDT corr.  =         0.00000000  see jH, gK, PRB 81, 115126


--------------------------------------------------------------------------------------------------------




--------------------------------------- Iteration      1(   2)  ---------------------------------------


    TRIAL :  cpu time      1.2157: real time      1.2155
    CORREC:  cpu time      0.0008: real time      0.0008
    --------------------------------------------
      LOOP:  cpu time      1.2167: real time      1.2171

 eigenvalue-minimisations  :  1715
 total energy-change (2. order) :-0.4415522E+05  (-0.4287121E+05)
 number of electron    1055.9999354 magnetization 
 augmentation part      122.3668778 magnetization 

 Free energy of the ion-electron system (eV)
  ---------------------------------------------------
  alpha Z        PSCENC =      5537.53060054
  Ewald energy   TEWEN  =    -88891.37402132
  -Hartree energ DENC   =     -2122.47706753
  -exchange      EXHF   =         0.00000000
  -V(xc)+E(xc)   XCENC  =      2807.26631321
  PAW double counting   =     56414.41900973   -85646.79381855
  entropy T*S    EENTRO =        -0.02448944
  eigenvalues    EBANDS =    -84308.06240279
  atomic energy  EATOM  =    133901.37115015
  ---------------------------------------------------
  free energy    TOTEN  =    -62308.14472600 eV

  energy without entropy =   -62308.12023656  energy(sigma->0) =   -62308.13248128
  exchange ACFDT corr.  =         0.00000000  see jH, gK, PRB 81, 115126


--------------------------------------------------------------------------------------------------------




--------------------------------------- Iteration      1(   3)  ---------------------------------------


    TRIAL :  cpu time      1.2822: real time      1.2820
    CORREC:  cpu time      0.0009: real time      0.0009
    --------------------------------------------
      LOOP:  cpu time      1.2833: real time      1.2834

 eigenvalue-minimisations  :  1819
 total energy-change (2. order) :-0.4427968E+04  (-0.3951295E+04)
 number of electron    1055.9999354 magnetization 
 augmentation part      122.3668778 magnetization 

 Free energy of the ion-electron system (eV)
  ---------------------------------------------------
  alpha Z        PSCENC =      5537.53060054
  Ewald energy   TEWEN  =    -88891.37402132
  -Hartree energ DENC   =     -2122.47706753
  -exchange      EXHF   =         0.00000000
  -V(xc)+E(xc)   XCENC  =      2807.26631321
  PAW double counting   =     56414.41900973   -85646.79381855
  entropy T*S    EENTRO =        -0.03733905
  eigenvalues    EBANDS =    -88736.01738503
  atomic energy  EATOM  =    133901.37115015
  ---------------------------------------------------
  free energy    TOTEN  =    -66736.11255785 eV

  energy without entropy =   -66736.07521880  energy(sigma->0) =   -66736.09388832
  exchange ACFDT corr.  =         0.00000000  see jH, gK, PRB 81, 115126


--------------------------------------------------------------------------------------------------------




--------------------------------------- Iteration      1(   4)  ---------------------------------------


    TRIAL :  cpu time      1.4312: real time      1.4310
    CORREC:  cpu time      0.0009: real time      0.0009
    --------------------------------------------
      LOOP:  cpu time      1.4323: real time      1.4324

 eigenvalue-minimisations  :  2084
 total energy-change (2. order) :-0.4901371E+03  (-0.4215488E+03)
 number of electron    1055.9999354 magnetization 
 augmentation part      122.3668778 magnetization 

 Free energy of the ion-electron system (eV)
  ---------------------------------------------------
  alpha Z        PSCENC =      5537.53060054
  Ewald energy   TEWEN  =    -88891.37402132
  -Hartree energ DENC   =     -2122.47706753
  -exchange      EXHF   =         0.00000000
  -V(xc)+E(xc)   XCENC  =      2807.26631321
  PAW double counting   =     56414.41900973   -85646.79381855
  entropy T*S    EENTRO =        -0.08507075
  eigenvalues    EBANDS =    -89226.10679728
  atomic energy  EATOM  =    133901.37115015
  ---------------------------------------------------
  free energy    TOTEN  =    -67226.24970180 eV

  energy without entropy =   -67226.16463104  energy(sigma->0) =   -67226.20716642
  exchange ACFDT corr.  =         0.00000000  see jH, gK, PRB 81, 115126


--------------------------------------------------------------------------------------------------------




--------------------------------------- Iteration      1(   5)  ---------------------------------------


    POTLOK:  cpu time      1.4554: real time      1.4553
    SETDIJ:  cpu time      0.5530: real time      0.5529
    TRIAL :  cpu time     15.7993: real time     15.7962
    CORREC:  cpu time      0.0009: real time      0.0009
    CHARGE:  cpu time      0.1476: real time      0.1476
    --------------------------------------------
      LOOP:  cpu time     17.9564: real time     17.9533

 eigenvalue-minimisations  :  2372
 total energy-change (2. order) : 0.3014066E+05  (-0.7063603E+02)
 number of electron    1055.9998030 magnetization 
 augmentation part      498.0990029 magnetization 

 Free energy of the ion-electron system (eV)
  ---------------------------------------------------
  alpha Z        PSCENC =      5537.53060054
  Ewald energy   TEWEN  =    -88891.37402132
  -Hartree energ DENC   =     -2122.47706753
  -exchange      EXHF   =      4621.21398155
  -V(xc)+E(xc)   XCENC  =      1940.78761667
  PAW double counting   =     57025.75334901   -59124.45150693
  entropy T*S    EENTRO =        -0.05607073
  eigenvalues    EBANDS =    -89973.88781632
  atomic energy  EATOM  =    133901.37115015
  ---------------------------------------------------
  free energy    TOTEN  =    -37085.58978490 eV

  energy without entropy =   -37085.53371417  energy(sigma->0) =   -37085.56174954
  exchange ACFDT corr.  =        -0.38083694  see jH, gK, PRB 81, 115126


--------------------------------------------------------------------------------------------------------




--------------------------------------- Iteration      1(   6)  ---------------------------------------


    POTLOK:  cpu time      1.4151: real time      1.4148
    SETDIJ:  cpu time      0.4997: real time      0.4996
    TRIAL :  cpu time     14.9609: real time     14.9657
    CORREC:  cpu time     16.5279: real time     16.5241
    CHARGE:  cpu time      0.1464: real time      0.1464
    --------------------------------------------
      LOOP:  cpu time     33.5502: real time     33.5511

 eigenvalue-minimisations  :     0
 total energy-change (2. order) : 0.5152717E+05  (-0.1336435E+05)
 number of electron    1055.9998509 magnetization 
 augmentation part      486.8438393 magnetization 

 Free energy of the ion-electron system (eV)
  ---------------------------------------------------
  alpha Z        PSCENC =      5537.53060054
  Ewald energy   TEWEN  =    -88891.37402132
  -Hartree energ DENC   =    -60787.98782284
  -exchange      EXHF   =      4738.64161805
  -V(xc)+E(xc)   XCENC  =      3712.27814940
  PAW double counting   =    141549.79746879  -165782.78642817
  entropy T*S    EENTRO =        -0.06261974
  eigenvalues    EBANDS =     40464.16193091
  atomic energy  EATOM  =    133901.37115015
  ---------------------------------------------------
  free energy    TOTEN  =     14441.57657478 eV

  energy without entropy =    14441.63919452  energy(sigma->0) =    14441.60788465
  exchange ACFDT corr.  =        -0.34877089  see jH, gK, PRB 81, 115126


--------------------------------------------------------------------------------------------------------




--------------------------------------- Iteration      1(   7)  ---------------------------------------


    POTLOK:  cpu time      1.4559: real time      1.4557
    SETDIJ:  cpu time      0.5267: real time      0.5265
    TRIAL :  cpu time     15.0231: real time     15.0201
    CORREC:  cpu time     16.5875: real time     16.5840
    CHARGE:  cpu time      0.1471: real time      0.1470
    --------------------------------------------
      LOOP:  cpu time     33.7405: real time     33.7361

 eigenvalue-minimisations  :     0
 total energy-change (2. order) :-0.1170216E+05  (-0.2501546E+04)
 number of electron    1055.9998455 magnetization 
 augmentation part      458.2995225 magnetization 

 Free energy of the ion-electron system (eV)
  ---------------------------------------------------
  alpha Z        PSCENC =      5537.53060054
  Ewald energy   TEWEN  =    -88891.37402132
  -Hartree energ DENC   =    -42430.25448027
  -exchange      EXHF   =      4145.40561563
  -V(xc)+E(xc)   XCENC  =      3164.75291945
  PAW double counting   =    127396.89407417  -147283.06907424
  entropy T*S    EENTRO =        -0.06158794
  eigenvalues    EBANDS =      7198.22261280
  atomic energy  EATOM  =    133901.37115015
  ---------------------------------------------------
  free energy    TOTEN  =      2739.41677716 eV

  energy without entropy =     2739.47836511  energy(sigma->0) =     2739.44757114
  exchange ACFDT corr.  =      -154.32622072  see jH, gK, PRB 81, 115126


--------------------------------------------------------------------------------------------------------




--------------------------------------- Iteration      1(   8)  ---------------------------------------


    POTLOK:  cpu time      1.4692: real time      1.4688
    SETDIJ:  cpu time      0.4723: real time      0.4721
    TRIAL :  cpu time     15.0552: real time     15.0517
    CORREC:  cpu time     16.4795: real time     16.4765
    CHARGE:  cpu time      0.1441: real time      0.1440
    --------------------------------------------
      LOOP:  cpu time     33.6204: real time     33.6138

 eigenvalue-minimisations  :     0
 total energy-change (2. order) :-0.1861735E+04  (-0.4933480E+03)
 number of electron    1055.9998438 magnetization 
 augmentation part      452.6233640 magnetization 

 Free energy of the ion-electron system (eV)
  ---------------------------------------------------
  alpha Z        PSCENC =      5537.53060054
  Ewald energy   TEWEN  =    -88891.37402132
  -Hartree energ DENC   =    -34941.15605938
  -exchange      EXHF   =      3846.99100830
  -V(xc)+E(xc)   XCENC  =      2921.96384396
  PAW double counting   =    124576.18814459  -141389.12356431
  entropy T*S    EENTRO =        -0.02332178
  eigenvalues    EBANDS =     -4684.64812038
  atomic energy  EATOM  =    133901.37115015
  ---------------------------------------------------
  free energy    TOTEN  =       877.68139421 eV

  energy without entropy =      877.70471599  energy(sigma->0) =      877.69305510
  exchange ACFDT corr.  =       -47.83140564  see jH, gK, PRB 81, 115126


--------------------------------------------------------------------------------------------------------




--------------------------------------- Iteration      1(   9)  ---------------------------------------


    POTLOK:  cpu time      1.4591: real time      1.4589
    SETDIJ:  cpu time      0.5109: real time      0.5109
    TRIAL :  cpu time     14.9932: real time     14.9902
    CORREC:  cpu time     16.4274: real time     16.4244
    CHARGE:  cpu time      0.1441: real time      0.1440
    --------------------------------------------
      LOOP:  cpu time     33.5369: real time     33.5310

 eigenvalue-minimisations  :     0
 total energy-change (2. order) :-0.3240780E+03  (-0.6054172E+03)
 number of electron    1055.9998593 magnetization 
 augmentation part      443.8707239 magnetization 

 Free energy of the ion-electron system (eV)
  ---------------------------------------------------
  alpha Z        PSCENC =      5537.53060054
  Ewald energy   TEWEN  =    -88891.37402132
  -Hartree energ DENC   =    -34097.21452675
  -exchange      EXHF   =      3809.32143518
  -V(xc)+E(xc)   XCENC  =      2892.91954685
  PAW double counting   =    120900.93187359  -136830.49717461
  entropy T*S    EENTRO =        -0.03525197
  eigenvalues    EBANDS =     -6669.36212220
  atomic energy  EATOM  =    133901.37115015
  ---------------------------------------------------
  free energy    TOTEN  =       553.60343965 eV

  energy without entropy =      553.63869162  energy(sigma->0) =      553.62106564
  exchange ACFDT corr.  =      -129.85770523  see jH, gK, PRB 81, 115126


--------------------------------------------------------------------------------------------------------




--------------------------------------- Iteration      1(  10)  ---------------------------------------


    POTLOK:  cpu time      1.4595: real time      1.4593
    SETDIJ:  cpu time      0.5404: real time      0.5403
    TRIAL :  cpu time     14.9780: real time     14.9746
    CORREC:  cpu time     16.4605: real time     16.4567
    CHARGE:  cpu time      0.1445: real time      0.1445
    --------------------------------------------
      LOOP:  cpu time     33.5856: real time     33.5785

 eigenvalue-minimisations  :     0
 total energy-change (2. order) :-0.4095455E+03  (-0.5018686E+03)
 number of electron    1055.9998539 magnetization 
 augmentation part      442.5391884 magnetization 

 Free energy of the ion-electron system (eV)
  ---------------------------------------------------
  alpha Z        PSCENC =      5537.53060054
  Ewald energy   TEWEN  =    -88891.37402132
  -Hartree energ DENC   =    -33116.65665146
  -exchange      EXHF   =      3763.03389465
  -V(xc)+E(xc)   XCENC  =      2864.58324946
  PAW double counting   =    118813.34975094  -133719.44683752
  entropy T*S    EENTRO =        -0.00374384
  eigenvalues    EBANDS =     -9008.29797282
  atomic energy  EATOM  =    133901.37115015
  ---------------------------------------------------
  free energy    TOTEN  =       144.05791065 eV

  energy without entropy =      144.06165448  energy(sigma->0) =      144.05978256
  exchange ACFDT corr.  =       -65.06698426  see jH, gK, PRB 81, 115126


--------------------------------------------------------------------------------------------------------




--------------------------------------- Iteration      1(  11)  ---------------------------------------


    POTLOK:  cpu time      1.4634: real time      1.4630
    SETDIJ:  cpu time      0.5533: real time      0.5531
    TRIAL :  cpu time     14.9238: real time     14.9205
    CORREC:  cpu time     16.3648: real time     16.3607
    CHARGE:  cpu time      0.1442: real time      0.1442
    --------------------------------------------
      LOOP:  cpu time     33.4512: real time     33.4439

 eigenvalue-minimisations  :     0
 total energy-change (2. order) :-0.4597583E+03  (-0.3390682E+03)
 number of electron    1055.9998299 magnetization 
 augmentation part      451.4267979 magnetization 

 Free energy of the ion-electron system (eV)
  ---------------------------------------------------
  alpha Z        PSCENC =      5537.53060054
  Ewald energy   TEWEN  =    -88891.37402132
  -Hartree energ DENC   =    -32319.85242240
  -exchange      EXHF   =      3755.87106832
  -V(xc)+E(xc)   XCENC  =      2852.18400549
  PAW double counting   =    119994.65544366  -134390.86885185
  entropy T*S    EENTRO =        -0.00000000
  eigenvalues    EBANDS =    -10755.21358286
  atomic energy  EATOM  =    133901.37115015
  ---------------------------------------------------
  free energy    TOTEN  =      -315.70035409 eV

  energy without entropy =     -315.70035409  energy(sigma->0) =     -315.70035409
  exchange ACFDT corr.  =        -4.57876969  see jH, gK, PRB 81, 115126


--------------------------------------------------------------------------------------------------------




--------------------------------------- Iteration      1(  12)  ---------------------------------------


    POTLOK:  cpu time      1.4540: real time      1.4538
    SETDIJ:  cpu time      0.5430: real time      0.5429
    TRIAL :  cpu time     14.8810: real time     14.8780
    CORREC:  cpu time     16.4318: real time     16.4283
    CHARGE:  cpu time      0.1458: real time      0.1458
    --------------------------------------------
      LOOP:  cpu time     33.4558: real time     33.4562

 eigenvalue-minimisations  :     0
 total energy-change (2. order) :-0.3358639E+03  (-0.1571326E+03)
 number of electron    1055.9998290 magnetization 
 augmentation part      459.9832629 magnetization 

 Free energy of the ion-electron system (eV)
  ---------------------------------------------------
  alpha Z        PSCENC =      5537.53060054
  Ewald energy   TEWEN  =    -88891.37402132
  -Hartree energ DENC   =    -32943.03314047
  -exchange      EXHF   =      3827.97402754
  -V(xc)+E(xc)   XCENC  =      2878.18546270
  PAW double counting   =    123975.22606098  -139040.10651970
  entropy T*S    EENTRO =        -0.00004936
  eigenvalues    EBANDS =     -9897.33786336
  atomic energy  EATOM  =    133901.37115015
  ---------------------------------------------------
  free energy    TOTEN  =      -651.56424293 eV

  energy without entropy =     -651.56419357  energy(sigma->0) =     -651.56421825
  exchange ACFDT corr.  =         0.00000000  see jH, gK, PRB 81, 115126


--------------------------------------------------------------------------------------------------------




--------------------------------------- Iteration      1(  13)  ---------------------------------------


    POTLOK:  cpu time      1.4785: real time      1.4782
    SETDIJ:  cpu time      0.5033: real time      0.5032
    TRIAL :  cpu time     14.9041: real time     14.9016
    CORREC:  cpu time     16.3644: real time     16.3615
    CHARGE:  cpu time      0.1461: real time      0.1460
    --------------------------------------------
      LOOP:  cpu time     33.3966: real time     33.3911

 eigenvalue-minimisations  :     0
 total energy-change (2. order) :-0.1567140E+03  (-0.7925876E+02)
 number of electron    1055.9998410 magnetization 
 augmentation part      463.5550992 magnetization 

 Free energy of the ion-electron system (eV)
  ---------------------------------------------------
  alpha Z        PSCENC =      5537.53060054
  Ewald energy   TEWEN  =    -88891.37402132
  -Hartree energ DENC   =    -33592.80904865
  -exchange      EXHF   =      3890.89487370
  -V(xc)+E(xc)   XCENC  =      2905.84503356
  PAW double counting   =    125891.99844936  -141561.38436644
  entropy T*S    EENTRO =        -0.00000000
  eigenvalues    EBANDS =     -8890.35082343
  atomic energy  EATOM  =    133901.37115015
  ---------------------------------------------------
  free energy    TOTEN  =      -808.27820188 eV

  energy without entropy =     -808.27820188  energy(sigma->0) =     -808.27820188
  exchange ACFDT corr.  =        -0.00006859  see jH, gK, PRB 81, 115126


--------------------------------------------------------------------------------------------------------




--------------------------------------- Iteration      1(  14)  ---------------------------------------


    POTLOK:  cpu time      1.4572: real time      1.4570
    SETDIJ:  cpu time      0.5014: real time      0.5013
    TRIAL :  cpu time     14.8824: real time     14.8800
    CORREC:  cpu time     16.4120: real time     16.4092
    CHARGE:  cpu time      0.1460: real time      0.1459
    --------------------------------------------
      LOOP:  cpu time     33.3992: real time     33.3939

 eigenvalue-minimisations  :     0
 total energy-change (2. order) :-0.8154100E+02  (-0.3965639E+02)
 number of electron    1055.9998519 magnetization 
 augmentation part      462.6792074 magnetization 

 Free energy of the ion-electron system (eV)
  ---------------------------------------------------
  alpha Z        PSCENC =      5537.53060054
  Ewald energy   TEWEN  =    -88891.37402132
  -Hartree energ DENC   =    -34005.95241707
  -exchange      EXHF   =      3921.14054150
  -V(xc)+E(xc)   XCENC  =      2924.85135764
  PAW double counting   =    125025.68697237  -140811.18438405
  entropy T*S    EENTRO =        -0.00000000
  eigenvalues    EBANDS =     -8491.88900528
  atomic energy  EATOM  =    133901.37115015
  ---------------------------------------------------
  free energy    TOTEN  =      -889.81920552 eV

  energy without entropy =     -889.81920552  energy(sigma->0) =     -889.81920552
  exchange ACFDT corr.  =         0.00000000  see jH, gK, PRB 81, 115126


--------------------------------------------------------------------------------------------------------




--------------------------------------- Iteration      1(  15)  ---------------------------------------


    POTLOK:  cpu time      1.4566: real time      1.4564
    SETDIJ:  cpu time      0.5244: real time      0.5243
    TRIAL :  cpu time     14.8865: real time     14.8837
    CORREC:  cpu time     16.4085: real time     16.4053
    CHARGE:  cpu time      0.1458: real time      0.1458
    --------------------------------------------
      LOOP:  cpu time     33.4221: real time     33.4163

 eigenvalue-minimisations  :     0
 total energy-change (2. order) :-0.3969952E+02  (-0.1631625E+02)
 number of electron    1055.9998550 magnetization 
 augmentation part      461.3276117 magnetization 

 Free energy of the ion-electron system (eV)
  ---------------------------------------------------
  alpha Z        PSCENC =      5537.53060054
  Ewald energy   TEWEN  =    -88891.37402132
  -Hartree energ DENC   =    -34037.78422552
  -exchange      EXHF   =      3917.53248921
  -V(xc)+E(xc)   XCENC  =      2927.87612451
  PAW double counting   =    122831.52934318  -138432.96311934
  entropy T*S    EENTRO =        -0.00000000
  eigenvalues    EBANDS =     -8683.23706229
  atomic energy  EATOM  =    133901.37115015
  ---------------------------------------------------
  free energy    TOTEN  =      -929.51872088 eV

  energy without entropy =     -929.51872088  energy(sigma->0) =     -929.51872088
  exchange ACFDT corr.  =        -0.00000000  see jH, gK, PRB 81, 115126


--------------------------------------------------------------------------------------------------------




--------------------------------------- Iteration      1(  16)  ---------------------------------------


    POTLOK:  cpu time      1.4832: real time      1.4831
    SETDIJ:  cpu time      0.4781: real time      0.4780
    TRIAL :  cpu time     14.8816: real time     14.8789
    CORREC:  cpu time     16.3991: real time     16.3958
    CHARGE:  cpu time      0.1441: real time      0.1441
    --------------------------------------------
      LOOP:  cpu time     33.3874: real time     33.3816

 eigenvalue-minimisations  :     0
 total energy-change (2. order) :-0.1629807E+02  (-0.7184423E+01)
 number of electron    1055.9998543 magnetization 
 augmentation part      460.8755562 magnetization 

 Free energy of the ion-electron system (eV)
  ---------------------------------------------------
  alpha Z        PSCENC =      5537.53060054
  Ewald energy   TEWEN  =    -88891.37402132
  -Hartree energ DENC   =    -33901.44331518
  -exchange      EXHF   =      3901.14226477
  -V(xc)+E(xc)   XCENC  =      2921.63475818
  PAW double counting   =    121538.09599305  -137047.28649940
  entropy T*S    EENTRO =        -0.00000000
  eigenvalues    EBANDS =     -8905.48772244
  atomic energy  EATOM  =    133901.37115015
  ---------------------------------------------------
  free energy    TOTEN  =      -945.81679164 eV

  energy without entropy =     -945.81679164  energy(sigma->0) =     -945.81679164
  exchange ACFDT corr.  =         0.00000000  see jH, gK, PRB 81, 115126


--------------------------------------------------------------------------------------------------------




--------------------------------------- Iteration      1(  17)  ---------------------------------------


    POTLOK:  cpu time      1.4582: real time      1.4579
    SETDIJ:  cpu time      0.4813: real time      0.4812
    TRIAL :  cpu time     14.8738: real time     14.8703
    CORREC:  cpu time     16.3838: real time     16.3799
    CHARGE:  cpu time      0.1442: real time      0.1441
    --------------------------------------------
      LOOP:  cpu time     33.3418: real time     33.3412

 eigenvalue-minimisations  :     0
 total energy-change (2. order) :-0.7180359E+01  (-0.2473795E+01)
 number of electron    1055.9998541 magnetization 
 augmentation part      461.0820092 magnetization 

 Free energy of the ion-electron system (eV)
  ---------------------------------------------------
  alpha Z        PSCENC =      5537.53060054
  Ewald energy   TEWEN  =    -88891.37402132
  -Hartree energ DENC   =    -33801.48429086
  -exchange      EXHF   =      3892.08092905
  -V(xc)+E(xc)   XCENC  =      2916.53928465
  PAW double counting   =    121256.59364781  -136791.90347111
  entropy T*S    EENTRO =        -0.00000000
  eigenvalues    EBANDS =     -8972.35098000
  atomic energy  EATOM  =    133901.37115015
  ---------------------------------------------------
  free energy    TOTEN  =      -952.99715109 eV

  energy without entropy =     -952.99715109  energy(sigma->0) =     -952.99715109
  exchange ACFDT corr.  =        -0.00000000  see jH, gK, PRB 81, 115126


--------------------------------------------------------------------------------------------------------




--------------------------------------- Iteration      1(  18)  ---------------------------------------


    POTLOK:  cpu time      1.4906: real time      1.4902
    SETDIJ:  cpu time      0.4622: real time      0.4621
    TRIAL :  cpu time     14.8823: real time     14.8865
    CORREC:  cpu time     16.4008: real time     16.3976
    CHARGE:  cpu time      0.1444: real time      0.1443
    --------------------------------------------
      LOOP:  cpu time     33.3811: real time     33.3820

 eigenvalue-minimisations  :     0
 total energy-change (2. order) :-0.2472441E+01  (-0.1211718E+01)
 number of electron    1055.9998548 magnetization 
 augmentation part      461.2144445 magnetization 

 Free energy of the ion-electron system (eV)
  ---------------------------------------------------
  alpha Z        PSCENC =      5537.53060054
  Ewald energy   TEWEN  =    -88891.37402132
  -Hartree energ DENC   =    -33831.81037258
  -exchange      EXHF   =      3893.29743050
  -V(xc)+E(xc)   XCENC  =      2917.06274711
  PAW double counting   =    121324.31983678  -136906.20530550
  entropy T*S    EENTRO =        -0.00000000
  eigenvalues    EBANDS =     -8899.66165816
  atomic energy  EATOM  =    133901.37115015
  ---------------------------------------------------
  free energy    TOTEN  =      -955.46959247 eV

  energy without entropy =     -955.46959247  energy(sigma->0) =     -955.46959247
  exchange ACFDT corr.  =        -0.00000000  see jH, gK, PRB 81, 115126


--------------------------------------------------------------------------------------------------------




--------------------------------------- Iteration      1(  19)  ---------------------------------------


    POTLOK:  cpu time      1.4548: real time      1.4545
    SETDIJ:  cpu time      0.5235: real time      0.5233
    TRIAL :  cpu time     14.8862: real time     14.8829
    CORREC:  cpu time     16.4086: real time     16.4120
    CHARGE:  cpu time      0.1445: real time      0.1444
    --------------------------------------------
      LOOP:  cpu time     33.4181: real time     33.4182

 eigenvalue-minimisations  :     0
 total energy-change (2. order) :-0.1210680E+01  (-0.4987398E+00)
 number of electron    1055.9998554 magnetization 
 augmentation part      460.9926987 magnetization 

 Free energy of the ion-electron system (eV)
  ---------------------------------------------------
  alpha Z        PSCENC =      5537.53060054
  Ewald energy   TEWEN  =    -88891.37402132
  -Hartree energ DENC   =    -33897.31098364
  -exchange      EXHF   =      3896.27404428
  -V(xc)+E(xc)   XCENC  =      2919.20020557
  PAW double counting   =    121321.57993331  -136918.70144419
  entropy T*S    EENTRO =        -0.00000000
  eigenvalues    EBANDS =     -8825.24975751
  atomic energy  EATOM  =    133901.37115015
  ---------------------------------------------------
  free energy    TOTEN  =      -956.68027280 eV

  energy without entropy =     -956.68027280  energy(sigma->0) =     -956.68027280
  exchange ACFDT corr.  =        -0.00000000  see jH, gK, PRB 81, 115126


--------------------------------------------------------------------------------------------------------




--------------------------------------- Iteration      1(  20)  ---------------------------------------


    POTLOK:  cpu time      1.4681: real time      1.4678
    SETDIJ:  cpu time      0.5285: real time      0.5285
    TRIAL :  cpu time     14.8863: real time     14.8825
    CORREC:  cpu time     16.4043: real time     16.4056
    CHARGE:  cpu time      0.1456: real time      0.1456
    --------------------------------------------
      LOOP:  cpu time     33.4347: real time     33.4321

 eigenvalue-minimisations  :     0
 total energy-change (2. order) :-0.4982873E+00  (-0.1924940E+00)
 number of electron    1055.9998554 magnetization 
 augmentation part      460.7983644 magnetization 

 Free energy of the ion-electron system (eV)
  ---------------------------------------------------
  alpha Z        PSCENC =      5537.53060054
  Ewald energy   TEWEN  =    -88891.37402132
  -Hartree energ DENC   =    -33900.55976455
  -exchange      EXHF   =      3896.21509168
  -V(xc)+E(xc)   XCENC  =      2919.25829362
  PAW double counting   =    121287.01479523  -136862.58312379
  entropy T*S    EENTRO =        -0.00000000
  eigenvalues    EBANDS =     -8844.05158167
  atomic energy  EATOM  =    133901.37115015
  ---------------------------------------------------
  free energy    TOTEN  =      -957.17856009 eV

  energy without entropy =     -957.17856009  energy(sigma->0) =     -957.17856009
  exchange ACFDT corr.  =         0.00000000  see jH, gK, PRB 81, 115126


[...]
   0.859E-04 0.463E+02 -.294E+02   -.103E-12 -.442E+02 0.312E+02   0.000E+00 -.179E+01 -.167E+01
   0.843E-04 0.463E+02 -.294E+02   -.213E-13 -.442E+02 0.312E+02   0.847E-21 -.179E+01 -.167E+01
   -.137E-03 0.463E+02 -.294E+02   -.657E-10 -.442E+02 0.312E+02   -.847E-21 -.179E+01 -.167E+01
   -.491E-03 0.463E+02 -.294E+02   -.657E-10 -.442E+02 0.312E+02   -.122E-20 -.179E+01 -.167E+01
   0.166E-04 -.176E+02 0.146E+02   0.388E-10 0.250E+02 -.183E+02   0.900E-21 -.637E+01 0.325E+01
   0.108E-03 -.176E+02 0.146E+02   0.388E-10 0.250E+02 -.183E+02   0.576E-21 -.637E+01 0.325E+01
   0.100E-03 -.176E+02 0.146E+02   -.480E-13 0.250E+02 -.183E+02   -.529E-22 -.637E+01 0.325E+01
   -.783E-04 -.176E+02 0.146E+02   0.320E-13 0.250E+02 -.183E+02   0.609E-21 -.637E+01 0.325E+01
   -.174E-03 -.176E+02 0.146E+02   -.388E-10 0.250E+02 -.183E+02   0.635E-21 -.637E+01 0.325E+01
   -.763E-04 -.176E+02 0.146E+02   -.388E-10 0.250E+02 -.183E+02   -.159E-21 -.637E+01 0.325E+01
   -.311E-04 0.176E+02 -.146E+02   -.697E-13 -.250E+02 0.183E+02   -.212E-21 0.637E+01 -.325E+01
   -.181E-03 0.176E+02 -.146E+02   -.857E-13 -.250E+02 0.183E+02   -.265E-21 0.637E+01 -.325E+01
   -.117E-03 0.176E+02 -.146E+02   -.388E-10 -.250E+02 0.183E+02   0.265E-21 0.637E+01 -.325E+01
   0.898E-05 0.176E+02 -.146E+02   -.389E-10 -.250E+02 0.183E+02   0.265E-21 0.637E+01 -.325E+01
   0.117E-03 0.176E+02 -.146E+02   0.387E-10 -.250E+02 0.183E+02   0.106E-21 0.637E+01 -.325E+01
   0.148E-03 0.176E+02 -.146E+02   0.387E-10 -.250E+02 0.183E+02   -.265E-22 0.637E+01 -.325E+01
   -.344E-05 0.660E+02 0.376E+02   0.293E-10 -.640E+02 -.329E+02   -.847E-21 -.174E+01 -.405E+01
   0.148E-03 0.660E+02 0.376E+02   0.293E-10 -.640E+02 -.329E+02   0.695E-22 -.174E+01 -.405E+01
   -.956E-04 0.660E+02 0.376E+02   0.295E-13 -.640E+02 -.329E+02   -.953E-21 -.174E+01 -.405E+01
   -.398E-04 0.660E+02 0.376E+02   0.295E-13 -.640E+02 -.329E+02   -.424E-21 -.174E+01 -.405E+01
   0.808E-04 0.660E+02 0.376E+02   -.292E-10 -.640E+02 -.329E+02   0.741E-21 -.174E+01 -.405E+01
   0.272E-05 0.660E+02 0.376E+02   -.292E-10 -.640E+02 -.329E+02   0.000E+00 -.174E+01 -.405E+01
   0.414E-05 -.660E+02 -.376E+02   -.577E-14 0.640E+02 0.329E+02   0.106E-21 0.174E+01 0.405E+01
   0.127E-03 -.660E+02 -.376E+02   0.666E-14 0.640E+02 0.329E+02   0.106E-21 0.174E+01 0.405E+01
   0.195E-04 -.660E+02 -.376E+02   -.292E-10 0.640E+02 0.329E+02   -.635E-21 0.174E+01 0.405E+01
   -.190E-03 -.660E+02 -.376E+02   -.292E-10 0.640E+02 0.329E+02   0.000E+00 0.174E+01 0.405E+01
   -.539E-04 -.660E+02 -.376E+02   0.293E-10 0.640E+02 0.329E+02   0.000E+00 0.174E+01 0.405E+01
   0.217E-04 -.660E+02 -.376E+02   0.293E-10 0.640E+02 0.329E+02   0.847E-21 0.174E+01 0.405E+01
   0.980E-04 0.121E+03 0.631E+02   0.320E-13 -.134E+03 -.597E+02   -.265E-21 0.109E+02 -.299E+01
   -.324E-04 0.121E+03 0.631E+02   -.444E-14 -.134E+03 -.597E+02   0.106E-21 0.109E+02 -.299E+01
   0.169E-05 0.121E+03 0.631E+02   -.330E-10 -.134E+03 -.597E+02   -.185E-21 0.109E+02 -.299E+01
   0.332E-04 0.121E+03 0.631E+02   -.330E-10 -.134E+03 -.597E+02   -.529E-22 0.109E+02 -.299E+01
   -.642E-04 0.121E+03 0.631E+02   0.330E-10 -.134E+03 -.597E+02   -.291E-21 0.109E+02 -.299E+01
   -.482E-04 0.121E+03 0.631E+02   0.330E-10 -.134E+03 -.597E+02   0.529E-22 0.109E+02 -.299E+01
   -.706E-05 -.121E+03 -.631E+02   0.328E-10 0.134E+03 0.597E+02   0.106E-21 -.109E+02 0.299E+01
   0.663E-04 -.121E+03 -.631E+02   0.328E-10 0.134E+03 0.597E+02   0.159E-21 -.109E+02 0.299E+01
   0.342E-04 -.121E+03 -.631E+02   0.606E-13 0.134E+03 0.597E+02   0.159E-21 -.109E+02 0.299E+01
   -.253E-03 -.121E+03 -.631E+02   0.608E-13 0.134E+03 0.597E+02   0.159E-21 -.109E+02 0.299E+01
   -.403E-04 -.121E+03 -.631E+02   -.327E-10 0.134E+03 0.597E+02   -.371E-21 -.109E+02 0.299E+01
   0.181E-03 -.121E+03 -.631E+02   -.327E-10 0.134E+03 0.597E+02   0.000E+00 -.109E+02 0.299E+01
   -.119E-03 -.176E+02 0.146E+02   -.295E-13 0.250E+02 -.183E+02   0.582E-21 -.637E+01 0.325E+01
   -.143E-03 -.176E+02 0.146E+02   -.666E-13 0.250E+02 -.183E+02   0.318E-21 -.637E+01 0.325E+01
   -.482E-05 -.176E+02 0.146E+02   -.388E-10 0.250E+02 -.183E+02   0.116E-20 -.637E+01 0.325E+01
   -.909E-04 -.176E+02 0.146E+02   -.389E-10 0.250E+02 -.183E+02   -.265E-22 -.637E+01 0.325E+01
   0.888E-04 -.176E+02 0.146E+02   0.388E-10 0.250E+02 -.183E+02   -.635E-21 -.637E+01 0.325E+01
   0.196E-03 -.176E+02 0.146E+02   0.388E-10 0.250E+02 -.183E+02   0.000E+00 -.637E+01 0.325E+01
   0.368E-04 0.176E+02 -.146E+02   0.388E-10 -.250E+02 0.183E+02   0.159E-21 0.637E+01 -.325E+01
   0.183E-03 0.176E+02 -.146E+02   0.387E-10 -.250E+02 0.183E+02   0.529E-22 0.637E+01 -.325E+01
   -.204E-05 0.176E+02 -.146E+02   -.746E-13 -.250E+02 0.183E+02   -.357E-21 0.637E+01 -.325E+01
   0.996E-04 0.176E+02 -.146E+02   -.462E-13 -.250E+02 0.183E+02   -.106E-21 0.637E+01 -.325E+01
   -.133E-04 0.176E+02 -.146E+02   -.389E-10 -.250E+02 0.183E+02   0.318E-21 0.637E+01 -.325E+01
   -.275E-03 0.176E+02 -.146E+02   -.388E-10 -.250E+02 0.183E+02   0.159E-21 0.637E+01 -.325E+01
   -.103E-03 0.660E+02 0.376E+02   0.373E-13 -.640E+02 -.329E+02   0.000E+00 -.174E+01 -.405E+01
   -.152E-03 0.660E+02 0.376E+02   0.515E-13 -.640E+02 -.329E+02   0.519E-22 -.174E+01 -.405E+01
   -.366E-04 0.660E+02 0.376E+02   -.291E-10 -.640E+02 -.329E+02   0.000E+00 -.174E+01 -.405E+01
   0.591E-04 0.660E+02 0.376E+02   -.292E-10 -.640E+02 -.329E+02   0.000E+00 -.174E+01 -.405E+01
   0.164E-03 0.660E+02 0.376E+02   0.293E-10 -.640E+02 -.329E+02   0.000E+00 -.174E+01 -.405E+01
   0.123E-03 0.660E+02 0.376E+02   0.293E-10 -.640E+02 -.329E+02   -.106E-20 -.174E+01 -.405E+01
   -.705E-04 -.660E+02 -.376E+02   0.293E-10 0.640E+02 0.329E+02   -.318E-21 0.174E+01 0.405E+01
   0.827E-04 -.660E+02 -.376E+02   0.293E-10 0.640E+02 0.329E+02   0.503E-21 0.174E+01 0.405E+01
   0.967E-04 -.660E+02 -.376E+02   0.391E-13 0.640E+02 0.329E+02   0.000E+00 0.174E+01 0.405E+01
   0.124E-03 -.660E+02 -.376E+02   0.391E-13 0.640E+02 0.329E+02   0.318E-21 0.174E+01 0.405E+01
   -.714E-04 -.660E+02 -.376E+02   -.292E-10 0.640E+02 0.329E+02   0.331E-22 0.174E+01 0.405E+01
   -.936E-04 -.660E+02 -.376E+02   -.292E-10 0.640E+02 0.329E+02   0.132E-21 0.174E+01 0.405E+01
   0.120E-04 0.121E+03 0.631E+02   0.330E-10 -.134E+03 -.597E+02   0.265E-22 0.109E+02 -.299E+01
   -.102E-03 0.121E+03 0.631E+02   0.330E-10 -.134E+03 -.597E+02   -.119E-21 0.109E+02 -.299E+01
   -.796E-04 0.121E+03 0.631E+02   -.142E-13 -.134E+03 -.597E+02   0.159E-21 0.109E+02 -.299E+01
   0.191E-03 0.121E+03 0.631E+02   0.142E-13 -.134E+03 -.597E+02   0.476E-21 0.109E+02 -.299E+01
   0.376E-04 0.121E+03 0.631E+02   -.330E-10 -.134E+03 -.597E+02   -.265E-22 0.109E+02 -.299E+01
   -.476E-04 0.121E+03 0.631E+02   -.330E-10 -.134E+03 -.597E+02   -.106E-21 0.109E+02 -.299E+01
   -.228E-03 -.121E+03 -.631E+02   0.488E-13 0.134E+03 0.597E+02   0.106E-21 -.109E+02 0.299E+01
   0.429E-04 -.121E+03 -.631E+02   0.639E-13 0.134E+03 0.597E+02   0.185E-21 -.109E+02 0.299E+01
   0.999E-04 -.121E+03 -.631E+02   -.327E-10 0.134E+03 0.597E+02   0.000E+00 -.109E+02 0.299E+01
   0.104E-03 -.121E+03 -.631E+02   -.327E-10 0.134E+03 0.597E+02   -.344E-21 -.109E+02 0.299E+01
   0.905E-04 -.121E+03 -.631E+02   0.328E-10 0.134E+03 0.597E+02   0.212E-21 -.109E+02 0.299E+01
   -.108E-03 -.121E+03 -.631E+02   0.328E-10 0.134E+03 0.597E+02   0.000E+00 -.109E+02 0.299E+01
 -----------------------------------------------------------------------------------------------
   -.145E-04 0.390E-03 -.506E-03   -.438E-13 -.568E-13 -.279E-11   -.607E-20 0.112E-12 -.173E-13
 
 
 POSITION                                       TOTAL-FORCE (eV/Angst)
 -----------------------------------------------------------------------------------
      0.00000      7.65951     -1.76963        -0.000000      0.073792      0.009395
      0.00000      6.27538     -7.41997        -0.000000      0.073792      0.009395
      3.04757      7.65951     -1.76963         0.000000      0.073792      0.009395
      3.04757      6.27538     -7.41997         0.000000      0.073792      0.009395
      6.09513      7.65951     -1.76963         0.000000      0.073792      0.009395
      6.09513      6.27538     -7.41997        -0.000000      0.073792      0.009395
      1.52378      9.37707     -3.88072         0.000000     -0.073792     -0.009395
      1.52378      7.99294     -9.53107         0.000000     -0.073792     -0.009395
      4.57135      9.37707     -3.88072         0.000000     -0.073792     -0.009395
      4.57135      7.99294     -9.53107         0.000000     -0.073792     -0.009395
      7.61892      9.37707     -3.88072        -0.000000     -0.073792     -0.009395
      7.61892      7.99294     -9.53107         0.000000     -0.073792     -0.009395
      1.52378      6.15825     -4.49291        -0.000000     -0.017152      0.000195
      1.52378      4.77412    -10.14326         0.000000     -0.017152      0.000195
      4.57135      6.15825     -4.49291        -0.000000     -0.017152      0.000195
      4.57135      4.77412    -10.14326        -0.000000     -0.017152      0.000195
      7.61892      6.15825     -4.49291        -0.000000     -0.017152      0.000195
      7.61892      4.77412    -10.14326        -0.000000     -0.017152      0.000195
      0.00000     10.87833     -1.15744        -0.000000      0.017152     -0.000195
      0.00000      9.49420     -6.80779        -0.000000      0.017152     -0.000195
      3.04757     10.87833     -1.15744        -0.000000      0.017152     -0.000195
      3.04757      9.49420     -6.80779         0.000000      0.017152     -0.000195
      6.09513     10.87833     -1.15744        -0.000000      0.017152     -0.000195
      6.09513      9.49420     -6.80779        -0.000000      0.017152     -0.000195
      1.52378      1.51927     -1.76963         0.000000      0.073792      0.009395
      1.52378      0.13514     -7.41997        -0.000000      0.073792      0.009395
      4.57135      1.51927     -1.76963        -0.000000      0.073792      0.009395
      4.57135      0.13514     -7.41997         0.000000      0.073792      0.009395
      7.61892      1.51927     -1.76963         0.000000      0.073792      0.009395
      7.61892      0.13514     -7.41997         0.000000      0.073792      0.009395
      0.00000      3.23684     -3.88072        -0.000000     -0.073792     -0.009395
      0.00000      1.85271     -9.53107         0.000000     -0.073792     -0.009395
      3.04757      3.23684     -3.88072        -0.000000     -0.073792     -0.009395
      3.04757      1.85271     -9.53107         0.000000     -0.073792     -0.009395
      6.09513      3.23684     -3.88072        -0.000000     -0.073792     -0.009395
      6.09513      1.85271     -9.53107         0.000000     -0.073792     -0.009395
      0.00000      0.01801     -4.49291        -0.000000     -0.017152      0.000195
      0.00000     -1.36612    -10.14326        -0.000000     -0.017152      0.000195
      3.04757      0.01801     -4.49291         0.000000     -0.017152      0.000195
      3.04757     -1.36612    -10.14326         0.000000     -0.017152      0.000195
      6.09513      0.01801     -4.49291        -0.000000     -0.017152      0.000195
      6.09513     -1.36612    -10.14326         0.000000     -0.017152      0.000195
      1.52378      4.73810     -1.15744        -0.000000      0.017152     -0.000195
      1.52378      3.35396     -6.80779        -0.000000      0.017152     -0.000195
      4.57135      4.73810     -1.15744         0.000000      0.017152     -0.000195
      4.57135      3.35396     -6.80779        -0.000000      0.017152     -0.000195
      7.61892      4.73810     -1.15744        -0.000000      0.017152     -0.000195
      7.61892      3.35396     -6.80779        -0.000000      0.017152     -0.000195
      1.52378     11.88364     -1.43776        -0.000000     -0.165852      0.124898
      1.52378     10.49951     -7.08811         0.000000     -0.165852      0.124898
      4.57135     11.88364     -1.43776        -0.000000     -0.165852      0.124898
      4.57135     10.49951     -7.08811        -0.000000     -0.165852      0.124898
      7.61892     11.88364     -1.43776        -0.000000     -0.165852      0.124898
      7.61892     10.49951     -7.08811        -0.000000     -0.165852      0.124898
      0.00000      5.15294     -4.21259        -0.000000      0.165852     -0.124898
      0.00000      3.76881     -9.86294         0.000000      0.165852     -0.124898
      3.04757      5.15294     -4.21259        -0.000000      0.165852     -0.124898
      3.04757      3.76881     -9.86294        -0.000000      0.165852     -0.124898
      6.09513      5.15294     -4.21259        -0.000000      0.165852     -0.124898
      6.09513      3.76881     -9.86294        -0.000000      0.165852     -0.124898
      1.52378      7.48286     -3.16867        -0.000000     -0.025532     -0.146323
      1.52378      6.09873     -8.81902        -0.000000     -0.025532     -0.146323
      4.57135      7.48286     -3.16867         0.000000     -0.025532     -0.146323
      4.57135      6.09873     -8.81902         0.000000     -0.025532     -0.146323
      7.61892      7.48286     -3.16867         0.000000     -0.025532     -0.146323
      7.61892      6.09873     -8.81902        -0.000000     -0.025532     -0.146323
      0.00000      9.55372     -2.48168         0.000000      0.025532      0.146323
      0.00000      8.16958     -8.13203        -0.000000      0.025532      0.146323
      3.04757      9.55372     -2.48168         0.000000      0.025532      0.146323
      3.04757      8.16958     -8.13203         0.000000      0.025532      0.146323
      6.09513      9.55372     -2.48168         0.000000      0.025532      0.146323
      6.09513      8.16958     -8.13203        -0.000000      0.025532      0.146323
      0.00000      8.98430     -5.03794         0.000000      0.409771     -0.104089
      0.00000      7.60017    -10.68829        -0.000000      0.409771     -0.104089
      3.04757      8.98430     -5.03794        -0.000000      0.409771     -0.104089
      3.04757      7.60017    -10.68829         0.000000      0.409771     -0.104089
      6.09513      8.98430     -5.03794        -0.000000      0.409771     -0.104089
      6.09513      7.60017    -10.68829        -0.000000      0.409771     -0.104089
      1.52378      8.05228     -0.61240         0.000000     -0.409771      0.104089
      1.52378      6.66815     -6.26275        -0.000000     -0.409771      0.104089
      4.57135      8.05228     -0.61240         0.000000     -0.409771      0.104089
      4.57135      6.66815     -6.26275        -0.000000     -0.409771      0.104089
      7.61892      8.05228     -0.61240         0.000000     -0.409771      0.104089
      7.61892      6.66815     -6.26275         0.000000     -0.409771      0.104089
      0.00000      5.74340     -1.43776         0.000000     -0.165852      0.124898
      0.00000      4.35927     -7.08811        -0.000000     -0.165852      0.124898
      3.04757      5.74340     -1.43776        -0.000000     -0.165852      0.124898
      3.04757      4.35927     -7.08811        -0.000000     -0.165852      0.124898
      6.09513      5.74340     -1.43776         0.000000     -0.165852      0.124898
      6.09513      4.35927     -7.08811         0.000000     -0.165852      0.124898
      1.52378     -0.98730     -4.21259        -0.000000      0.165852     -0.124898
      1.52378     -2.37143     -9.86294         0.000000      0.165852     -0.124898
      4.57135     -0.98730     -4.21259        -0.000000      0.165852     -0.124898
      4.57135     -2.37143     -9.86294         0.000000      0.165852     -0.124898
      7.61892     -0.98730     -4.21259         0.000000      0.165852     -0.124898
      7.61892     -2.37143     -9.86294         0.000000      0.165852     -0.124898
      0.00000      1.34263     -3.16867         0.000000     -0.025532     -0.146323
      0.00000     -0.04150     -8.81902        -0.000000     -0.025532     -0.146323
      3.04757      1.34263     -3.16867         0.000000     -0.025532     -0.146323
      3.04757     -0.04150     -8.81902        -0.000000     -0.025532     -0.146323
      6.09513      1.34263     -3.16867         0.000000     -0.025532     -0.146323
      6.09513     -0.04150     -8.81902        -0.000000     -0.025532     -0.146323
      1.52378      3.41348     -2.48168         0.000000      0.025532      0.146323
      1.52378      2.02935     -8.13203         0.000000      0.025532      0.146323
      4.57135      3.41348     -2.48168        -0.000000      0.025532      0.146323
      4.57135      2.02935     -8.13203        -0.000000      0.025532      0.146323
      7.61892      3.41348     -2.48168        -0.000000      0.025532      0.146323
      7.61892      2.02935     -8.13203        -0.000000      0.025532      0.146323
      1.52378      2.84406     -5.03794        -0.000000      0.409771     -0.104089
      1.52378      1.45993    -10.68829         0.000000      0.409771     -0.104089
      4.57135      2.84406     -5.03794         0.000000      0.409771     -0.104089
      4.57135      1.45993    -10.68829         0.000000      0.409771     -0.104089
      7.61892      2.84406     -5.03794        -0.000000      0.409771     -0.104089
      7.61892      1.45993    -10.68829        -0.000000      0.409771     -0.104089
      0.00000      1.91204     -0.61240        -0.000000     -0.409771      0.104089
      0.00000      0.52791     -6.26275         0.000000     -0.409771      0.104089
      3.04757      1.91204     -0.61240         0.000000     -0.409771      0.104089
      3.04757      0.52791     -6.26275         0.000000     -0.409771      0.104089
      6.09513      1.91204     -0.61240        -0.000000     -0.409771      0.104089
      6.09513      0.52791     -6.26275        -0.000000     -0.409771      0.104089
 -----------------------------------------------------------------------------------
    total drift:                               -0.000015      0.000390     -0.000506


--------------------------------------------------------------------------------------------------------



  FREE ENERGIE OF THE ION-ELECTRON SYSTEM (eV)
  ---------------------------------------------------
  free  energy   TOTEN  =      -957.51209896 eV

  energy  without entropy=     -957.51209896  energy(sigma->0) =     -957.51209896
 


--------------------------------------------------------------------------------------------------------


    POTLOK:  cpu time      1.9642: real time      1.9695


--------------------------------------------------------------------------------------------------------


 writing wavefunctions
     LOOP+:  cpu time   1017.2377: real time   1017.8620
    4ORBIT:  cpu time      0.0000: real time      0.0000

 total amount of memory used by VASP MPI-rank0  1306256. kBytes
=======================================================================

   base      :      30000. kBytes
   nonlr-proj:      43983. kBytes
   fftplans  :      51012. kBytes
   grid      :      90980. kBytes
   one-center:       1866. kBytes
   HF        :        129. kBytes
   wavefun   :     880314. kBytes
   fock_wrk  :     207972. kBytes
 
  
  
 General timing and accounting informations for this job:
 ========================================================
  
                  Total CPU time used (sec):     1033.307
                            User time (sec):     1030.147
                          System time (sec):        3.161
                         Elapsed time (sec):     1036.574
  
                   Maximum memory used (kb):     5200640.
                   Average memory used (kb):          N/A
  
                          Minor page faults:       784335
                          Major page faults:            7
                 Voluntary context switches:        30953
