 running    4 mpi-ranks, on    1 nodes
 distrk:  each k-point on    1 cores,    4 groups
 distr:  one band on    1 cores,    1 groups
 OpenACC runtime initialized ...    4 GPUs detected
 vasp.6.4.2 20Jul23 (build Nov 12 2023 22:16:35) complex                         
 POSCAR found type information on POSCAR GaO P 
 POSCAR found :  3 types and     119 ions
 scaLAPACK will be used selectively (only on CPU)
 LDA part: xc-table for Pade appr. of Perdew
 POSCAR, INCAR and KPOINTS ok, starting setup
 FFT: planning ... GRIDC
 FFT: planning ... GRID_SOFT
 FFT: planning ... GRID
 WAVECAR not read
 initial charge from wavefunction
 entering main loop
       N       E                     dE             d eps       ncg     rms          ort
DAV:   1    -0.184844012136E+05   -0.18484E+05   -0.54315E+05  5000   0.750E+03
DAV:   2    -0.630920942966E+05   -0.44608E+05   -0.43075E+05  5000   0.124E+03
DAV:   3    -0.682890398800E+05   -0.51969E+04   -0.47202E+04  5000   0.379E+02
DAV:   4    -0.690181228948E+05   -0.72908E+03   -0.66376E+03  5000   0.120E+02
DAV:   5    -0.394702518631E+05    0.29548E+05   -0.61149E+02  5000   0.565E+01
 gam= 0.000 g(H,U,f)=  0.805E+05 0.108E+05 0.298E-14 ort(H,U,f) = 0.000E+00 0.000E+00 0.000E+00
SDA:   6     0.344819142600E+05    0.73952E+05   -0.61149E+02  5000   0.914E+05 0.000E+00
 gam= 0.000 trial= 0.400  step= 0.586 mean= 0.400
 gam= 0.815 g(H,U,f)=  0.579E+05 0.161E+05 0.472E+03 ort(H,U,f) =-0.140E+05-0.846E+04-0.195E+03
CGA:   7     0.155908376261E+05   -0.18891E+05   -0.26771E+05  5000   0.745E+05-0.227E+05
 gam= 0.815 trial= 0.409  step= 0.279 mean= 0.409
 gam= 0.412 g(H,U,f)=  0.236E+05 0.688E+04 0.187E+03 ort(H,U,f) =-0.305E+03 0.704E+04 0.306E+03
CGA:   8     0.837120257047E+04   -0.72196E+04   -0.78052E+04  5000   0.307E+05 0.704E+04
 gam= 0.412 trial= 0.403  step= 0.219 mean= 0.403
 gam= 0.739 g(H,U,f)=  0.179E+05 0.469E+04 0.288E+02 ort(H,U,f) = 0.597E+04-0.391E+04-0.607E+02
CGA:   9     0.583552463654E+04   -0.25357E+04   -0.36707E+04  5000   0.227E+05 0.200E+04
 gam= 0.739 trial= 0.394  step= 0.261 mean= 0.394
 gam= 0.591 g(H,U,f)=  0.927E+04 0.403E+04 0.106E+03 ort(H,U,f) = 0.342E+04 0.547E+03-0.193E+02
CGA:  10     0.342612610221E+04   -0.24094E+04   -0.31559E+04  5000   0.134E+05 0.395E+04
 gam= 0.591 trial= 0.387  step= 0.259 mean= 0.387
 gam= 0.401 g(H,U,f)=  0.484E+04 0.508E+03 0.228E+02 ort(H,U,f) = 0.927E+03 0.645E+03 0.306E+02
CGA:  11     0.180605214255E+04   -0.16201E+04   -0.20352E+04  5000   0.537E+04 0.160E+04
 gam= 0.401 trial= 0.381  step= 0.410 mean= 0.381
 gam= 0.467 g(H,U,f)=  0.213E+04 0.359E+03 0.203E+02 ort(H,U,f) = 0.608E+03 0.145E+03 0.341E+01
CGA:  12     0.554679507381E+03   -0.12514E+04   -0.12310E+04  5000   0.251E+04 0.757E+03
 gam= 0.467 trial= 0.382  step= 0.471 mean= 0.382
 gam= 0.496 g(H,U,f)=  0.109E+04 0.154E+03 0.222E+01 ort(H,U,f) = 0.563E+02 0.271E+03 0.403E+01
CGA:  13    -0.144698861180E+03   -0.69938E+03   -0.67443E+03  5000   0.124E+04 0.331E+03
 gam= 0.496 trial= 0.386  step= 0.561 mean= 0.386
 gam= 0.557 g(H,U,f)=  0.591E+03 0.101E+03 0.407E+00 ort(H,U,f) =-0.224E+03 0.235E+03-0.109E-01
CGA:  14    -0.542613059350E+03   -0.39791E+03   -0.39490E+03  5000   0.693E+03 0.116E+02
 gam= 0.557 trial= 0.395  step= 0.580 mean= 0.395
 gam= 0.623 g(H,U,f)=  0.363E+03 0.686E+02 0.192E+00 ort(H,U,f) =-0.109E+03-0.380E+02 0.334E+00
CGA:  15    -0.730157443557E+03   -0.18754E+03   -0.20282E+03  5000   0.432E+03-0.146E+03
 gam= 0.623 trial= 0.404  step= 0.364 mean= 0.404
 gam= 0.667 g(H,U,f)=  0.208E+03 0.795E+02 0.898E+00 ort(H,U,f) = 0.646E+02-0.776E+02 0.184E+01
CGA:  16    -0.792529757136E+03   -0.62372E+02   -0.61907E+02  5000   0.288E+03-0.112E+02
 gam= 0.667 trial= 0.402  step= 0.341 mean= 0.402
 gam= 0.568 g(H,U,f)=  0.106E+03 0.566E+02 0.115E+01 ort(H,U,f) = 0.296E+02-0.215E+02 0.213E+01
CGA:  17    -0.839556476588E+03   -0.47027E+02   -0.47827E+02  5000   0.164E+03 0.102E+02
 gam= 0.568 trial= 0.399  step= 0.401 mean= 0.399
 gam= 0.656 g(H,U,f)=  0.765E+02 0.309E+02 0.315E-08 ort(H,U,f) =-0.132E+02 0.141E+02 0.116E-06
CGA:  18    -0.873516183894E+03   -0.33960E+02   -0.33961E+02  5000   0.107E+03 0.938E+00
 gam= 0.656 trial= 0.399  step= 0.445 mean= 0.399
 gam= 0.717 g(H,U,f)=  0.572E+02 0.198E+02 0.103E-09 ort(H,U,f) =-0.171E+02 0.210E+02-0.305E-08
CGA:  19    -0.897667749229E+03   -0.24152E+02   -0.24048E+02  5000   0.769E+02 0.386E+01
 gam= 0.717 trial= 0.402  step= 0.444 mean= 0.402
 gam= 0.659 g(H,U,f)=  0.397E+02 0.110E+02 0.370E-13 ort(H,U,f) =-0.159E+02 0.176E+02-0.790E-12
CGA:  20    -0.915392334012E+03   -0.17725E+02   -0.17695E+02  5000   0.507E+02 0.165E+01
 gam= 0.659 trial= 0.404  step= 0.431 mean= 0.404
 gam= 0.676 g(H,U,f)=  0.277E+02 0.659E+01 0.350E-16 ort(H,U,f) =-0.795E+01 0.896E+01 0.354E-15
CGA:  21    -0.926567802231E+03   -0.11175E+02   -0.11166E+02  5000   0.343E+02 0.101E+01
 gam= 0.676 trial= 0.405  step= 0.427 mean= 0.405
 gam= 0.634 g(H,U,f)=  0.179E+02 0.386E+01 0.263E-12 ort(H,U,f) =-0.224E+01 0.324E+01-0.209E-11
CGA:  22    -0.934041824351E+03   -0.74740E+01   -0.74618E+01  5000   0.217E+02 0.100E+01
 gam= 0.634 trial= 0.406  step= 0.413 mean= 0.406
 gam= 0.545 g(H,U,f)=  0.961E+01 0.222E+01 0.944E-14 ort(H,U,f) =-0.107E-01 0.623E+00-0.376E-14
CGA:  23    -0.938663975757E+03   -0.46222E+01   -0.46194E+01  5000   0.118E+02 0.612E+00
 gam= 0.545 trial= 0.407  step= 0.428 mean= 0.407
 gam= 0.654 g(H,U,f)=  0.606E+01 0.168E+01 0.940E-14 ort(H,U,f) =-0.106E+00 0.358E+00-0.177E-13
CGA:  24    -0.941273689762E+03   -0.26097E+01   -0.26063E+01  5000   0.774E+01 0.252E+00
 gam= 0.654 trial= 0.408  step= 0.457 mean= 0.408
 gam= 0.699 g(H,U,f)=  0.414E+01 0.126E+01 0.146E-16 ort(H,U,f) =-0.551E+00 0.654E+00 0.327E-16
CGA:  25    -0.943081142567E+03   -0.18075E+01   -0.18045E+01  5000   0.540E+01 0.103E+00
 gam= 0.699 trial= 0.410  step= 0.406 mean= 0.410
 gam= 0.575 g(H,U,f)=  0.230E+01 0.807E+00 0.170E-12 ort(H,U,f) =-0.786E+00 0.812E+00 0.376E-12
CGA:  26    -0.944194079884E+03   -0.11129E+01   -0.11130E+01  5000   0.311E+01 0.258E-01
 gam= 0.575 trial= 0.410  step= 0.438 mean= 0.410
 gam= 0.683 g(H,U,f)=  0.164E+01 0.484E+00 0.322E-19 ort(H,U,f) =-0.605E+00 0.608E+00-0.379E-18
CGA:  27    -0.944877737552E+03   -0.68366E+00   -0.68371E+00  5000   0.212E+01 0.387E-02
 gam= 0.683 trial= 0.411  step= 0.480 mean= 0.411
 gam= 0.661 g(H,U,f)=  0.114E+01 0.263E+00 0.487E-12 ort(H,U,f) =-0.303E+00 0.305E+00-0.157E-11
CGA:  28    -0.945387085355E+03   -0.50935E+00   -0.50938E+00  5000   0.140E+01 0.193E-02
 gam= 0.661 trial= 0.415  step= 0.456 mean= 0.415
 gam= 0.536 g(H,U,f)=  0.604E+00 0.148E+00 0.339E-19 ort(H,U,f) =-0.807E-01 0.845E-01-0.503E-19
CGA:  29    -0.945707079308E+03   -0.31999E+00   -0.31991E+00  5000   0.752E+00 0.379E-02
 gam= 0.536 trial= 0.417  step= 0.486 mean= 0.417
 gam= 0.661 g(H,U,f)=  0.390E+00 0.106E+00 0.215E-19 ort(H,U,f) =-0.227E-01 0.247E-01-0.777E-21
CGA:  30    -0.945890346262E+03   -0.18327E+00   -0.18319E+00  5000   0.497E+00 0.201E-02
 gam= 0.661 trial= 0.420  step= 0.510 mean= 0.420
 gam= 0.742 g(H,U,f)=  0.288E+00 0.801E-01 0.230E-20 ort(H,U,f) =-0.185E-01 0.194E-01 0.240E-20
CGA:  31    -0.946017440764E+03   -0.12709E+00   -0.12706E+00  5000   0.368E+00 0.872E-03
 gam= 0.742 trial= 0.425  step= 0.442 mean= 0.425
 gam= 0.618 g(H,U,f)=  0.171E+00 0.561E-01 0.690E-14 ort(H,U,f) =-0.222E-01 0.226E-01-0.150E-13
CGA:  32    -0.946099001457E+03   -0.81561E-01   -0.81558E-01  5000   0.227E+00 0.349E-03
 gam= 0.618 trial= 0.426  step= 0.419 mean= 0.426
 gam= 0.658 g(H,U,f)=  0.110E+00 0.401E-01 0.213E-14 ort(H,U,f) =-0.274E-01 0.276E-01-0.779E-15
CGA:  33    -0.946146697953E+03   -0.47696E-01   -0.47697E-01  5000   0.150E+00 0.254E-03
 gam= 0.658 trial= 0.425  step= 0.472 mean= 0.425
 gam= 0.704 g(H,U,f)=  0.801E-01 0.253E-01 0.809E-14 ort(H,U,f) =-0.235E-01 0.239E-01 0.301E-13
CGA:  34    -0.946182134139E+03   -0.35436E-01   -0.35427E-01  5000   0.105E+00 0.375E-03
 gam= 0.704 trial= 0.428  step= 0.464 mean= 0.428
 gam= 0.579 g(H,U,f)=  0.475E-01 0.136E-01 0.801E-20 ort(H,U,f) =-0.136E-01 0.140E-01 0.537E-18
CGA:  35    -0.946206655087E+03   -0.24521E-01   -0.24513E-01  5000   0.611E-01 0.385E-03
 gam= 0.579 trial= 0.430  step= 0.486 mean= 0.430
 gam= 0.625 g(H,U,f)=  0.303E-01 0.791E-02 0.227E-19 ort(H,U,f) =-0.515E-02 0.537E-02-0.785E-19
CGA:  36    -0.946221568244E+03   -0.14913E-01   -0.14906E-01  5000   0.382E-01 0.216E-03
 gam= 0.625 trial= 0.432  step= 0.526 mean= 0.432
 gam= 0.000 g(H,U,f)=  0.219E-01 0.529E-02 0.262E-18 ort(H,U,f) =-0.145E-02 0.151E-02-0.225E-18
SDA:  37    -0.946231648005E+03   -0.10080E-01   -0.10077E-01  5000   0.272E-01 0.587E-04
 gam= 0.000 trial= 0.437  step= 0.890 mean= 0.437
 gam= 0.374 g(H,U,f)=  0.795E-02 0.220E-02 0.642E-16 ort(H,U,f) =-0.279E-02 0.267E-02 0.204E-15
CGA:  38    -0.946243706693E+03   -0.12059E-01   -0.12085E-01  5000   0.101E-01-0.115E-03
 gam= 0.374 trial= 0.460  step= 0.867 mean= 0.460
 gam= 0.354 g(H,U,f)=  0.310E-02 0.489E-03 0.248E-14 ort(H,U,f) =-0.150E-02 0.150E-02 0.140E-13
CGA:  39    -0.946248086867E+03   -0.43802E-02   -0.43814E-02  5000   0.359E-02-0.614E-05
 gam= 0.354 trial= 0.480  step= 0.637 mean= 0.480
 gam= 0.321 g(H,U,f)=  0.105E-02 0.102E-03 0.251E-17 ort(H,U,f) =-0.414E-03 0.417E-03 0.139E-16
CGA:  40    -0.946249230403E+03   -0.11435E-02   -0.11433E-02  5000   0.115E-02 0.327E-05
 gam= 0.321 trial= 0.488  step= 0.672 mean= 0.488
 gam= 0.395 g(H,U,f)=  0.434E-03 0.212E-04 0.687E-19 ort(H,U,f) =-0.833E-04 0.766E-04 0.813E-18
CGA:  41    -0.946249617577E+03   -0.38717E-03   -0.38779E-03  5000   0.456E-03-0.675E-05
 gam= 0.395 trial= 0.497  step= 0.598 mean= 0.497
 gam= 0.212 g(H,U,f)=  0.946E-04 0.211E-05 0.367E-19 ort(H,U,f) =-0.118E-04 0.523E-05-0.824E-18
CGA:  42    -0.946249752621E+03   -0.13504E-03   -0.13537E-03  5000   0.967E-04-0.659E-05
 gam= 0.212 trial= 0.502  step= 0.636 mean= 0.502
 gam= 0.392 g(H,U,f)=  0.368E-04 0.115E-05 0.583E-18 ort(H,U,f) =-0.728E-06-0.392E-06-0.128E-17
CGA:  43    -0.946249782868E+03   -0.30247E-04   -0.30322E-04  5000   0.379E-04-0.112E-05
 gam= 0.392 trial= 0.509  step= 0.661 mean= 0.509
 gam= 0.325 g(H,U,f)=  0.117E-04 0.651E-06 0.279E-24 ort(H,U,f) = 0.184E-06 0.187E-06-0.272E-24
CGA:  44    -0.946249795300E+03   -0.12432E-04   -0.12402E-04  5000   0.123E-04 0.372E-06
 gam= 0.325 trial= 0.517  step= 0.728 mean= 0.517
 gam= 0.458 g(H,U,f)=  0.534E-05 0.309E-06 0.638E-24 ort(H,U,f) =-0.544E-06 0.339E-06 0.102E-23
CGA:  45    -0.946249799813E+03   -0.45130E-05   -0.45348E-05  5000   0.565E-05-0.206E-06
 gam= 0.458 trial= 0.527  step= 0.861 mean= 0.527
 final diagonalization
   1 F= -.94624980E+03 E0= -.94624980E+03  d E =-.259402E-18
 writing wavefunctions
Warning: ieee_invalid is signaling
Warning: ieee_divide_by_zero is signaling
Warning: ieee_underflow is signaling
Warning: ieee_inexact is signaling
FORTRAN STOP
Warning: ieee_invalid is signaling
Warning: ieee_divide_by_zero is signaling
Warning: ieee_underflow is signaling
Warning: ieee_inexact is signaling
FORTRAN STOP
Warning: ieee_invalid is signaling
Warning: ieee_divide_by_zero is signaling
Warning: ieee_underflow is signaling
Warning: ieee_inexact is signaling
FORTRAN STOP
Warning: ieee_invalid is signaling
Warning: ieee_divide_by_zero is signaling
Warning: ieee_underflow is signaling
Warning: ieee_inexact is signaling
FORTRAN STOP
