       N       E                     dE             d eps       ncg     rms          ort
DAV:   1    -0.184844012136E+05   -0.18484E+05   -0.54315E+05  5000   0.750E+03
DAV:   2    -0.630920942966E+05   -0.44608E+05   -0.43075E+05  5000   0.124E+03
DAV:   3    -0.682890398800E+05   -0.51969E+04   -0.47202E+04  5000   0.379E+02
DAV:   4    -0.690181228948E+05   -0.72908E+03   -0.66376E+03  5000   0.120E+02
DAV:   5    -0.394702518631E+05    0.29548E+05   -0.61149E+02  5000   0.565E+01
SDA:   6     0.344819142600E+05    0.73952E+05   -0.61149E+02  5000   0.914E+05 0.000E+00
CGA:   7     0.155908376261E+05   -0.18891E+05   -0.26771E+05  5000   0.745E+05-0.227E+05
CGA:   8     0.837120257124E+04   -0.72196E+04   -0.78052E+04  5000   0.307E+05 0.704E+04
CGA:   9     0.583552463620E+04   -0.25357E+04   -0.36707E+04  5000   0.227E+05 0.200E+04
CGA:  10     0.342612610246E+04   -0.24094E+04   -0.31559E+04  5000   0.134E+05 0.395E+04
CGA:  11     0.180605214274E+04   -0.16201E+04   -0.20352E+04  5000   0.537E+04 0.160E+04
CGA:  12     0.554679507563E+03   -0.12514E+04   -0.12310E+04  5000   0.251E+04 0.757E+03
CGA:  13    -0.144698861039E+03   -0.69938E+03   -0.67443E+03  5000   0.124E+04 0.331E+03
CGA:  14    -0.542613059261E+03   -0.39791E+03   -0.39490E+03  5000   0.693E+03 0.116E+02
CGA:  15    -0.730157443526E+03   -0.18754E+03   -0.20282E+03  5000   0.432E+03-0.146E+03
CGA:  16    -0.792529757160E+03   -0.62372E+02   -0.61907E+02  5000   0.288E+03-0.112E+02
CGA:  17    -0.839556476607E+03   -0.47027E+02   -0.47827E+02  5000   0.164E+03 0.102E+02
CGA:  18    -0.873516183924E+03   -0.33960E+02   -0.33961E+02  5000   0.107E+03 0.938E+00
CGA:  19    -0.897667749248E+03   -0.24152E+02   -0.24048E+02  5000   0.769E+02 0.386E+01
CGA:  20    -0.915392334025E+03   -0.17725E+02   -0.17695E+02  5000   0.507E+02 0.165E+01
CGA:  21    -0.926567802238E+03   -0.11175E+02   -0.11166E+02  5000   0.343E+02 0.101E+01
CGA:  22    -0.934041824356E+03   -0.74740E+01   -0.74618E+01  5000   0.217E+02 0.100E+01
CGA:  23    -0.938663975760E+03   -0.46222E+01   -0.46194E+01  5000   0.118E+02 0.612E+00
CGA:  24    -0.941273689764E+03   -0.26097E+01   -0.26063E+01  5000   0.774E+01 0.252E+00
CGA:  25    -0.943081142569E+03   -0.18075E+01   -0.18045E+01  5000   0.540E+01 0.103E+00
CGA:  26    -0.944194079886E+03   -0.11129E+01   -0.11130E+01  5000   0.311E+01 0.258E-01
CGA:  27    -0.944877737552E+03   -0.68366E+00   -0.68371E+00  5000   0.212E+01 0.387E-02
CGA:  28    -0.945387085355E+03   -0.50935E+00   -0.50938E+00  5000   0.140E+01 0.193E-02
CGA:  29    -0.945707079308E+03   -0.31999E+00   -0.31991E+00  5000   0.752E+00 0.379E-02
CGA:  30    -0.945890346262E+03   -0.18327E+00   -0.18319E+00  5000   0.497E+00 0.201E-02
CGA:  31    -0.946017440764E+03   -0.12709E+00   -0.12706E+00  5000   0.368E+00 0.872E-03
CGA:  32    -0.946099001457E+03   -0.81561E-01   -0.81558E-01  5000   0.227E+00 0.349E-03
CGA:  33    -0.946146697953E+03   -0.47696E-01   -0.47697E-01  5000   0.150E+00 0.254E-03
CGA:  34    -0.946182134139E+03   -0.35436E-01   -0.35427E-01  5000   0.105E+00 0.375E-03
CGA:  35    -0.946206655087E+03   -0.24521E-01   -0.24513E-01  5000   0.611E-01 0.385E-03
CGA:  36    -0.946221568244E+03   -0.14913E-01   -0.14906E-01  5000   0.382E-01 0.216E-03
SDA:  37    -0.946231648005E+03   -0.10080E-01   -0.10077E-01  5000   0.272E-01 0.587E-04
CGA:  38    -0.946243706693E+03   -0.12059E-01   -0.12085E-01  5000   0.101E-01-0.115E-03
CGA:  39    -0.946248086867E+03   -0.43802E-02   -0.43814E-02  5000   0.359E-02-0.614E-05
CGA:  40    -0.946249230403E+03   -0.11435E-02   -0.11433E-02  5000   0.115E-02 0.327E-05
CGA:  41    -0.946249617577E+03   -0.38717E-03   -0.38779E-03  5000   0.456E-03-0.675E-05
CGA:  42    -0.946249752621E+03   -0.13504E-03   -0.13537E-03  5000   0.967E-04-0.659E-05
CGA:  43    -0.946249782868E+03   -0.30247E-04   -0.30322E-04  5000   0.379E-04-0.112E-05
CGA:  44    -0.946249795300E+03   -0.12431E-04   -0.12402E-04  5000   0.123E-04 0.372E-06
CGA:  45    -0.946249799813E+03   -0.45131E-05   -0.45349E-05  5000   0.565E-05-0.206E-06
   1 F= -.94624980E+03 E0= -.94624980E+03  d E =-.259338E-18
