<?xml version="1.0" encoding="ISO-8859-1"?>
<modeling>
 <generator>
  <i name="program" type="string">vasp </i>
  <i name="version" type="string">6.4.2  </i>
  <i name="subversion" type="string">20Jul23 (build Nov 12 2023 22:16:35) complex                          parallel </i>
  <i name="platform" type="string">LinuxNV </i>
  <i name="date" type="string">2025 03 16 </i>
  <i name="time" type="string">18:03:33 </i>
 </generator>
 <incar>
  <i type="int" name="ISTART">     0</i>
  <i type="string" name="PREC">Normal</i>
  <i type="string" name="ALGO">All</i>
  <i type="int" name="ISPIN">     1</i>
  <i type="int" name="ICHARG">     0</i>
  <i type="int" name="NELM">   500</i>
  <i type="int" name="IBRION">    -1</i>
  <i name="EDIFF">      0.00001000</i>
  <i name="EDIFFG">     -0.00500000</i>
  <i type="int" name="NSW">     0</i>
  <i type="int" name="ISIF">     2</i>
  <i name="ENCUT">    450.00000000</i>
  <i type="string" name="LREAL">Auto</i>
  <i type="logical" name="LPLANE"> T  </i>
  <i name="TIME">      0.40000000</i>
  <i type="int" name="ISMEAR">     0</i>
  <i name="SIGMA">      0.05000000</i>
  <i type="logical" name="LWAVE"> T  </i>
  <i type="logical" name="LCHARG"> T  </i>
  <i name="HFSCREEN">      0.20000000</i>
  <i type="logical" name="LHFCALC"> T  </i>
  <i type="int" name="LMAXFOCK">     4</i>
  <i name="AEXX">      0.32000000</i>
  <i type="string" name="PRECFOCK">Fast</i>
 </incar>
 <primitive_cell>
  <structure name="primitive_cell" >
   <crystal>
    <varray name="basis" >
     <v>       0.00000000      12.28047342       0.00000000 </v>
     <v>       9.14270205       0.00000000       0.00000000 </v>
     <v>       0.00000000      -2.76826177     -11.30069772 </v>
    </varray>
    <i name="volume">   1268.80515525 </i>
    <varray name="rec_basis" >
     <v>       0.00000000       0.08143009      -0.01994742 </v>
     <v>       0.10937686      -0.00000000       0.00000000 </v>
     <v>       0.00000000       0.00000000      -0.08849011 </v>
    </varray>
   </crystal>
   <varray name="positions" >
    <v>       0.66034400       0.99894297       0.15879501 </v>
    <v>       0.65868450       0.99848318       0.65585433 </v>
    <v>       0.66078668       0.33114162       0.15883978 </v>
    <v>       0.65789788       0.33218000       0.65627947 </v>
    <v>       0.66091696       0.66597312       0.15837748 </v>
    <v>       0.65826366       0.66486602       0.65771060 </v>
    <v>       0.84896102       0.16268191       0.34462140 </v>
    <v>       0.83745788       0.16499296       0.84068190 </v>
    <v>       0.84142735       0.49837046       0.34564271 </v>
    <v>       0.84054264       0.49916101       0.84264926 </v>
    <v>       0.84517952       0.83174891       0.34576620 </v>
    <v>       0.83963370       0.83054547       0.84191523 </v>
    <v>       0.59327103       0.16692771       0.39731735 </v>
    <v>       0.59066791       0.16480661       0.89870803 </v>
    <v>       0.59047111       0.49916509       0.39821552 </v>
    <v>       0.59138519       0.49846394       0.89949752 </v>
    <v>       0.59426269       0.83233464       0.39870271 </v>
    <v>       0.59136545       0.83128710       0.89931686 </v>
    <v>       0.90219882       0.99606719       0.09883072 </v>
    <v>       0.91001211       0.99778945       0.60084049 </v>
    <v>       0.90393798       0.33758455       0.09946537 </v>
    <v>       0.90939537       0.33079415       0.60297725 </v>
    <v>       0.90866706       0.66573554       0.10279565 </v>
    <v>       0.90982048       0.66466945       0.60418350 </v>
    <v>       0.15956328       0.16127759       0.65134504 </v>
    <v>       0.15905582       0.50295447       0.16862926 </v>
    <v>       0.15926645       0.49740618       0.66046899 </v>
    <v>       0.15667563       0.83471511       0.17326306 </v>
    <v>       0.15929651       0.83320619       0.65362968 </v>
    <v>       0.34515772       0.00320035       0.34414744 </v>
    <v>       0.34078116       0.99866251       0.84539282 </v>
    <v>       0.33945369       0.33093575       0.34253356 </v>
    <v>       0.34081128       0.33049490       0.84603497 </v>
    <v>       0.34329147       0.66538383       0.34837117 </v>
    <v>       0.33954237       0.66491590       0.84562334 </v>
    <v>       0.11444562       0.99003585       0.37783348 </v>
    <v>       0.08553540       0.99799770       0.88992432 </v>
    <v>       0.09074541       0.32923411       0.39971739 </v>
    <v>       0.08776504       0.32831031       0.89441804 </v>
    <v>       0.08804960       0.66490397       0.40262300 </v>
    <v>       0.09393998       0.66461884       0.90380243 </v>
    <v>       0.41211114       0.16571632       0.10697501 </v>
    <v>       0.40826935       0.16511396       0.60360422 </v>
    <v>       0.41118589       0.50005889       0.10397394 </v>
    <v>       0.40974229       0.49855259       0.60602611 </v>
    <v>       0.40885285       0.83299917       0.10414875 </v>
    <v>       0.40953111       0.83258494       0.60508880 </v>
    <v>       0.99133965       0.16624986       0.10799038 </v>
    <v>       0.99699879       0.16458380       0.62619711 </v>
    <v>       0.99639523       0.49877355       0.12758612 </v>
    <v>       0.99655951       0.49756650       0.63201362 </v>
    <v>       0.99458742       0.83465245       0.12698815 </v>
    <v>       0.99698514       0.83111674       0.63131858 </v>
    <v>       0.50743376       0.99874170       0.37573253 </v>
    <v>       0.50341922       0.99771378       0.87473956 </v>
    <v>       0.50445799       0.33242223       0.37456770 </v>
    <v>       0.50350205       0.33192187       0.87520682 </v>
    <v>       0.50480199       0.66740915       0.37053897 </v>
    <v>       0.50277980       0.66488777       0.87682282 </v>
    <v>       0.67529583       0.16578852       0.28094743 </v>
    <v>       0.67123509       0.16480865       0.78033812 </v>
    <v>       0.67409998       0.49826921       0.28218187 </v>
    <v>       0.67162501       0.49876719       0.78116996 </v>
    <v>       0.67560417       0.83188947       0.28160810 </v>
    <v>       0.67172018       0.83095862       0.78106306 </v>
    <v>       0.82862370       0.99988384       0.21963453 </v>
    <v>       0.82723648       0.99713167       0.71830311 </v>
    <v>       0.82971509       0.33053179       0.22011458 </v>
    <v>       0.82670567       0.33285616       0.71917881 </v>
    <v>       0.82894576       0.66465807       0.22087267 </v>
    <v>       0.82769450       0.66411270       0.72095615 </v>
    <v>       0.83130710       0.99882314       0.44555312 </v>
    <v>       0.82910137       0.99768241       0.94284022 </v>
    <v>       0.83536934       0.32887084       0.44577647 </v>
    <v>       0.82947627       0.33273030       0.94354808 </v>
    <v>       0.83243224       0.66503073       0.44799451 </v>
    <v>       0.83216764       0.66496530       0.94636915 </v>
    <v>       0.66961310       0.16506877       0.05471002 </v>
    <v>       0.66845653       0.16599563       0.55484611 </v>
    <v>       0.66991859       0.49867213       0.05593683 </v>
    <v>       0.66750512       0.49925064       0.55486405 </v>
    <v>       0.67069825       0.83229261       0.05533130 </v>
    <v>       0.66859896       0.83075694       0.55575422 </v>
    <v>       0.49841583       0.99733127       0.12778359 </v>
    <v>       0.49660980       0.99939404       0.62898198 </v>
    <v>       0.49859012       0.33368079       0.12742979 </v>
    <v>       0.49622323       0.33104627       0.63008034 </v>
    <v>       0.49748049       0.66749517       0.12824667 </v>
    <v>       0.49662525       0.66576739       0.63068437 </v>
    <v>       0.01143639       0.15707498       0.36466716 </v>
    <v>       0.99882775       0.16419903       0.86603068 </v>
    <v>       0.00227029       0.49710411       0.37642969 </v>
    <v>       0.00545935       0.49753143       0.87963026 </v>
    <v>       0.00514243       0.83355788       0.37572443 </v>
    <v>       0.00342344       0.82960075       0.87657929 </v>
    <v>       0.17279665       0.99847300       0.78045808 </v>
    <v>       0.17637667       0.35790324       0.29172052 </v>
    <v>       0.17318047       0.32970387       0.78325692 </v>
    <v>       0.17420181       0.66722785       0.28847066 </v>
    <v>       0.17233816       0.66452003       0.78405462 </v>
    <v>       0.33832657       0.16480953       0.22774945 </v>
    <v>       0.32759669       0.16451905       0.72169952 </v>
    <v>       0.32728031       0.50115982       0.21811795 </v>
    <v>       0.32795506       0.49764936       0.72310576 </v>
    <v>       0.32350385       0.84062669       0.21949151 </v>
    <v>       0.32769101       0.83129432       0.72209640 </v>
    <v>       0.32893143       0.16542280       0.44738025 </v>
    <v>       0.33275221       0.16437175       0.95006665 </v>
    <v>       0.33977655       0.49960549       0.44870982 </v>
    <v>       0.32871317       0.49715034       0.94920593 </v>
    <v>       0.33668594       0.83398502       0.44707053 </v>
    <v>       0.32841912       0.83288566       0.94866815 </v>
    <v>       0.15218156       0.01841404       0.05491585 </v>
    <v>       0.16705324       0.99626412       0.55061036 </v>
    <v>       0.15466989       0.30559509       0.05953410 </v>
    <v>       0.16765620       0.33254992       0.55690977 </v>
    <v>       0.16486111       0.66873423       0.06264132 </v>
    <v>       0.16927007       0.66254365       0.55765026 </v>
    <v>       0.13741302       0.16031413       0.14162819 </v>
   </varray>
  </structure>
  <varray name="primitive_index" >
   <v type="int" >        1 </v>
   <v type="int" >        2 </v>
   <v type="int" >        3 </v>
   <v type="int" >        4 </v>
   <v type="int" >        5 </v>
   <v type="int" >        6 </v>
   <v type="int" >        7 </v>
   <v type="int" >        8 </v>
   <v type="int" >        9 </v>
   <v type="int" >       10 </v>
   <v type="int" >       11 </v>
   <v type="int" >       12 </v>
   <v type="int" >       13 </v>
   <v type="int" >       14 </v>
   <v type="int" >       15 </v>
   <v type="int" >       16 </v>
   <v type="int" >       17 </v>
   <v type="int" >       18 </v>
   <v type="int" >       19 </v>
   <v type="int" >       20 </v>
   <v type="int" >       21 </v>
   <v type="int" >       22 </v>
   <v type="int" >       23 </v>
   <v type="int" >       24 </v>
   <v type="int" >       25 </v>
   <v type="int" >       26 </v>
   <v type="int" >       27 </v>
   <v type="int" >       28 </v>
   <v type="int" >       29 </v>
   <v type="int" >       30 </v>
   <v type="int" >       31 </v>
   <v type="int" >       32 </v>
   <v type="int" >       33 </v>
   <v type="int" >       34 </v>
   <v type="int" >       35 </v>
   <v type="int" >       36 </v>
   <v type="int" >       37 </v>
   <v type="int" >       38 </v>
   <v type="int" >       39 </v>
   <v type="int" >       40 </v>
   <v type="int" >       41 </v>
   <v type="int" >       42 </v>
   <v type="int" >       43 </v>
   <v type="int" >       44 </v>
   <v type="int" >       45 </v>
   <v type="int" >       46 </v>
   <v type="int" >       47 </v>
   <v type="int" >       48 </v>
   <v type="int" >       49 </v>
   <v type="int" >       50 </v>
   <v type="int" >       51 </v>
   <v type="int" >       52 </v>
   <v type="int" >       53 </v>
   <v type="int" >       54 </v>
   <v type="int" >       55 </v>
   <v type="int" >       56 </v>
   <v type="int" >       57 </v>
   <v type="int" >       58 </v>
   <v type="int" >       59 </v>
   <v type="int" >       60 </v>
   <v type="int" >       61 </v>
   <v type="int" >       62 </v>
   <v type="int" >       63 </v>
   <v type="int" >       64 </v>
   <v type="int" >       65 </v>
   <v type="int" >       66 </v>
   <v type="int" >       67 </v>
   <v type="int" >       68 </v>
   <v type="int" >       69 </v>
   <v type="int" >       70 </v>
   <v type="int" >       71 </v>
   <v type="int" >       72 </v>
   <v type="int" >       73 </v>
   <v type="int" >       74 </v>
   <v type="int" >       75 </v>
   <v type="int" >       76 </v>
   <v type="int" >       77 </v>
   <v type="int" >       78 </v>
   <v type="int" >       79 </v>
   <v type="int" >       80 </v>
   <v type="int" >       81 </v>
   <v type="int" >       82 </v>
   <v type="int" >       83 </v>
   <v type="int" >       84 </v>
   <v type="int" >       85 </v>
   <v type="int" >       86 </v>
   <v type="int" >       87 </v>
   <v type="int" >       88 </v>
   <v type="int" >       89 </v>
   <v type="int" >       90 </v>
   <v type="int" >       91 </v>
   <v type="int" >       92 </v>
   <v type="int" >       93 </v>
   <v type="int" >       94 </v>
   <v type="int" >       95 </v>
   <v type="int" >       96 </v>
   <v type="int" >       97 </v>
   <v type="int" >       98 </v>
   <v type="int" >       99 </v>
   <v type="int" >      100 </v>
   <v type="int" >      101 </v>
   <v type="int" >      102 </v>
   <v type="int" >      103 </v>
   <v type="int" >      104 </v>
   <v type="int" >      105 </v>
   <v type="int" >      106 </v>
   <v type="int" >      107 </v>
   <v type="int" >      108 </v>
   <v type="int" >      109 </v>
   <v type="int" >      110 </v>
   <v type="int" >      111 </v>
   <v type="int" >      112 </v>
   <v type="int" >      113 </v>
   <v type="int" >      114 </v>
   <v type="int" >      115 </v>
   <v type="int" >      116 </v>
   <v type="int" >      117 </v>
   <v type="int" >      118 </v>
   <v type="int" >      119 </v>
  </varray>
 </primitive_cell>
 <kpoints>
  <generation param="Gamma">
   <v type="int" name="divisions">       2        2        2 </v>
   <v name="usershift">      0.00000000       0.00000000       0.00000000 </v>
   <v name="genvec1">      0.50000000       0.00000000       0.00000000 </v>
   <v name="genvec2">      0.00000000       0.50000000       0.00000000 </v>
   <v name="genvec3">      0.00000000       0.00000000       0.50000000 </v>
   <v name="shift">      0.00000000       0.00000000       0.00000000 </v>
  </generation>
  <varray name="kpointlist" >
   <v>       0.00000000       0.00000000       0.00000000 </v>
   <v>       0.50000000       0.00000000       0.00000000 </v>
   <v>       0.00000000       0.50000000       0.00000000 </v>
   <v>       0.50000000       0.50000000       0.00000000 </v>
   <v>       0.00000000       0.00000000       0.50000000 </v>
   <v>       0.50000000       0.00000000       0.50000000 </v>
   <v>       0.00000000       0.50000000       0.50000000 </v>
   <v>       0.50000000       0.50000000       0.50000000 </v>
  </varray>
  <varray name="weights" >
   <v>       0.12500000 </v>
   <v>       0.12500000 </v>
   <v>       0.12500000 </v>
   <v>       0.12500000 </v>
   <v>       0.12500000 </v>
   <v>       0.12500000 </v>
   <v>       0.12500000 </v>
   <v>       0.12500000 </v>
  </varray>
 </kpoints>
 <parameters>
  <separator name="general" >
   <i type="string" name="SYSTEM">unknown system</i>
   <i type="logical" name="LCOMPAT"> F  </i>
  </separator>
  <separator name="electronic" >
   <i type="string" name="PREC">normal</i>
   <i name="ENMAX">    450.00000000</i>
   <i name="ENAUG">    605.39200000</i>
   <i name="EDIFF">      0.00001000</i>
   <i type="int" name="IALGO">    58</i>
   <i type="int" name="IWAVPR">    10</i>
   <i type="int" name="NBANDS">   625</i>
   <i type="int" name="NBANDSLOW">    -1</i>
   <i type="int" name="NBANDSHIGH">    -1</i>
   <i name="NELECT">   1042.00000000</i>
   <i type="int" name="TURBO">     0</i>
   <i type="int" name="IRESTART">     0</i>
   <i type="int" name="NREBOOT">     0</i>
   <i type="int" name="NMIN">     0</i>
   <i name="EREF">      0.00000000</i>
   <separator name="electronic smearing" >
    <i type="int" name="ISMEAR">     0</i>
    <i name="SIGMA">      0.05000000</i>
    <i name="KSPACING">      0.50000000</i>
    <i type="logical" name="KGAMMA"> T  </i>
    <i type="logical" name="KBLOWUP"> T  </i>
   </separator>
   <separator name="electronic projectors" >
    <i type="logical" name="LREAL"> T  </i>
    <v name="ROPT">     -0.00050000     -0.00050000     -0.00050000</v>
    <i type="int" name="LMAXPAW">  -100</i>
    <i type="int" name="LMAXMIX">     2</i>
    <i type="logical" name="NLSPLINE"> F  </i>
   </separator>
   <separator name="electronic startup" >
    <i type="int" name="ISTART">     0</i>
    <i type="int" name="ICHARG">     0</i>
    <i type="int" name="INIWAV">     1</i>
   </separator>
   <separator name="electronic spin" >
    <i type="int" name="ISPIN">     1</i>
    <i type="logical" name="LNONCOLLINEAR"> F  </i>
    <v name="MAGMOM">      1.00000000      1.00000000      1.00000000      1.00000000      1.00000000      1.00000000      1.00000000      1.00000000      1.00000000      1.00000000      1.00000000      1.00000000      1.00000000      1.00000000      1.00000000      1.00000000      1.00000000      1.00000000      1.00000000      1.00000000
      1.00000000      1.00000000      1.00000000      1.00000000      1.00000000      1.00000000      1.00000000      1.00000000      1.00000000      1.00000000      1.00000000      1.00000000      1.00000000      1.00000000      1.00000000      1.00000000      1.00000000      1.00000000      1.00000000      1.00000000
      1.00000000      1.00000000      1.00000000      1.00000000      1.00000000      1.00000000      1.00000000      1.00000000      1.00000000      1.00000000      1.00000000      1.00000000      1.00000000      1.00000000      1.00000000      1.00000000      1.00000000      1.00000000      1.00000000      1.00000000
      1.00000000      1.00000000      1.00000000      1.00000000      1.00000000      1.00000000      1.00000000      1.00000000      1.00000000      1.00000000      1.00000000      1.00000000      1.00000000      1.00000000      1.00000000      1.00000000      1.00000000      1.00000000      1.00000000      1.00000000
      1.00000000      1.00000000      1.00000000      1.00000000      1.00000000      1.00000000      1.00000000      1.00000000      1.00000000      1.00000000      1.00000000      1.00000000      1.00000000      1.00000000      1.00000000      1.00000000      1.00000000      1.00000000      1.00000000      1.00000000
      1.00000000      1.00000000      1.00000000      1.00000000      1.00000000      1.00000000      1.00000000      1.00000000      1.00000000      1.00000000      1.00000000      1.00000000      1.00000000      1.00000000      1.00000000      1.00000000      1.00000000      1.00000000      1.00000000</v>
    <i name="NUPDOWN">     -1.00000000</i>
    <i type="logical" name="LSORBIT"> F  </i>
    <v name="SAXIS">      0.00000000      0.00000000      1.00000000</v>
    <i type="logical" name="LSPIRAL"> F  </i>
    <v name="QSPIRAL">      0.00000000      0.00000000      0.00000000</v>
    <i type="logical" name="LZEROZ"> F  </i>
   </separator>
   <separator name="electronic exchange-correlation" >
    <i type="logical" name="LASPH"> F  </i>
    <i type="logical" name="LMETAGGA"> F  </i>
   </separator>
   <separator name="electronic convergence" >
    <i type="int" name="NELM">   500</i>
    <i type="int" name="NELMDL">    -5</i>
    <i type="int" name="NELMIN">     2</i>
    <i name="ENINI">    450.00000000</i>
    <separator name="electronic convergence detail" >
     <i type="logical" name="LDIAG"> T  </i>
     <i type="logical" name="LSUBROT"> F  </i>
     <i name="WEIMIN">      0.00000000</i>
     <i name="EBREAK">      0.00000000</i>
     <i name="DEPER">      0.30000000</i>
     <i type="int" name="NRMM">     4</i>
     <i name="TIME">      0.40000000</i>
    </separator>
   </separator>
   <separator name="electronic mixer" >
    <i name="AMIX">      0.40000000</i>
    <i name="BMIX">      1.00000000</i>
    <i name="AMIN">      0.10000000</i>
    <i name="AMIX_MAG">      1.60000000</i>
    <i name="BMIX_MAG">      1.00000000</i>
    <separator name="electronic mixer details" >
     <i type="int" name="IMIX">     4</i>
     <i type="logical" name="MIXFIRST"> F  </i>
     <i type="int" name="MAXMIX">   -45</i>
     <i name="WC">    100.00000000</i>
     <i type="int" name="INIMIX">     1</i>
     <i type="int" name="MIXPRE">     1</i>
     <i type="int" name="MREMOVE">     5</i>
    </separator>
   </separator>
   <separator name="electronic dipolcorrection" >
    <i type="logical" name="LDIPOL"> F  </i>
    <i type="logical" name="LMONO"> F  </i>
    <i type="int" name="IDIPOL">     0</i>
    <i name="EPSILON">      1.00000000</i>
    <v name="DIPOL">   -100.00000000   -100.00000000   -100.00000000</v>
    <i name="EFIELD">      0.00000000</i>
   </separator>
  </separator>
  <separator name="grids" >
   <i type="int" name="NGX">    64</i>
   <i type="int" name="NGY">    48</i>
   <i type="int" name="NGZ">    60</i>
   <i type="int" name="NGXF">   128</i>
   <i type="int" name="NGYF">    96</i>
   <i type="int" name="NGZF">   120</i>
   <i type="logical" name="ADDGRID"> F  </i>
  </separator>
  <separator name="ionic" >
   <i type="int" name="NSW">     0</i>
   <i type="int" name="IBRION">    -1</i>
   <i type="int" name="MDALGO">     0</i>
   <i type="int" name="ISIF">     2</i>
   <i name="PSTRESS">      0.00000000</i>
   <i name="EDIFFG">     -0.00500000</i>
   <i type="int" name="NFREE">     0</i>
   <i name="POTIM">      0.50000000</i>
   <i name="SMASS">     -3.00000000</i>
   <i name="SCALEE">      1.00000000</i>
  </separator>
  <separator name="ionic md" >
   <i name="TEBEG">      0.00010000</i>
   <i name="TEEND">      0.00010000</i>
   <i type="int" name="NBLOCK">     1</i>
   <i type="int" name="KBLOCK">     1</i>
   <i type="int" name="NPACO">   256</i>
   <i name="APACO">     10.00000000</i>
  </separator>
  <separator name="symmetry" >
   <i type="int" name="ISYM">     3</i>
   <i name="SYMPREC">      0.00001000</i>
  </separator>
  <separator name="dos" >
   <i type="int" name="LORBIT">     0</i>
   <v name="RWIGS">     -1.00000000     -1.00000000     -1.00000000</v>
   <i type="int" name="NEDOS">   301</i>
   <i name="EMIN">     10.00000000</i>
   <i name="EMAX">    -10.00000000</i>
   <i name="EFERMI">      0.00000000</i>
  </separator>
  <separator name="writing" >
   <i type="int" name="NWRITE">     2</i>
   <i type="logical" name="LWAVE"> T  </i>
   <i type="logical" name="LDOWNSAMPLE"> F  </i>
   <i type="logical" name="LCHARG"> T  </i>
   <i type="logical" name="LPARD"> F  </i>
   <i type="logical" name="LVTOT"> F  </i>
   <i type="logical" name="LVHAR"> F  </i>
   <i type="logical" name="LELF"> F  </i>
   <i type="logical" name="LOPTICS"> F  </i>
   <v name="STM">      0.00000000      0.00000000      0.00000000      0.00000000      0.00000000      0.00000000      0.00000000</v>
  </separator>
  <separator name="performance" >
   <i type="int" name="NPAR">     1</i>
   <i type="int" name="NSIM">     4</i>
   <i type="int" name="NBLK">    -1</i>
   <i type="logical" name="LPLANE"> T  </i>
   <i type="logical" name="LSCALAPACK"> T  </i>
   <i type="logical" name="LSCAAWARE"> F  </i>
   <i type="logical" name="LSCALU"> F  </i>
   <i type="logical" name="LASYNC"> F  </i>
   <i type="logical" name="LORBITALREAL"> F  </i>
  </separator>
  <separator name="miscellaneous" >
   <i type="int" name="IDIOT">     3</i>
   <i type="int" name="PHON_NSTRUCT">    -1</i>
   <i type="logical" name="LMUSIC"> F  </i>
   <v name="POMASS">     69.72300000     16.00000000     30.97400000</v>
   <v name="DARWINR">      0.00000000      0.00000000      0.00000000</v>
   <v name="DARWINV">      1.00000000      1.00000000      1.00000000</v>
   <i type="logical" name="LCORR"> T  </i>
  </separator>
  <i type="logical" name="GGA_COMPAT"> T  </i>
  <i type="logical" name="LBERRY"> F  </i>
  <i type="int" name="ICORELEVEL">     0</i>
  <i type="logical" name="LDAU"> F  </i>
  <i type="int" name="I_CONSTRAINED_M">     0</i>
  <separator name="electronic exchange-correlation" >
   <i type="string" name="GGA">--</i>
   <i type="int" name="VOSKOWN">     0</i>
   <i type="logical" name="LHFCALC"> T  </i>
   <i type="string" name="PRECFOCK">fast</i>
   <i type="logical" name="LSYMGRAD"> F  </i>
   <i type="logical" name="LHFONE"> F  </i>
   <i type="logical" name="LRHFCALC"> F  </i>
   <i type="logical" name="LTHOMAS"> F  </i>
   <i type="logical" name="LMODELHF"> F  </i>
   <i type="logical" name="LFOCKACE"> T  </i>
   <i name="ENCUT4O">     -1.00000000</i>
   <i type="int" name="EXXOEP">     0</i>
   <i type="int" name="FOURORBIT">     0</i>
   <i name="AEXX">      0.32000000</i>
   <i name="HFALPHA">     -1.00000000</i>
   <i name="MCALPHA">      0.00000000</i>
   <i name="ALDAX">      0.68000000</i>
   <i name="AGGAX">      0.68000000</i>
   <i name="ALDAC">      1.00000000</i>
   <i name="AGGAC">      1.00000000</i>
   <i type="int" name="NKREDX">     1</i>
   <i type="int" name="NKREDY">     1</i>
   <i type="int" name="NKREDZ">     1</i>
   <i type="logical" name="SHIFTRED"> F  </i>
   <i type="logical" name="ODDONLY"> F  </i>
   <i type="logical" name="EVENONLY"> F  </i>
   <i type="int" name="LMAXFOCK">     4</i>
   <i type="int" name="NMAXFOCKAE">     1</i>
   <i type="logical" name="LFOCKAEDFT"> F  </i>
   <i name="HFSCREEN">      0.20000000</i>
   <i name="HFSCREENC">      0.20000000</i>
   <i type="int" name="NBANDSGWLOW">     1</i>
  </separator>
  <separator name="vdW DFT" >
   <i type="logical" name="LUSE_VDW"> F  </i>
   <i type="int" name="IVDW_NL">     1</i>
   <i type="logical" name="LSPIN_VDW"> F  </i>
   <i name="Zab_VDW">     -0.84910000</i>
   <i name="PARAM1">      0.12340000</i>
   <i name="PARAM2">      1.00000000</i>
   <i name="PARAM3">      0.00000000</i>
  </separator>
  <separator name="model GW" >
   <i type="int" name="MODEL_GW">     0</i>
   <i name="MODEL_EPS0">      6.39733692</i>
   <i name="MODEL_ALPHA">      1.00000000</i>
  </separator>
  <separator name="linear response parameters" >
   <i type="logical" name="LEPSILON"> F  </i>
   <i type="logical" name="LRPA"> F  </i>
   <i type="logical" name="LNABLA"> F  </i>
   <i type="logical" name="LVEL"> F  </i>
   <i name="CSHIFT">      0.10000000</i>
   <i name="OMEGAMAX">     -1.00000000</i>
   <i name="DEG_THRESHOLD">      0.00200000</i>
   <i name="RTIME">     -0.10000000</i>
   <i name="WPLASMAI">      0.00000000</i>
   <v name="DFIELD">      0.00000000      0.00000000      0.00000000</v>
   <v name="WPLASMA">      0.00000000      0.00000000      0.00000000      0.00000000      0.00000000      0.00000000      0.00000000      0.00000000      0.00000000</v>
  </separator>
  <separator name="orbital magnetization" >
   <i type="logical" name="NUCIND"> F  </i>
   <v name="MAGPOS">      0.00000000      0.00000000      0.00000000</v>
   <i type="logical" name="LNICSALL"> T  </i>
   <i type="logical" name="ORBITALMAG"> F  </i>
   <i type="logical" name="LMAGBLOCH"> F  </i>
   <i type="logical" name="LCHIMAG"> F  </i>
   <i type="logical" name="LGAUGE"> T  </i>
   <i type="int" name="MAGATOM">     0</i>
   <v name="MAGDIPOL">      0.00000000      0.00000000      0.00000000</v>
   <v name="AVECCONST">      0.00000000      0.00000000      0.00000000</v>
  </separator>
  <separator name="response functions" >
   <i type="logical" name="LALL_IN_ONE"> F  </i>
   <i type="int" name="IALL_IN_ONE">    -1</i>
   <i type="int" name="NBANDS_WAVE">    -1</i>
   <i type="logical" name="LFINITE_TEMPERATURE"> F  </i>
   <i type="logical" name="LADDER"> F  </i>
   <i type="logical" name="LRPAFORCE"> F  </i>
   <i type="logical" name="LFXC"> F  </i>
   <i type="logical" name="LHARTREE"> T  </i>
   <i type="int" name="IBSE">     0</i>
   <v type="int" name="KPOINT">    -1     0     0     0</v>
   <i type="logical" name="LTCTC"> F  </i>
   <i type="logical" name="LTCTE"> F  </i>
   <i type="logical" name="LTETE"> F  </i>
   <i type="logical" name="LTRIPLET"> F  </i>
   <i type="logical" name="LFXCEPS"> F  </i>
   <i type="logical" name="LFXHEG"> F  </i>
   <i type="int" name="NATURALO">     2</i>
   <i type="logical" name="LHOLEGF"> F  </i>
   <i type="logical" name="L2ORDER"> F  </i>
   <i type="logical" name="LDMP1"> F  </i>
   <i type="logical" name="LMP2LT"> F  </i>
   <i type="logical" name="LSMP2LT"> F  </i>
   <i type="logical" name="LGWLF"> F  </i>
   <i name="ENCUTGW">     -1.60000002</i>
   <i name="ENCUTGWSOFT">     -1.60000002</i>
   <i name="ENCUTLF">     -1.00000000</i>
   <i type="logical" name="LESF_SPLINES"> F  </i>
   <i type="int" name="LMAXMP2">    -1</i>
   <i name="SCISSOR">      0.00000000</i>
   <i type="int" name="NOMEGA">     0</i>
   <i type="int" name="NOMEGAR">     0</i>
   <i type="int" name="NBANDSGW">    -1</i>
   <i type="int" name="NBANDSO">    -1</i>
   <i type="int" name="NBANDSV">    -1</i>
   <i type="int" name="NELMGW">     1</i>
   <i type="int" name="NELMHF">     1</i>
   <i type="int" name="DIM">     3</i>
   <i type="int" name="IESPILON">     4</i>
   <i type="int" name="ANTIRES">     0</i>
   <i name="OMEGAMAX">    -30.00000000</i>
   <i name="OMEGAMIN">    -30.00000000</i>
   <i name="OMEGATL">   -200.00000000</i>
   <i type="int" name="OMEGAGRID">     0</i>
   <i name="CSHIFT">     -0.10000000</i>
   <i type="logical" name="LSELFENERGY"> F  </i>
   <i type="logical" name="LSPECTRAL"> F  </i>
   <i type="logical" name="LSPECTRALGW"> F  </i>
   <i type="logical" name="LSINGLES"> F  </i>
   <i type="logical" name="LFERMIGW"> F  </i>
   <i type="logical" name="ODDONLYGW"> F  </i>
   <i type="logical" name="EVENONLYGW"> F  </i>
   <i type="int" name="NKREDLFX">     1</i>
   <i type="int" name="NKREDLFY">     1</i>
   <i type="int" name="NKREDLFZ">     1</i>
   <i type="int" name="MAXMEM">  2800</i>
   <i type="int" name="TELESCOPE">     0</i>
   <i type="int" name="NTAUPAR">    -1</i>
   <i type="int" name="NOMEGAPAR">    -1</i>
   <i name="DAMP_NEWTON">      0.80000001</i>
   <i name="LAMBDA">      1.00000000</i>
  </separator>
  <separator name="External order field" >
   <i name="OFIELD_KAPPA">      0.00000000</i>
   <v name="OFIELD_K">      0.00000000      0.00000000      0.00000000</v>
   <i name="OFIELD_Q6_NEAR">      0.00000000</i>
   <i name="OFIELD_Q6_FAR">      0.00000000</i>
   <i name="OFIELD_A">      0.00000000</i>
  </separator>
  <separator name="optional k-points parameters" >
   <i type="int" name="KPOINTS_OPT_MODE">     1</i>
   <i type="logical" name="LKPOINTS_OPT"> F  </i>
  </separator>
 </parameters>
 <atominfo>
  <atoms>     119 </atoms>
  <types>       3 </types>
  <array name="atoms" >
   <dimension dim="1">ion</dimension>
   <field type="string">element</field>
   <field type="int">atomtype</field>
   <set>
    <rc><c>Ga</c><c>   1</c></rc>
    <rc><c>Ga</c><c>   1</c></rc>
    <rc><c>Ga</c><c>   1</c></rc>
    <rc><c>Ga</c><c>   1</c></rc>
    <rc><c>Ga</c><c>   1</c></rc>
    <rc><c>Ga</c><c>   1</c></rc>
    <rc><c>Ga</c><c>   1</c></rc>
    <rc><c>Ga</c><c>   1</c></rc>
    <rc><c>Ga</c><c>   1</c></rc>
    <rc><c>Ga</c><c>   1</c></rc>
    <rc><c>Ga</c><c>   1</c></rc>
    <rc><c>Ga</c><c>   1</c></rc>
    <rc><c>Ga</c><c>   1</c></rc>
    <rc><c>Ga</c><c>   1</c></rc>
    <rc><c>Ga</c><c>   1</c></rc>
    <rc><c>Ga</c><c>   1</c></rc>
    <rc><c>Ga</c><c>   1</c></rc>
    <rc><c>Ga</c><c>   1</c></rc>
    <rc><c>Ga</c><c>   1</c></rc>
    <rc><c>Ga</c><c>   1</c></rc>
    <rc><c>Ga</c><c>   1</c></rc>
    <rc><c>Ga</c><c>   1</c></rc>
    <rc><c>Ga</c><c>   1</c></rc>
    <rc><c>Ga</c><c>   1</c></rc>
    <rc><c>Ga</c><c>   1</c></rc>
    <rc><c>Ga</c><c>   1</c></rc>
    <rc><c>Ga</c><c>   1</c></rc>
    <rc><c>Ga</c><c>   1</c></rc>
    <rc><c>Ga</c><c>   1</c></rc>
    <rc><c>Ga</c><c>   1</c></rc>
    <rc><c>Ga</c><c>   1</c></rc>
    <rc><c>Ga</c><c>   1</c></rc>
    <rc><c>Ga</c><c>   1</c></rc>
    <rc><c>Ga</c><c>   1</c></rc>
    <rc><c>Ga</c><c>   1</c></rc>
    <rc><c>Ga</c><c>   1</c></rc>
    <rc><c>Ga</c><c>   1</c></rc>
    <rc><c>Ga</c><c>   1</c></rc>
    <rc><c>Ga</c><c>   1</c></rc>
    <rc><c>Ga</c><c>   1</c></rc>
    <rc><c>Ga</c><c>   1</c></rc>
    <rc><c>Ga</c><c>   1</c></rc>
    <rc><c>Ga</c><c>   1</c></rc>
    <rc><c>Ga</c><c>   1</c></rc>
    <rc><c>Ga</c><c>   1</c></rc>
    <rc><c>Ga</c><c>   1</c></rc>
    <rc><c>Ga</c><c>   1</c></rc>
    <rc><c>O </c><c>   2</c></rc>
    <rc><c>O </c><c>   2</c></rc>
    <rc><c>O </c><c>   2</c></rc>
    <rc><c>O </c><c>   2</c></rc>
    <rc><c>O </c><c>   2</c></rc>
    <rc><c>O </c><c>   2</c></rc>
    <rc><c>O </c><c>   2</c></rc>
    <rc><c>O </c><c>   2</c></rc>
    <rc><c>O </c><c>   2</c></rc>
    <rc><c>O </c><c>   2</c></rc>
    <rc><c>O </c><c>   2</c></rc>
    <rc><c>O </c><c>   2</c></rc>
    <rc><c>O </c><c>   2</c></rc>
    <rc><c>O </c><c>   2</c></rc>
    <rc><c>O </c><c>   2</c></rc>
    <rc><c>O </c><c>   2</c></rc>
    <rc><c>O </c><c>   2</c></rc>
    <rc><c>O </c><c>   2</c></rc>
    <rc><c>O </c><c>   2</c></rc>
    <rc><c>O </c><c>   2</c></rc>
    <rc><c>O </c><c>   2</c></rc>
    <rc><c>O </c><c>   2</c></rc>
    <rc><c>O </c><c>   2</c></rc>
    <rc><c>O </c><c>   2</c></rc>
    <rc><c>O </c><c>   2</c></rc>
    <rc><c>O </c><c>   2</c></rc>
    <rc><c>O </c><c>   2</c></rc>
    <rc><c>O </c><c>   2</c></rc>
    <rc><c>O </c><c>   2</c></rc>
    <rc><c>O </c><c>   2</c></rc>
    <rc><c>O </c><c>   2</c></rc>
    <rc><c>O </c><c>   2</c></rc>
    <rc><c>O </c><c>   2</c></rc>
    <rc><c>O </c><c>   2</c></rc>
    <rc><c>O </c><c>   2</c></rc>
    <rc><c>O </c><c>   2</c></rc>
    <rc><c>O </c><c>   2</c></rc>
    <rc><c>O </c><c>   2</c></rc>
    <rc><c>O </c><c>   2</c></rc>
    <rc><c>O </c><c>   2</c></rc>
    <rc><c>O </c><c>   2</c></rc>
    <rc><c>O </c><c>   2</c></rc>
    <rc><c>O </c><c>   2</c></rc>
    <rc><c>O </c><c>   2</c></rc>
    <rc><c>O </c><c>   2</c></rc>
    <rc><c>O </c><c>   2</c></rc>
    <rc><c>O </c><c>   2</c></rc>
    <rc><c>O </c><c>   2</c></rc>
    <rc><c>O </c><c>   2</c></rc>
    <rc><c>O </c><c>   2</c></rc>
    <rc><c>O </c><c>   2</c></rc>
    <rc><c>O </c><c>   2</c></rc>
    <rc><c>O </c><c>   2</c></rc>
    <rc><c>O </c><c>   2</c></rc>
    <rc><c>O </c><c>   2</c></rc>
    <rc><c>O </c><c>   2</c></rc>
    <rc><c>O </c><c>   2</c></rc>
    <rc><c>O </c><c>   2</c></rc>
    <rc><c>O </c><c>   2</c></rc>
    <rc><c>O </c><c>   2</c></rc>
    <rc><c>O </c><c>   2</c></rc>
    <rc><c>O </c><c>   2</c></rc>
    <rc><c>O </c><c>   2</c></rc>
    <rc><c>O </c><c>   2</c></rc>
    <rc><c>O </c><c>   2</c></rc>
    <rc><c>O </c><c>   2</c></rc>
    <rc><c>O </c><c>   2</c></rc>
    <rc><c>O </c><c>   2</c></rc>
    <rc><c>O </c><c>   2</c></rc>
    <rc><c>O </c><c>   2</c></rc>
    <rc><c>O </c><c>   2</c></rc>
    <rc><c>P </c><c>   3</c></rc>
   </set>
  </array>
  <array name="atomtypes" >
   <dimension dim="1">type</dimension>
   <field type="int">atomspertype</field>
   <field type="string">element</field>
   <field>mass</field>
   <field>valence</field>
   <field type="string">pseudopotential</field>
   <set>
    <rc><c>  47</c><c>Ga</c><c>     69.72300000</c><c>     13.00000000</c><c>  PAW_PBE Ga_d 06Jul2010                </c></rc>
    <rc><c>  71</c><c>O </c><c>     16.00000000</c><c>      6.00000000</c><c>   PAW_PBE O 08Apr2002                  </c></rc>
    <rc><c>   1</c><c>P </c><c>     30.97400000</c><c>      5.00000000</c><c>  PAW_PBE P 06Sep2000                   </c></rc>
   </set>
  </array>
 </atominfo>
 <structure name="initialpos" >
  <crystal>
   <varray name="basis" >
    <v>       0.00000000      12.28047342       0.00000000 </v>
    <v>       9.14270205       0.00000000       0.00000000 </v>
    <v>       0.00000000      -2.76826177     -11.30069772 </v>
   </varray>
   <i name="volume">   1268.80515525 </i>
   <varray name="rec_basis" >
    <v>       0.00000000       0.08143009      -0.01994742 </v>
    <v>       0.10937686      -0.00000000       0.00000000 </v>
    <v>       0.00000000       0.00000000      -0.08849011 </v>
   </varray>
  </crystal>
  <varray name="positions" >
   <v>       0.66034400       0.99894297       0.15879501 </v>
   <v>       0.65868450       0.99848318       0.65585433 </v>
   <v>       0.66078668       0.33114162       0.15883978 </v>
   <v>       0.65789788       0.33218000       0.65627947 </v>
   <v>       0.66091696       0.66597312       0.15837748 </v>
   <v>       0.65826366       0.66486602       0.65771060 </v>
   <v>       0.84896102       0.16268191       0.34462140 </v>
   <v>       0.83745788       0.16499296       0.84068190 </v>
   <v>       0.84142735       0.49837046       0.34564271 </v>
   <v>       0.84054264       0.49916101       0.84264926 </v>
   <v>       0.84517952       0.83174891       0.34576620 </v>
   <v>       0.83963370       0.83054547       0.84191523 </v>
   <v>       0.59327103       0.16692771       0.39731735 </v>
   <v>       0.59066791       0.16480661       0.89870803 </v>
   <v>       0.59047111       0.49916509       0.39821552 </v>
   <v>       0.59138519       0.49846394       0.89949752 </v>
   <v>       0.59426269       0.83233464       0.39870271 </v>
   <v>       0.59136545       0.83128710       0.89931686 </v>
   <v>       0.90219882       0.99606719       0.09883072 </v>
   <v>       0.91001211       0.99778945       0.60084049 </v>
   <v>       0.90393798       0.33758455       0.09946537 </v>
   <v>       0.90939537       0.33079415       0.60297725 </v>
   <v>       0.90866706       0.66573554       0.10279565 </v>
   <v>       0.90982048       0.66466945       0.60418350 </v>
   <v>       0.15956328       0.16127759       0.65134504 </v>
   <v>       0.15905582       0.50295447       0.16862926 </v>
   <v>       0.15926645       0.49740618       0.66046899 </v>
   <v>       0.15667563       0.83471511       0.17326306 </v>
   <v>       0.15929651       0.83320619       0.65362968 </v>
   <v>       0.34515772       0.00320035       0.34414744 </v>
   <v>       0.34078116       0.99866251       0.84539282 </v>
   <v>       0.33945369       0.33093575       0.34253356 </v>
   <v>       0.34081128       0.33049490       0.84603497 </v>
   <v>       0.34329147       0.66538383       0.34837117 </v>
   <v>       0.33954237       0.66491590       0.84562334 </v>
   <v>       0.11444562       0.99003585       0.37783348 </v>
   <v>       0.08553540       0.99799770       0.88992432 </v>
   <v>       0.09074541       0.32923411       0.39971739 </v>
   <v>       0.08776504       0.32831031       0.89441804 </v>
   <v>       0.08804960       0.66490397       0.40262300 </v>
   <v>       0.09393998       0.66461884       0.90380243 </v>
   <v>       0.41211114       0.16571632       0.10697501 </v>
   <v>       0.40826935       0.16511396       0.60360422 </v>
   <v>       0.41118589       0.50005889       0.10397394 </v>
   <v>       0.40974229       0.49855259       0.60602611 </v>
   <v>       0.40885285       0.83299917       0.10414875 </v>
   <v>       0.40953111       0.83258494       0.60508880 </v>
   <v>       0.99133965       0.16624986       0.10799038 </v>
   <v>       0.99699879       0.16458380       0.62619711 </v>
   <v>       0.99639523       0.49877355       0.12758612 </v>
   <v>       0.99655951       0.49756650       0.63201362 </v>
   <v>       0.99458742       0.83465245       0.12698815 </v>
   <v>       0.99698514       0.83111674       0.63131858 </v>
   <v>       0.50743376       0.99874170       0.37573253 </v>
   <v>       0.50341922       0.99771378       0.87473956 </v>
   <v>       0.50445799       0.33242223       0.37456770 </v>
   <v>       0.50350205       0.33192187       0.87520682 </v>
   <v>       0.50480199       0.66740915       0.37053897 </v>
   <v>       0.50277980       0.66488777       0.87682282 </v>
   <v>       0.67529583       0.16578852       0.28094743 </v>
   <v>       0.67123509       0.16480865       0.78033812 </v>
   <v>       0.67409998       0.49826921       0.28218187 </v>
   <v>       0.67162501       0.49876719       0.78116996 </v>
   <v>       0.67560417       0.83188947       0.28160810 </v>
   <v>       0.67172018       0.83095862       0.78106306 </v>
   <v>       0.82862370       0.99988384       0.21963453 </v>
   <v>       0.82723648       0.99713167       0.71830311 </v>
   <v>       0.82971509       0.33053179       0.22011458 </v>
   <v>       0.82670567       0.33285616       0.71917881 </v>
   <v>       0.82894576       0.66465807       0.22087267 </v>
   <v>       0.82769450       0.66411270       0.72095615 </v>
   <v>       0.83130710       0.99882314       0.44555312 </v>
   <v>       0.82910137       0.99768241       0.94284022 </v>
   <v>       0.83536934       0.32887084       0.44577647 </v>
   <v>       0.82947627       0.33273030       0.94354808 </v>
   <v>       0.83243224       0.66503073       0.44799451 </v>
   <v>       0.83216764       0.66496530       0.94636915 </v>
   <v>       0.66961310       0.16506877       0.05471002 </v>
   <v>       0.66845653       0.16599563       0.55484611 </v>
   <v>       0.66991859       0.49867213       0.05593683 </v>
   <v>       0.66750512       0.49925064       0.55486405 </v>
   <v>       0.67069825       0.83229261       0.05533130 </v>
   <v>       0.66859896       0.83075694       0.55575422 </v>
   <v>       0.49841583       0.99733127       0.12778359 </v>
   <v>       0.49660980       0.99939404       0.62898198 </v>
   <v>       0.49859012       0.33368079       0.12742979 </v>
   <v>       0.49622323       0.33104627       0.63008034 </v>
   <v>       0.49748049       0.66749517       0.12824667 </v>
   <v>       0.49662525       0.66576739       0.63068437 </v>
   <v>       0.01143639       0.15707498       0.36466716 </v>
   <v>       0.99882775       0.16419903       0.86603068 </v>
   <v>       0.00227029       0.49710411       0.37642969 </v>
   <v>       0.00545935       0.49753143       0.87963026 </v>
   <v>       0.00514243       0.83355788       0.37572443 </v>
   <v>       0.00342344       0.82960075       0.87657929 </v>
   <v>       0.17279665       0.99847300       0.78045808 </v>
   <v>       0.17637667       0.35790324       0.29172052 </v>
   <v>       0.17318047       0.32970387       0.78325692 </v>
   <v>       0.17420181       0.66722785       0.28847066 </v>
   <v>       0.17233816       0.66452003       0.78405462 </v>
   <v>       0.33832657       0.16480953       0.22774945 </v>
   <v>       0.32759669       0.16451905       0.72169952 </v>
   <v>       0.32728031       0.50115982       0.21811795 </v>
   <v>       0.32795506       0.49764936       0.72310576 </v>
   <v>       0.32350385       0.84062669       0.21949151 </v>
   <v>       0.32769101       0.83129432       0.72209640 </v>
   <v>       0.32893143       0.16542280       0.44738025 </v>
   <v>       0.33275221       0.16437175       0.95006665 </v>
   <v>       0.33977655       0.49960549       0.44870982 </v>
   <v>       0.32871317       0.49715034       0.94920593 </v>
   <v>       0.33668594       0.83398502       0.44707053 </v>
   <v>       0.32841912       0.83288566       0.94866815 </v>
   <v>       0.15218156       0.01841404       0.05491585 </v>
   <v>       0.16705324       0.99626412       0.55061036 </v>
   <v>       0.15466989       0.30559509       0.05953410 </v>
   <v>       0.16765620       0.33254992       0.55690977 </v>
   <v>       0.16486111       0.66873423       0.06264132 </v>
   <v>       0.16927007       0.66254365       0.55765026 </v>
   <v>       0.13741302       0.16031413       0.14162819 </v>
  </varray>
 </structure>
 <calculation>
  <scstep>
   <time name="total">    3.87    3.87</time>
   <energy>
    <i name="alphaZ">   5376.25786726 </i>
    <i name="ewald"> -86697.10272022 </i>
    <i name="hartreedc">  -2071.99327065 </i>
    <i name="XCdc">   2751.57392285 </i>
    <i name="pawpsdc"> 329105.94833461 </i>
    <i name="pawaedc">-357853.95380750 </i>
    <i name="eentropy">     -0.00764973 </i>
    <i name="bandstr"> -40595.36285138 </i>
    <i name="atom"> 131500.23896116 </i>
    <i name="e_fr_energy"> -18484.40121361 </i>
    <i name="e_wo_entrp"> -18484.39356387 </i>
    <i name="e_0_energy"> -18484.39738874 </i>
   </energy>
  </scstep>
  <scstep>
   <time name="total">    3.08    3.08</time>
   <energy>
    <i name="e_fr_energy"> -63092.09429661 </i>
    <i name="e_wo_entrp"> -63092.07997506 </i>
    <i name="e_0_energy"> -63092.08713584 </i>
   </energy>
  </scstep>
  <scstep>
   <time name="total">    3.32    3.32</time>
   <energy>
    <i name="e_fr_energy"> -68289.03988002 </i>
    <i name="e_wo_entrp"> -68289.00900394 </i>
    <i name="e_0_energy"> -68289.02444198 </i>
   </energy>
  </scstep>
  <scstep>
   <time name="total">    3.78    3.78</time>
   <energy>
    <i name="e_fr_energy"> -69018.12289476 </i>
    <i name="e_wo_entrp"> -69018.09736978 </i>
    <i name="e_0_energy"> -69018.11013227 </i>
   </energy>
  </scstep>
  <scstep>
   <time name="total">  230.09  230.39</time>
   <energy>
    <i name="e_fr_energy"> -39470.25186311 </i>
    <i name="e_wo_entrp"> -39470.25186311 </i>
    <i name="e_0_energy"> -39470.25186311 </i>
   </energy>
  </scstep>
  <scstep>
   <time name="total">  458.75  458.69</time>
   <energy>
    <i name="e_fr_energy">  34481.91426002 </i>
    <i name="e_wo_entrp">  34481.93169726 </i>
    <i name="e_0_energy">  34481.92297864 </i>
   </energy>
  </scstep>
  <scstep>
   <time name="total">  459.43  459.46</time>
   <energy>
    <i name="e_fr_energy">  15590.83762607 </i>
    <i name="e_wo_entrp">  15590.85556309 </i>
    <i name="e_0_energy">  15590.84659458 </i>
   </energy>
  </scstep>
  <scstep>
   <time name="total">  459.31  459.26</time>
   <energy>
    <i name="e_fr_energy">   8371.20257047 </i>
    <i name="e_wo_entrp">   8371.22719427 </i>
    <i name="e_0_energy">   8371.21488237 </i>
   </energy>
  </scstep>
  <scstep>
   <time name="total">  459.36  459.29</time>
   <energy>
    <i name="e_fr_energy">   5835.52463654 </i>
    <i name="e_wo_entrp">   5835.54877432 </i>
    <i name="e_0_energy">   5835.53670543 </i>
   </energy>
  </scstep>
  <scstep>
   <time name="total">  459.58  459.51</time>
   <energy>
    <i name="e_fr_energy">   3426.12610221 </i>
    <i name="e_wo_entrp">   3426.14590492 </i>
    <i name="e_0_energy">   3426.13600356 </i>
   </energy>
  </scstep>
  <scstep>
   <time name="total">  459.14  459.07</time>
   <energy>
    <i name="e_fr_energy">   1806.05214255 </i>
    <i name="e_wo_entrp">   1806.06568078 </i>
    <i name="e_0_energy">   1806.05891166 </i>
   </energy>
  </scstep>
  <scstep>
   <time name="total">  458.67  458.60</time>
   <energy>
    <i name="e_fr_energy">    554.67950738 </i>
    <i name="e_wo_entrp">    554.69256496 </i>
    <i name="e_0_energy">    554.68603617 </i>
   </energy>
  </scstep>
  <scstep>
   <time name="total">  458.81  458.75</time>
   <energy>
    <i name="e_fr_energy">   -144.69886118 </i>
    <i name="e_wo_entrp">   -144.68769977 </i>
    <i name="e_0_energy">   -144.69328047 </i>
   </energy>
  </scstep>
  <scstep>
   <time name="total">  458.92  458.85</time>
   <energy>
    <i name="e_fr_energy">   -542.61305935 </i>
    <i name="e_wo_entrp">   -542.60682046 </i>
    <i name="e_0_energy">   -542.60993990 </i>
   </energy>
  </scstep>
  <scstep>
   <time name="total">  458.48  458.41</time>
   <energy>
    <i name="e_fr_energy">   -730.15744356 </i>
    <i name="e_wo_entrp">   -730.14730739 </i>
    <i name="e_0_energy">   -730.15237547 </i>
   </energy>
  </scstep>
  <scstep>
   <time name="total">  458.66  458.59</time>
   <energy>
    <i name="e_fr_energy">   -792.52975714 </i>
    <i name="e_wo_entrp">   -792.52270352 </i>
    <i name="e_0_energy">   -792.52623033 </i>
   </energy>
  </scstep>
  <scstep>
   <time name="total">  458.38  458.32</time>
   <energy>
    <i name="e_fr_energy">   -839.55647659 </i>
    <i name="e_wo_entrp">   -839.55647658 </i>
    <i name="e_0_energy">   -839.55647659 </i>
   </energy>
  </scstep>
  <scstep>
   <time name="total">  458.49  458.44</time>
   <energy>
    <i name="e_fr_energy">   -873.51618389 </i>
    <i name="e_wo_entrp">   -873.51618389 </i>
    <i name="e_0_energy">   -873.51618389 </i>
   </energy>
  </scstep>
  <scstep>
   <time name="total">  458.21  458.14</time>
   <energy>
    <i name="e_fr_energy">   -897.66774923 </i>
    <i name="e_wo_entrp">   -897.66774923 </i>
    <i name="e_0_energy">   -897.66774923 </i>
   </energy>
  </scstep>
  <scstep>
   <time name="total">  458.30  458.23</time>
   <energy>
    <i name="e_fr_energy">   -915.39233401 </i>
    <i name="e_wo_entrp">   -915.39233401 </i>
    <i name="e_0_energy">   -915.39233401 </i>
   </energy>
  </scstep>
  <scstep>
   <time name="total">  458.20  458.14</time>
   <energy>
    <i name="e_fr_energy">   -926.56780223 </i>
    <i name="e_wo_entrp">   -926.56780223 </i>
    <i name="e_0_energy">   -926.56780223 </i>
   </energy>
  </scstep>
  <scstep>
   <time name="total">  458.29  458.22</time>
   <energy>
    <i name="e_fr_energy">   -934.04182435 </i>
    <i name="e_wo_entrp">   -934.04182435 </i>
    <i name="e_0_energy">   -934.04182435 </i>
   </energy>
  </scstep>
  <scstep>
   <time name="total">  458.14  458.08</time>
   <energy>
    <i name="e_fr_energy">   -938.66397576 </i>
    <i name="e_wo_entrp">   -938.66397576 </i>
    <i name="e_0_energy">   -938.66397576 </i>
   </energy>
  </scstep>
  <scstep>
   <time name="total">  458.40  458.33</time>
   <energy>
    <i name="e_fr_energy">   -941.27368976 </i>
    <i name="e_wo_entrp">   -941.27368976 </i>
    <i name="e_0_energy">   -941.27368976 </i>
   </energy>
  </scstep>
  <scstep>
   <time name="total">  458.44  458.38</time>
   <energy>
    <i name="e_fr_energy">   -943.08114257 </i>
    <i name="e_wo_entrp">   -943.08114257 </i>
    <i name="e_0_energy">   -943.08114257 </i>
   </energy>
  </scstep>
  <scstep>
   <time name="total">  458.11  458.04</time>
   <energy>
    <i name="e_fr_energy">   -944.19407988 </i>
    <i name="e_wo_entrp">   -944.19407988 </i>
    <i name="e_0_energy">   -944.19407988 </i>
   </energy>
  </scstep>
  <scstep>
   <time name="total">  458.12  458.05</time>
   <energy>
    <i name="e_fr_energy">   -944.87773755 </i>
    <i name="e_wo_entrp">   -944.87773755 </i>
    <i name="e_0_energy">   -944.87773755 </i>
   </energy>
  </scstep>
  <scstep>
   <time name="total">  458.24  458.18</time>
   <energy>
    <i name="e_fr_energy">   -945.38708535 </i>
    <i name="e_wo_entrp">   -945.38708535 </i>
    <i name="e_0_energy">   -945.38708535 </i>
   </energy>
  </scstep>
  <scstep>
   <time name="total">  458.18  458.12</time>
   <energy>
    <i name="e_fr_energy">   -945.70707931 </i>
    <i name="e_wo_entrp">   -945.70707931 </i>
    <i name="e_0_energy">   -945.70707931 </i>
   </energy>
  </scstep>
  <scstep>
   <time name="total">  458.24  458.17</time>
   <energy>
    <i name="e_fr_energy">   -945.89034626 </i>
    <i name="e_wo_entrp">   -945.89034626 </i>
    <i name="e_0_energy">   -945.89034626 </i>
   </energy>
  </scstep>
  <scstep>
   <time name="total">  458.33  458.28</time>
   <energy>
    <i name="e_fr_energy">   -946.01744076 </i>
    <i name="e_wo_entrp">   -946.01744076 </i>
    <i name="e_0_energy">   -946.01744076 </i>
   </energy>
  </scstep>
  <scstep>
   <time name="total">  458.18  458.11</time>
   <energy>
    <i name="e_fr_energy">   -946.09900146 </i>
    <i name="e_wo_entrp">   -946.09900146 </i>
    <i name="e_0_energy">   -946.09900146 </i>
   </energy>
  </scstep>
  <scstep>
   <time name="total">  458.25  458.20</time>
   <energy>
    <i name="e_fr_energy">   -946.14669795 </i>
    <i name="e_wo_entrp">   -946.14669795 </i>
    <i name="e_0_energy">   -946.14669795 </i>
   </energy>
  </scstep>
  <scstep>
   <time name="total">  458.02  457.96</time>
   <energy>
    <i name="e_fr_energy">   -946.18213414 </i>
    <i name="e_wo_entrp">   -946.18213414 </i>
    <i name="e_0_energy">   -946.18213414 </i>
   </energy>
  </scstep>
  <scstep>
   <time name="total">  458.12  458.05</time>
   <energy>
    <i name="e_fr_energy">   -946.20665509 </i>
    <i name="e_wo_entrp">   -946.20665509 </i>
    <i name="e_0_energy">   -946.20665509 </i>
   </energy>
  </scstep>
  <scstep>
   <time name="total">  458.16  458.09</time>
   <energy>
    <i name="e_fr_energy">   -946.22156824 </i>
    <i name="e_wo_entrp">   -946.22156824 </i>
    <i name="e_0_energy">   -946.22156824 </i>
   </energy>
  </scstep>
  <scstep>
   <time name="total">  458.22  458.15</time>
   <energy>
    <i name="e_fr_energy">   -946.23164801 </i>
    <i name="e_wo_entrp">   -946.23164801 </i>
    <i name="e_0_energy">   -946.23164801 </i>
   </energy>
  </scstep>
  <scstep>
   <time name="total">  458.04  457.97</time>
   <energy>
    <i name="e_fr_energy">   -946.24370669 </i>
    <i name="e_wo_entrp">   -946.24370669 </i>
    <i name="e_0_energy">   -946.24370669 </i>
   </energy>
  </scstep>
  <scstep>
   <time name="total">  458.10  458.04</time>
   <energy>
    <i name="e_fr_energy">   -946.24808687 </i>
    <i name="e_wo_entrp">   -946.24808687 </i>
    <i name="e_0_energy">   -946.24808687 </i>
   </energy>
  </scstep>
  <scstep>
   <time name="total">  458.23  458.17</time>
   <energy>
    <i name="e_fr_energy">   -946.24923040 </i>
    <i name="e_wo_entrp">   -946.24923040 </i>
    <i name="e_0_energy">   -946.24923040 </i>
   </energy>
  </scstep>
  <scstep>
   <time name="total">  457.92  457.86</time>
   <energy>
    <i name="e_fr_energy">   -946.24961758 </i>
    <i name="e_wo_entrp">   -946.24961758 </i>
    <i name="e_0_energy">   -946.24961758 </i>
   </energy>
  </scstep>
  <scstep>
   <time name="total">  458.20  458.13</time>
   <energy>
    <i name="e_fr_energy">   -946.24975262 </i>
    <i name="e_wo_entrp">   -946.24975262 </i>
    <i name="e_0_energy">   -946.24975262 </i>
   </energy>
  </scstep>
  <scstep>
   <time name="total">  458.08  458.02</time>
   <energy>
    <i name="e_fr_energy">   -946.24978287 </i>
    <i name="e_wo_entrp">   -946.24978287 </i>
    <i name="e_0_energy">   -946.24978287 </i>
   </energy>
  </scstep>
  <scstep>
   <time name="total">  458.06  457.99</time>
   <energy>
    <i name="e_fr_energy">   -946.24979530 </i>
    <i name="e_wo_entrp">   -946.24979530 </i>
    <i name="e_0_energy">   -946.24979530 </i>
   </energy>
  </scstep>
  <scstep>
   <time name="total">  683.37  683.26</time>
   <energy>
    <i name="alphaZ">   5376.25786726 </i>
    <i name="ewald"> -86697.10272022 </i>
    <i name="hartreedc"> -33843.98701776 </i>
    <i name="XCdc">   2869.26557893 </i>
    <i name="pawpsdc"> 120366.36034020 </i>
    <i name="pawaedc">-135604.16522878 </i>
    <i name="eentropy">     -0.00000000 </i>
    <i name="bandstr">  -8747.70574005 </i>
    <i name="atom"> 131500.23896116 </i>
    <i name="e_fr_energy">   -946.24979981 </i>
    <i name="e_wo_entrp">   -946.24979981 </i>
    <i name="e_0_energy">   -946.24979981 </i>
   </energy>
  </scstep>
  <structure>
   <crystal>
    <varray name="basis" >
     <v>       0.00000000      12.28047342       0.00000000 </v>
     <v>       9.14270205       0.00000000       0.00000000 </v>
     <v>       0.00000000      -2.76826177     -11.30069772 </v>
    </varray>
    <i name="volume">   1268.80515525 </i>
    <varray name="rec_basis" >
     <v>       0.00000000       0.08143009      -0.01994742 </v>
     <v>       0.10937686      -0.00000000       0.00000000 </v>
     <v>       0.00000000       0.00000000      -0.08849011 </v>
    </varray>
   </crystal>
   <varray name="positions" >
    <v>       0.66034400       0.99894297       0.15879501 </v>
    <v>       0.65868450       0.99848318       0.65585433 </v>
    <v>       0.66078668       0.33114162       0.15883978 </v>
    <v>       0.65789788       0.33218000       0.65627947 </v>
    <v>       0.66091696       0.66597312       0.15837748 </v>
    <v>       0.65826366       0.66486602       0.65771060 </v>
    <v>       0.84896102       0.16268191       0.34462140 </v>
    <v>       0.83745788       0.16499296       0.84068190 </v>
    <v>       0.84142735       0.49837046       0.34564271 </v>
    <v>       0.84054264       0.49916101       0.84264926 </v>
    <v>       0.84517952       0.83174891       0.34576620 </v>
    <v>       0.83963370       0.83054547       0.84191523 </v>
    <v>       0.59327103       0.16692771       0.39731735 </v>
    <v>       0.59066791       0.16480661       0.89870803 </v>
    <v>       0.59047111       0.49916509       0.39821552 </v>
    <v>       0.59138519       0.49846394       0.89949752 </v>
    <v>       0.59426269       0.83233464       0.39870271 </v>
    <v>       0.59136545       0.83128710       0.89931686 </v>
    <v>       0.90219882       0.99606719       0.09883072 </v>
    <v>       0.91001211       0.99778945       0.60084049 </v>
    <v>       0.90393798       0.33758455       0.09946537 </v>
    <v>       0.90939537       0.33079415       0.60297725 </v>
    <v>       0.90866706       0.66573554       0.10279565 </v>
    <v>       0.90982048       0.66466945       0.60418350 </v>
    <v>       0.15956328       0.16127759       0.65134504 </v>
    <v>       0.15905582       0.50295447       0.16862926 </v>
    <v>       0.15926645       0.49740618       0.66046899 </v>
    <v>       0.15667563       0.83471511       0.17326306 </v>
    <v>       0.15929651       0.83320619       0.65362968 </v>
    <v>       0.34515772       0.00320035       0.34414744 </v>
    <v>       0.34078116       0.99866251       0.84539282 </v>
    <v>       0.33945369       0.33093575       0.34253356 </v>
    <v>       0.34081128       0.33049490       0.84603497 </v>
    <v>       0.34329147       0.66538383       0.34837117 </v>
    <v>       0.33954237       0.66491590       0.84562334 </v>
    <v>       0.11444562       0.99003585       0.37783348 </v>
    <v>       0.08553540       0.99799770       0.88992432 </v>
    <v>       0.09074541       0.32923411       0.39971739 </v>
    <v>       0.08776504       0.32831031       0.89441804 </v>
    <v>       0.08804960       0.66490397       0.40262300 </v>
    <v>       0.09393998       0.66461884       0.90380243 </v>
    <v>       0.41211114       0.16571632       0.10697501 </v>
    <v>       0.40826935       0.16511396       0.60360422 </v>
    <v>       0.41118589       0.50005889       0.10397394 </v>
    <v>       0.40974229       0.49855259       0.60602611 </v>
    <v>       0.40885285       0.83299917       0.10414875 </v>
    <v>       0.40953111       0.83258494       0.60508880 </v>
    <v>       0.99133965       0.16624986       0.10799038 </v>
    <v>       0.99699879       0.16458380       0.62619711 </v>
    <v>       0.99639523       0.49877355       0.12758612 </v>
    <v>       0.99655951       0.49756650       0.63201362 </v>
    <v>       0.99458742       0.83465245       0.12698815 </v>
    <v>       0.99698514       0.83111674       0.63131858 </v>
    <v>       0.50743376       0.99874170       0.37573253 </v>
    <v>       0.50341922       0.99771378       0.87473956 </v>
    <v>       0.50445799       0.33242223       0.37456770 </v>
    <v>       0.50350205       0.33192187       0.87520682 </v>
    <v>       0.50480199       0.66740915       0.37053897 </v>
    <v>       0.50277980       0.66488777       0.87682282 </v>
    <v>       0.67529583       0.16578852       0.28094743 </v>
    <v>       0.67123509       0.16480865       0.78033812 </v>
    <v>       0.67409998       0.49826921       0.28218187 </v>
    <v>       0.67162501       0.49876719       0.78116996 </v>
    <v>       0.67560417       0.83188947       0.28160810 </v>
    <v>       0.67172018       0.83095862       0.78106306 </v>
    <v>       0.82862370       0.99988384       0.21963453 </v>
    <v>       0.82723648       0.99713167       0.71830311 </v>
    <v>       0.82971509       0.33053179       0.22011458 </v>
    <v>       0.82670567       0.33285616       0.71917881 </v>
    <v>       0.82894576       0.66465807       0.22087267 </v>
    <v>       0.82769450       0.66411270       0.72095615 </v>
    <v>       0.83130710       0.99882314       0.44555312 </v>
    <v>       0.82910137       0.99768241       0.94284022 </v>
    <v>       0.83536934       0.32887084       0.44577647 </v>
    <v>       0.82947627       0.33273030       0.94354808 </v>
    <v>       0.83243224       0.66503073       0.44799451 </v>
    <v>       0.83216764       0.66496530       0.94636915 </v>
    <v>       0.66961310       0.16506877       0.05471002 </v>
    <v>       0.66845653       0.16599563       0.55484611 </v>
    <v>       0.66991859       0.49867213       0.05593683 </v>
    <v>       0.66750512       0.49925064       0.55486405 </v>
    <v>       0.67069825       0.83229261       0.05533130 </v>
    <v>       0.66859896       0.83075694       0.55575422 </v>
    <v>       0.49841583       0.99733127       0.12778359 </v>
    <v>       0.49660980       0.99939404       0.62898198 </v>
    <v>       0.49859012       0.33368079       0.12742979 </v>
    <v>       0.49622323       0.33104627       0.63008034 </v>
    <v>       0.49748049       0.66749517       0.12824667 </v>
    <v>       0.49662525       0.66576739       0.63068437 </v>
    <v>       0.01143639       0.15707498       0.36466716 </v>
    <v>       0.99882775       0.16419903       0.86603068 </v>
    <v>       0.00227029       0.49710411       0.37642969 </v>
    <v>       0.00545935       0.49753143       0.87963026 </v>
    <v>       0.00514243       0.83355788       0.37572443 </v>
    <v>       0.00342344       0.82960075       0.87657929 </v>
    <v>       0.17279665       0.99847300       0.78045808 </v>
    <v>       0.17637667       0.35790324       0.29172052 </v>
    <v>       0.17318047       0.32970387       0.78325692 </v>
    <v>       0.17420181       0.66722785       0.28847066 </v>
    <v>       0.17233816       0.66452003       0.78405462 </v>
    <v>       0.33832657       0.16480953       0.22774945 </v>
    <v>       0.32759669       0.16451905       0.72169952 </v>
    <v>       0.32728031       0.50115982       0.21811795 </v>
    <v>       0.32795506       0.49764936       0.72310576 </v>
    <v>       0.32350385       0.84062669       0.21949151 </v>
    <v>       0.32769101       0.83129432       0.72209640 </v>
    <v>       0.32893143       0.16542280       0.44738025 </v>
    <v>       0.33275221       0.16437175       0.95006665 </v>
    <v>       0.33977655       0.49960549       0.44870982 </v>
    <v>       0.32871317       0.49715034       0.94920593 </v>
    <v>       0.33668594       0.83398502       0.44707053 </v>
    <v>       0.32841912       0.83288566       0.94866815 </v>
    <v>       0.15218156       0.01841404       0.05491585 </v>
    <v>       0.16705324       0.99626412       0.55061036 </v>
    <v>       0.15466989       0.30559509       0.05953410 </v>
    <v>       0.16765620       0.33254992       0.55690977 </v>
    <v>       0.16486111       0.66873423       0.06264132 </v>
    <v>       0.16927007       0.66254365       0.55765026 </v>
    <v>       0.13741302       0.16031413       0.14162819 </v>
   </varray>
  </structure>
  <varray name="forces" >
   <v>       0.00084977       0.06608539      -0.00956957 </v>
   <v>       0.00477880       0.05983807       0.02231558 </v>
   <v>      -0.01736197       0.04755313      -0.00402102 </v>
   <v>      -0.00915337       0.04789765       0.02184906 </v>
   <v>       0.01423714       0.08156879      -0.00392313 </v>
   <v>       0.00826840       0.04539951       0.01466390 </v>
   <v>      -0.05222108      -0.04449311      -0.00154428 </v>
   <v>      -0.00456970      -0.07699758      -0.00122182 </v>
   <v>      -0.00120880      -0.03497057      -0.02279123 </v>
   <v>       0.00670750      -0.10168708      -0.01163663 </v>
   <v>       0.01546595      -0.00308712      -0.04252468 </v>
   <v>      -0.00171581      -0.09229214      -0.01402385 </v>
   <v>      -0.01425412      -0.04449634       0.00695823 </v>
   <v>      -0.00190987      -0.01796900       0.00657209 </v>
   <v>      -0.01578436      -0.04228273       0.01577900 </v>
   <v>      -0.00893127      -0.02058114       0.00799865 </v>
   <v>       0.01735752      -0.04689967       0.01790086 </v>
   <v>       0.00843304      -0.01646295       0.00561598 </v>
   <v>      -0.04641420       0.04007071       0.00061148 </v>
   <v>      -0.00204269       0.03066103       0.02190425 </v>
   <v>       0.01145757       0.04562371       0.00807537 </v>
   <v>      -0.01045544       0.03085909      -0.00123381 </v>
   <v>       0.01251821       0.03244477      -0.01885030 </v>
   <v>       0.00541838       0.01543593      -0.02551835 </v>
   <v>      -0.02828430       0.07006475       0.08894484 </v>
   <v>       0.07254942       0.01859544      -0.32620530 </v>
   <v>      -0.00571408       0.08425588       0.05097334 </v>
   <v>      -0.28255808       0.05294771      -0.09063474 </v>
   <v>       0.02349752       0.06709431       0.08472964 </v>
   <v>       0.05627189       0.15128684      -0.02369601 </v>
   <v>       0.00111959      -0.06142426       0.00548740 </v>
   <v>      -0.04434400      -0.17005615       0.03302729 </v>
   <v>      -0.00837594      -0.07147419       0.01033889 </v>
   <v>      -0.02384444      -0.09940893      -0.09429256 </v>
   <v>      -0.00615129      -0.08701383       0.02639924 </v>
   <v>      -0.05639330      -0.38304292      -0.24847582 </v>
   <v>       0.04708824      -0.09585219       0.05670701 </v>
   <v>       0.03475708       0.12759791       0.09154322 </v>
   <v>      -0.04483471      -0.09593075       0.09064800 </v>
   <v>       0.03422828       0.03465467       0.03479769 </v>
   <v>       0.01511017      -0.06778265       0.00749467 </v>
   <v>      -0.00438331      -0.01923613      -0.09998425 </v>
   <v>       0.00657639       0.01872081       0.02293118 </v>
   <v>      -0.01511448      -0.01677371      -0.04763096 </v>
   <v>      -0.00656013       0.04037721       0.04618540 </v>
   <v>       0.02181379       0.01118233      -0.03264220 </v>
   <v>       0.00476376       0.04027232       0.04302122 </v>
   <v>      -0.01947083       0.14074927      -0.00738492 </v>
   <v>       0.00361780      -0.18541328       0.09304791 </v>
   <v>       0.01100093      -0.22563716       0.12167219 </v>
   <v>       0.00180345      -0.16757347       0.14391847 </v>
   <v>      -0.02137266      -0.21441161       0.10540134 </v>
   <v>      -0.00329504      -0.17031139       0.14984289 </v>
   <v>       0.00141972       0.20670074      -0.09685192 </v>
   <v>       0.00486380       0.16377600      -0.11007962 </v>
   <v>       0.02365914       0.24620700      -0.11061361 </v>
   <v>      -0.00319087       0.16526303      -0.10952681 </v>
   <v>      -0.01977178       0.17219064      -0.14924173 </v>
   <v>       0.00081668       0.17762988      -0.09301832 </v>
   <v>       0.00970660      -0.10681807      -0.06007605 </v>
   <v>       0.00451008       0.00371426      -0.12546410 </v>
   <v>       0.00088870      -0.01908669      -0.10900270 </v>
   <v>       0.01252523      -0.03416024      -0.11323942 </v>
   <v>      -0.00710304      -0.05605397      -0.09194846 </v>
   <v>      -0.01532806      -0.02169851      -0.12006331 </v>
   <v>       0.01787912       0.04391916       0.18403743 </v>
   <v>       0.00537012       0.02333347       0.09028533 </v>
   <v>       0.00728032       0.05410416       0.18654321 </v>
   <v>      -0.00519646       0.04357493       0.09621275 </v>
   <v>      -0.00038323       0.03010125       0.13223190 </v>
   <v>      -0.00016428       0.04113730       0.06891133 </v>
   <v>      -0.00422681       0.43556732      -0.09114606 </v>
   <v>      -0.00441507       0.38762231      -0.09167962 </v>
   <v>       0.02180407       0.38734453      -0.09121385 </v>
   <v>       0.03030046       0.39388078      -0.09708326 </v>
   <v>      -0.01905910       0.40875218      -0.08993731 </v>
   <v>      -0.00516832       0.38710667      -0.06912690 </v>
   <v>       0.00333590      -0.39676400       0.08059596 </v>
   <v>       0.00789896      -0.39109195       0.05258931 </v>
   <v>       0.00354195      -0.39613341       0.07771117 </v>
   <v>      -0.00360547      -0.40019350       0.06026393 </v>
   <v>      -0.01008288      -0.40955791       0.07938507 </v>
   <v>       0.01016591      -0.39447341       0.06699220 </v>
   <v>       0.00477250      -0.15690125       0.09783064 </v>
   <v>      -0.00987355      -0.16571037       0.10897898 </v>
   <v>       0.00309415      -0.14557604       0.09947675 </v>
   <v>       0.01286547      -0.14787322       0.10976583 </v>
   <v>      -0.01687831      -0.18363422       0.12411666 </v>
   <v>      -0.00239623      -0.15333830       0.10852055 </v>
   <v>       0.21397117       0.04481164      -0.13174233 </v>
   <v>      -0.00524683       0.21309127      -0.14906503 </v>
   <v>       0.04339018       0.09207614      -0.10655034 </v>
   <v>      -0.04733540       0.21689323      -0.05837335 </v>
   <v>      -0.25359641       0.01855345      -0.04881440 </v>
   <v>       0.07984485       0.22000635      -0.06355478 </v>
   <v>      -0.00710274      -0.10992497      -0.16784840 </v>
   <v>       0.29897705      -0.02789521      -0.19237835 </v>
   <v>       0.05919776      -0.09464273      -0.19659140 </v>
   <v>      -0.02648016      -0.03737677       0.00229111 </v>
   <v>      -0.04545345      -0.01636929      -0.17934529 </v>
   <v>      -0.03600380       0.38395332      -0.00319249 </v>
   <v>      -0.01321373       0.03157993       0.10949215 </v>
   <v>       0.02116002       0.06250964       0.14840272 </v>
   <v>       0.00741489       0.02928742       0.08874271 </v>
   <v>       0.00567354       0.06259324       0.14601633 </v>
   <v>       0.01031028       0.03590260       0.10962581 </v>
   <v>      -0.03390694       0.45569821      -0.13082777 </v>
   <v>       0.00764412       0.38792875      -0.03723862 </v>
   <v>       0.07196960       0.34529638      -0.10912414 </v>
   <v>       0.01138132       0.42640847      -0.07662412 </v>
   <v>      -0.07067589       0.42034060      -0.14135855 </v>
   <v>       0.00173947       0.42583120      -0.08007301 </v>
   <v>       0.39003056      -0.39407295      -0.07780957 </v>
   <v>       0.00629812      -0.26719762      -0.14348210 </v>
   <v>      -0.42693950      -0.38957463      -0.01127852 </v>
   <v>      -0.04435383      -0.40441161       0.01592976 </v>
   <v>      -0.07176619      -0.34453712       0.12518765 </v>
   <v>       0.03264752      -0.43694245       0.03544845 </v>
   <v>       0.07759768      -0.27035219       0.98944911 </v>
  </varray>
  <varray name="stress" >
   <v>     -49.12080456       2.05292600       0.00605279 </v>
   <v>       2.05292613     -46.57348340      -3.73427286 </v>
   <v>       0.00605249      -3.73427239     -43.06169650 </v>
  </varray>
  <energy>
   <i name="e_fr_energy">   -946.24979981 </i>
   <i name="e_wo_entrp">   -946.24979981 </i>
   <i name="e_0_energy">   -946.24979981 </i>
  </energy>
  <time name="totalsc">19375.7819373.70</time>
  <eigenvalues>
   <array>
    <dimension dim="1">band</dimension>
    <dimension dim="2">kpoint</dimension>
    <dimension dim="3">spin</dimension>
    <field>eigene</field>
    <field>occ</field>
    <set>
     <set comment="spin 1">
      <set comment="kpoint 1">
       <r>  -19.6742    1.0000 </r>
       <r>  -18.6362    1.0000 </r>
       <r>  -18.4043    1.0000 </r>
       <r>  -18.3665    1.0000 </r>
       <r>  -18.2687    1.0000 </r>
       <r>  -18.2050    1.0000 </r>
       <r>  -18.1346    1.0000 </r>
       <r>  -18.1172    1.0000 </r>
       <r>  -17.9733    1.0000 </r>
       <r>  -17.9482    1.0000 </r>
       <r>  -17.8953    1.0000 </r>
       <r>  -17.8610    1.0000 </r>
       <r>  -17.8264    1.0000 </r>
       <r>  -17.7864    1.0000 </r>
       <r>  -17.7538    1.0000 </r>
       <r>  -17.7243    1.0000 </r>
       <r>  -17.6863    1.0000 </r>
       <r>  -17.6822    1.0000 </r>
       <r>  -17.6723    1.0000 </r>
       <r>  -17.6424    1.0000 </r>
       <r>  -17.5930    1.0000 </r>
       <r>  -17.5559    1.0000 </r>
       <r>  -17.5399    1.0000 </r>
       <r>  -17.5299    1.0000 </r>
       <r>  -17.5204    1.0000 </r>
       <r>  -17.5016    1.0000 </r>
       <r>  -17.4894    1.0000 </r>
       <r>  -17.4261    1.0000 </r>
       <r>  -17.4011    1.0000 </r>
       <r>  -17.3893    1.0000 </r>
       <r>  -17.3778    1.0000 </r>
       <r>  -17.3636    1.0000 </r>
       <r>  -17.3400    1.0000 </r>
       <r>  -17.3305    1.0000 </r>
       <r>  -17.3006    1.0000 </r>
       <r>  -17.2952    1.0000 </r>
       <r>  -17.2824    1.0000 </r>
       <r>  -17.2561    1.0000 </r>
       <r>  -17.2213    1.0000 </r>
       <r>  -17.2046    1.0000 </r>
       <r>  -17.1985    1.0000 </r>
       <r>  -17.1829    1.0000 </r>
       <r>  -17.1653    1.0000 </r>
       <r>  -17.1515    1.0000 </r>
       <r>  -17.1351    1.0000 </r>
       <r>  -17.1087    1.0000 </r>
       <r>  -17.1019    1.0000 </r>
       <r>  -17.0691    1.0000 </r>
       <r>  -17.0382    1.0000 </r>
       <r>  -17.0217    1.0000 </r>
       <r>  -16.9851    1.0000 </r>
       <r>  -16.9666    1.0000 </r>
       <r>  -16.9582    1.0000 </r>
       <r>  -16.9461    1.0000 </r>
       <r>  -16.9374    1.0000 </r>
       <r>  -16.9256    1.0000 </r>
       <r>  -16.9050    1.0000 </r>
       <r>  -16.8992    1.0000 </r>
       <r>  -16.8922    1.0000 </r>
       <r>  -16.8884    1.0000 </r>
       <r>  -16.8766    1.0000 </r>
       <r>  -16.8724    1.0000 </r>
       <r>  -16.8570    1.0000 </r>
       <r>  -16.8469    1.0000 </r>
       <r>  -16.8334    1.0000 </r>
       <r>  -16.8095    1.0000 </r>
       <r>  -16.7858    1.0000 </r>
       <r>  -16.7384    1.0000 </r>
       <r>  -16.6823    1.0000 </r>
       <r>  -16.6261    1.0000 </r>
       <r>  -16.3241    1.0000 </r>
       <r>  -13.3388    1.0000 </r>
       <r>  -13.2913    1.0000 </r>
       <r>  -13.2653    1.0000 </r>
       <r>  -13.2593    1.0000 </r>
       <r>  -13.2248    1.0000 </r>
       <r>  -13.1956    1.0000 </r>
       <r>  -13.1754    1.0000 </r>
       <r>  -13.1701    1.0000 </r>
       <r>  -13.1540    1.0000 </r>
       <r>  -13.1481    1.0000 </r>
       <r>  -13.1307    1.0000 </r>
       <r>  -13.1267    1.0000 </r>
       <r>  -13.1216    1.0000 </r>
       <r>  -13.1103    1.0000 </r>
       <r>  -13.1016    1.0000 </r>
       <r>  -13.0926    1.0000 </r>
       <r>  -13.0868    1.0000 </r>
       <r>  -13.0822    1.0000 </r>
       <r>  -13.0757    1.0000 </r>
       <r>  -13.0666    1.0000 </r>
       <r>  -13.0519    1.0000 </r>
       <r>  -13.0475    1.0000 </r>
       <r>  -13.0379    1.0000 </r>
       <r>  -13.0330    1.0000 </r>
       <r>  -13.0294    1.0000 </r>
       <r>  -13.0218    1.0000 </r>
       <r>  -13.0158    1.0000 </r>
       <r>  -13.0079    1.0000 </r>
       <r>  -12.9999    1.0000 </r>
       <r>  -12.9974    1.0000 </r>
       <r>  -12.9909    1.0000 </r>
       <r>  -12.9782    1.0000 </r>
       <r>  -12.9727    1.0000 </r>
       <r>  -12.9694    1.0000 </r>
       <r>  -12.9687    1.0000 </r>
       <r>  -12.9548    1.0000 </r>
       <r>  -12.9514    1.0000 </r>
       <r>  -12.9481    1.0000 </r>
       <r>  -12.9420    1.0000 </r>
       <r>  -12.9359    1.0000 </r>
       <r>  -12.9330    1.0000 </r>
       <r>  -12.9315    1.0000 </r>
       <r>  -12.9264    1.0000 </r>
       <r>  -12.9245    1.0000 </r>
       <r>  -12.9225    1.0000 </r>
       <r>  -12.9185    1.0000 </r>
       <r>  -12.9150    1.0000 </r>
       <r>  -12.9145    1.0000 </r>
       <r>  -12.9115    1.0000 </r>
       <r>  -12.9064    1.0000 </r>
       <r>  -12.9052    1.0000 </r>
       <r>  -12.9021    1.0000 </r>
       <r>  -12.8994    1.0000 </r>
       <r>  -12.8970    1.0000 </r>
       <r>  -12.8942    1.0000 </r>
       <r>  -12.8873    1.0000 </r>
       <r>  -12.8842    1.0000 </r>
       <r>  -12.8787    1.0000 </r>
       <r>  -12.8773    1.0000 </r>
       <r>  -12.8741    1.0000 </r>
       <r>  -12.8699    1.0000 </r>
       <r>  -12.8637    1.0000 </r>
       <r>  -12.8598    1.0000 </r>
       <r>  -12.8583    1.0000 </r>
       <r>  -12.8520    1.0000 </r>
       <r>  -12.8485    1.0000 </r>
       <r>  -12.8480    1.0000 </r>
       <r>  -12.8425    1.0000 </r>
       <r>  -12.8385    1.0000 </r>
       <r>  -12.8355    1.0000 </r>
       <r>  -12.8342    1.0000 </r>
       <r>  -12.8261    1.0000 </r>
       <r>  -12.8246    1.0000 </r>
       <r>  -12.8216    1.0000 </r>
       <r>  -12.8185    1.0000 </r>
       <r>  -12.8130    1.0000 </r>
       <r>  -12.8086    1.0000 </r>
       <r>  -12.8049    1.0000 </r>
       <r>  -12.8026    1.0000 </r>
       <r>  -12.7998    1.0000 </r>
       <r>  -12.7969    1.0000 </r>
       <r>  -12.7901    1.0000 </r>
       <r>  -12.7864    1.0000 </r>
       <r>  -12.7846    1.0000 </r>
       <r>  -12.7833    1.0000 </r>
       <r>  -12.7820    1.0000 </r>
       <r>  -12.7787    1.0000 </r>
       <r>  -12.7746    1.0000 </r>
       <r>  -12.7718    1.0000 </r>
       <r>  -12.7705    1.0000 </r>
       <r>  -12.7659    1.0000 </r>
       <r>  -12.7632    1.0000 </r>
       <r>  -12.7607    1.0000 </r>
       <r>  -12.7571    1.0000 </r>
       <r>  -12.7541    1.0000 </r>
       <r>  -12.7524    1.0000 </r>
       <r>  -12.7493    1.0000 </r>
       <r>  -12.7478    1.0000 </r>
       <r>  -12.7459    1.0000 </r>
       <r>  -12.7420    1.0000 </r>
       <r>  -12.7410    1.0000 </r>
       <r>  -12.7350    1.0000 </r>
       <r>  -12.7314    1.0000 </r>
       <r>  -12.7259    1.0000 </r>
       <r>  -12.7239    1.0000 </r>
       <r>  -12.7199    1.0000 </r>
       <r>  -12.7180    1.0000 </r>
       <r>  -12.7153    1.0000 </r>
       <r>  -12.7137    1.0000 </r>
       <r>  -12.7091    1.0000 </r>
       <r>  -12.7075    1.0000 </r>
       <r>  -12.7047    1.0000 </r>
       <r>  -12.7005    1.0000 </r>
       <r>  -12.6992    1.0000 </r>
       <r>  -12.6967    1.0000 </r>
       <r>  -12.6906    1.0000 </r>
       <r>  -12.6891    1.0000 </r>
       <r>  -12.6877    1.0000 </r>
       <r>  -12.6847    1.0000 </r>
       <r>  -12.6845    1.0000 </r>
       <r>  -12.6784    1.0000 </r>
       <r>  -12.6768    1.0000 </r>
       <r>  -12.6678    1.0000 </r>
       <r>  -12.6669    1.0000 </r>
       <r>  -12.6647    1.0000 </r>
       <r>  -12.6619    1.0000 </r>
       <r>  -12.6600    1.0000 </r>
       <r>  -12.6532    1.0000 </r>
       <r>  -12.6499    1.0000 </r>
       <r>  -12.6476    1.0000 </r>
       <r>  -12.6454    1.0000 </r>
       <r>  -12.6439    1.0000 </r>
       <r>  -12.6405    1.0000 </r>
       <r>  -12.6373    1.0000 </r>
       <r>  -12.6365    1.0000 </r>
       <r>  -12.6343    1.0000 </r>
       <r>  -12.6312    1.0000 </r>
       <r>  -12.6280    1.0000 </r>
       <r>  -12.6254    1.0000 </r>
       <r>  -12.6231    1.0000 </r>
       <r>  -12.6225    1.0000 </r>
       <r>  -12.6164    1.0000 </r>
       <r>  -12.6108    1.0000 </r>
       <r>  -12.6101    1.0000 </r>
       <r>  -12.6068    1.0000 </r>
       <r>  -12.6041    1.0000 </r>
       <r>  -12.6017    1.0000 </r>
       <r>  -12.5993    1.0000 </r>
       <r>  -12.5978    1.0000 </r>
       <r>  -12.5948    1.0000 </r>
       <r>  -12.5933    1.0000 </r>
       <r>  -12.5914    1.0000 </r>
       <r>  -12.5883    1.0000 </r>
       <r>  -12.5878    1.0000 </r>
       <r>  -12.5853    1.0000 </r>
       <r>  -12.5825    1.0000 </r>
       <r>  -12.5802    1.0000 </r>
       <r>  -12.5787    1.0000 </r>
       <r>  -12.5735    1.0000 </r>
       <r>  -12.5704    1.0000 </r>
       <r>  -12.5679    1.0000 </r>
       <r>  -12.5625    1.0000 </r>
       <r>  -12.5611    1.0000 </r>
       <r>  -12.5551    1.0000 </r>
       <r>  -12.5530    1.0000 </r>
[...]
       <r>   -13.2663    41.7713   147.7262 </r>
       <r>   -13.1310   127.5098   164.9772 </r>
       <r>   -12.9957   266.4080   201.0201 </r>
       <r>   -12.8604   495.2989   268.0301 </r>
       <r>   -12.7251   618.5558   351.7157 </r>
       <r>   -12.5898   678.1030   443.4576 </r>
       <r>   -12.4545   461.6790   505.9190 </r>
       <r>   -12.3193   183.5802   530.7560 </r>
       <r>   -12.1840   144.4792   550.3028 </r>
       <r>   -12.0487   109.2000   565.0767 </r>
       <r>   -11.9134   118.3056   581.0825 </r>
       <r>   -11.7781   112.1331   596.2532 </r>
       <r>   -11.6428    75.7275   606.4986 </r>
       <r>   -11.5075    38.4289   611.6977 </r>
       <r>   -11.3722     2.2345   612.0000 </r>
       <r>   -11.2369     0.0000   612.0000 </r>
       <r>   -11.1016     0.0000   612.0000 </r>
       <r>   -10.9663     0.0000   612.0000 </r>
       <r>   -10.8310     0.0000   612.0000 </r>
       <r>   -10.6958     0.0000   612.0000 </r>
       <r>   -10.5605     0.0000   612.0000 </r>
       <r>   -10.4252     0.0000   612.0000 </r>
       <r>   -10.2899     0.0000   612.0000 </r>
       <r>   -10.1546     0.0000   612.0000 </r>
       <r>   -10.0193     0.0000   612.0000 </r>
       <r>    -9.8840     0.0000   612.0000 </r>
       <r>    -9.7487     0.0000   612.0000 </r>
       <r>    -9.6134     0.0000   612.0000 </r>
       <r>    -9.4781     0.0000   612.0000 </r>
       <r>    -9.3428     0.0000   612.0000 </r>
       <r>    -9.2075     0.0000   612.0000 </r>
       <r>    -9.0722     0.0000   612.0000 </r>
       <r>    -8.9370     0.0000   612.0000 </r>
       <r>    -8.8017     0.0000   612.0000 </r>
       <r>    -8.6664     0.0000   612.0000 </r>
       <r>    -8.5311     0.0000   612.0000 </r>
       <r>    -8.3958     0.0000   612.0000 </r>
       <r>    -8.2605     0.0000   612.0000 </r>
       <r>    -8.1252     0.0000   612.0000 </r>
       <r>    -7.9899     0.0000   612.0000 </r>
       <r>    -7.8546     0.0000   612.0000 </r>
       <r>    -7.7193     0.0000   612.0000 </r>
       <r>    -7.5840     0.0000   612.0000 </r>
       <r>    -7.4487     0.0002   612.0000 </r>
       <r>    -7.3135     4.7645   612.6446 </r>
       <r>    -7.1782    10.0119   613.9992 </r>
       <r>    -7.0429     0.0063   614.0000 </r>
       <r>    -6.9076     0.0000   614.0000 </r>
       <r>    -6.7723     0.0000   614.0000 </r>
       <r>    -6.6370     0.0000   614.0000 </r>
       <r>    -6.5017     0.0000   614.0000 </r>
       <r>    -6.3664     0.0000   614.0000 </r>
       <r>    -6.2311     0.0000   614.0000 </r>
       <r>    -6.0958     0.0000   614.0000 </r>
       <r>    -5.9605     0.0000   614.0000 </r>
       <r>    -5.8252     0.0000   614.0000 </r>
       <r>    -5.6899     0.0000   614.0000 </r>
       <r>    -5.5547     0.0000   614.0000 </r>
       <r>    -5.4194     0.0000   614.0000 </r>
       <r>    -5.2841     0.0000   614.0000 </r>
       <r>    -5.1488     1.3185   614.1784 </r>
       <r>    -5.0135    15.2480   616.2413 </r>
       <r>    -4.8782    25.9291   619.7493 </r>
       <r>    -4.7429    30.8934   623.9290 </r>
       <r>    -4.6076    34.5305   628.6007 </r>
       <r>    -4.4723    35.3542   633.3838 </r>
       <r>    -4.3370    41.3825   638.9825 </r>
       <r>    -4.2017    42.7069   644.7604 </r>
       <r>    -4.0664    48.9680   651.3854 </r>
       <r>    -3.9312    50.7404   658.2501 </r>
       <r>    -3.7959    41.3136   663.8395 </r>
       <r>    -3.6606    50.9620   670.7343 </r>
       <r>    -3.5253    33.8434   675.3130 </r>
       <r>    -3.3900    32.3381   679.6881 </r>
       <r>    -3.2547    31.2516   683.9162 </r>
       <r>    -3.1194    40.5001   689.3956 </r>
       <r>    -2.9841    30.5301   693.5260 </r>
       <r>    -2.8488    44.2514   699.5129 </r>
       <r>    -2.7135    32.0035   703.8427 </r>
       <r>    -2.5782    32.5321   708.2440 </r>
       <r>    -2.4429    36.6651   713.2045 </r>
       <r>    -2.3076    40.5619   718.6922 </r>
       <r>    -2.1724    47.4613   725.1134 </r>
       <r>    -2.0371    39.8714   730.5076 </r>
       <r>    -1.9018    41.4391   736.1140 </r>
       <r>    -1.7665    60.7019   744.3265 </r>
       <r>    -1.6312    61.1710   752.6025 </r>
       <r>    -1.4959    65.1572   761.4177 </r>
       <r>    -1.3606    57.7498   769.2308 </r>
       <r>    -1.2253    63.2368   777.7862 </r>
       <r>    -1.0900    52.9989   784.9565 </r>
       <r>    -0.9547    50.9289   791.8468 </r>
       <r>    -0.8194    70.4031   801.3718 </r>
       <r>    -0.6841    70.3477   810.8893 </r>
       <r>    -0.5489    72.7658   820.7339 </r>
       <r>    -0.4136    65.9983   829.6629 </r>
       <r>    -0.2783    57.7181   837.4717 </r>
       <r>    -0.1430    71.4036   847.1320 </r>
       <r>    -0.0077    76.0901   857.4264 </r>
       <r>     0.1276    82.2408   868.5529 </r>
       <r>     0.2629    76.2377   878.8673 </r>
       <r>     0.3982    63.6593   887.4799 </r>
       <r>     0.5335    79.5981   898.2489 </r>
       <r>     0.6688    82.7261   909.4410 </r>
       <r>     0.8041    85.4607   921.0032 </r>
       <r>     0.9394    88.4071   932.9639 </r>
       <r>     1.0747    91.0000   945.2755 </r>
       <r>     1.2099   106.3716   959.6667 </r>
       <r>     1.3452   110.9997   974.6841 </r>
       <r>     1.4805   121.9857   991.1878 </r>
       <r>     1.6158   113.9336  1006.6021 </r>
       <r>     1.7511    88.3027  1018.5487 </r>
       <r>     1.8864    54.8129  1025.9645 </r>
       <r>     2.0217    54.9276  1033.3958 </r>
       <r>     2.1570    29.2113  1037.3478 </r>
       <r>     2.2923     4.8201  1037.9999 </r>
       <r>     2.4276     0.0004  1038.0000 </r>
       <r>     2.5629     0.0000  1038.0000 </r>
       <r>     2.6982     0.0000  1038.0000 </r>
       <r>     2.8334     0.0000  1038.0000 </r>
       <r>     2.9687     0.0000  1038.0000 </r>
       <r>     3.1040     0.0002  1038.0000 </r>
       <r>     3.2393     0.9950  1038.1346 </r>
       <r>     3.3746     5.8193  1038.9219 </r>
       <r>     3.5099     7.6645  1039.9589 </r>
       <r>     3.6452     0.3038  1040.0000 </r>
       <r>     3.7805     0.0000  1040.0000 </r>
       <r>     3.9158     0.0000  1040.0000 </r>
       <r>     4.0511     0.0000  1040.0000 </r>
       <r>     4.1864     0.0000  1040.0000 </r>
       <r>     4.3217     0.0000  1040.0000 </r>
       <r>     4.4569     0.0000  1040.0000 </r>
       <r>     4.5922     0.0000  1040.0000 </r>
       <r>     4.7275     0.0000  1040.0000 </r>
       <r>     4.8628     0.8468  1040.1146 </r>
       <r>     4.9981    11.2264  1041.6334 </r>
       <r>     5.1334     2.7094  1042.0000 </r>
       <r>     5.2687     0.0003  1042.0000 </r>
       <r>     5.4040     0.0000  1042.0000 </r>
       <r>     5.5393     0.0000  1042.0000 </r>
       <r>     5.6746     0.0000  1042.0000 </r>
       <r>     5.8099     0.0000  1042.0000 </r>
       <r>     5.9452     0.0000  1042.0000 </r>
       <r>     6.0805     0.0000  1042.0000 </r>
       <r>     6.2157     0.0000  1042.0000 </r>
       <r>     6.3510     0.0000  1042.0000 </r>
       <r>     6.4863     0.0000  1042.0000 </r>
       <r>     6.6216     0.0000  1042.0000 </r>
       <r>     6.7569     0.0000  1042.0000 </r>
       <r>     6.8922     0.0711  1042.0096 </r>
       <r>     7.0275     1.7402  1042.2450 </r>
       <r>     7.1628     0.0366  1042.2500 </r>
       <r>     7.2981     0.0002  1042.2500 </r>
       <r>     7.4334     1.0911  1042.3976 </r>
       <r>     7.5687     2.5361  1042.7408 </r>
       <r>     7.7040     0.1813  1042.7653 </r>
       <r>     7.8392     3.4359  1043.2301 </r>
       <r>     7.9745     3.5004  1043.7037 </r>
       <r>     8.1098     2.1180  1043.9903 </r>
       <r>     8.2451     5.0607  1044.6749 </r>
       <r>     8.3804     5.8876  1045.4715 </r>
       <r>     8.5157     2.1372  1045.7606 </r>
       <r>     8.6510     4.4629  1046.3644 </r>
       <r>     8.7863    10.9386  1047.8443 </r>
       <r>     8.9216     6.9221  1048.7808 </r>
       <r>     9.0569     8.7057  1049.9586 </r>
       <r>     9.1922     7.8453  1051.0201 </r>
       <r>     9.3275     8.8908  1052.2229 </r>
       <r>     9.4628     4.5538  1052.8390 </r>
       <r>     9.5980     5.6676  1053.6058 </r>
       <r>     9.7333    14.5555  1055.5750 </r>
       <r>     9.8686    14.1058  1057.4834 </r>
       <r>    10.0039    12.5667  1059.1836 </r>
       <r>    10.1392    15.7527  1061.3148 </r>
       <r>    10.2745    23.3998  1064.4806 </r>
       <r>    10.4098    22.3499  1067.5044 </r>
       <r>    10.5451    25.8587  1071.0028 </r>
       <r>    10.6804    40.3257  1076.4586 </r>
       <r>    10.8157    41.7714  1082.1099 </r>
       <r>    10.9510    28.6261  1085.9828 </r>
       <r>    11.0863    30.1983  1090.0684 </r>
       <r>    11.2215    31.7646  1094.3659 </r>
       <r>    11.3568    28.7197  1098.2514 </r>
       <r>    11.4921    27.0310  1101.9085 </r>
       <r>    11.6274    34.8762  1106.6270 </r>
       <r>    11.7627    39.0179  1111.9058 </r>
       <r>    11.8980    38.9653  1117.1775 </r>
       <r>    12.0333    29.1149  1121.1165 </r>
       <r>    12.1686    32.9743  1125.5776 </r>
       <r>    12.3039    40.2487  1131.0230 </r>
       <r>    12.4392    41.6327  1136.6555 </r>
       <r>    12.5745    38.0976  1141.8098 </r>
       <r>    12.7098    27.8903  1145.5832 </r>
       <r>    12.8451    20.7029  1148.3841 </r>
       <r>    12.9803    34.9539  1153.1131 </r>
       <r>    13.1156    34.5394  1157.7860 </r>
       <r>    13.2509    35.9170  1162.6453 </r>
       <r>    13.3862    35.7892  1167.4873 </r>
       <r>    13.5215    37.2928  1172.5327 </r>
       <r>    13.6568    33.2729  1177.0342 </r>
       <r>    13.7921    35.6474  1181.8570 </r>
       <r>    13.9274    32.9446  1186.3142 </r>
       <r>    14.0627    31.6700  1190.5989 </r>
       <r>    14.1980    27.9275  1194.3772 </r>
       <r>    14.3333    25.4507  1197.8205 </r>
       <r>    14.4686    32.0074  1202.1509 </r>
       <r>    14.6038    22.7982  1205.2353 </r>
       <r>    14.7391    27.3591  1208.9368 </r>
       <r>    14.8744    23.7831  1212.1544 </r>
       <r>    15.0097    23.1313  1215.2839 </r>
       <r>    15.1450    24.1836  1218.5557 </r>
       <r>    15.2803    22.9925  1221.6664 </r>
       <r>    15.4156    21.9189  1224.6319 </r>
       <r>    15.5509    17.5128  1227.0012 </r>
       <r>    15.6862    22.4126  1230.0335 </r>
       <r>    15.8215    17.7831  1232.4394 </r>
       <r>    15.9568    18.0366  1234.8796 </r>
       <r>    16.0921    17.8596  1237.2958 </r>
       <r>    16.2274    12.8137  1239.0294 </r>
       <r>    16.3626    18.9692  1241.5958 </r>
       <r>    16.4979    16.9837  1243.8936 </r>
       <r>    16.6332    13.1437  1245.6718 </r>
       <r>    16.7685    12.0778  1247.3058 </r>
       <r>    16.9038     9.9642  1248.6539 </r>
       <r>    17.0391     6.3255  1249.5097 </r>
       <r>    17.1744     1.9164  1249.7690 </r>
       <r>    17.3097     1.6939  1249.9981 </r>
       <r>    17.4450     0.0138  1250.0000 </r>
       <r>    17.5803     0.0000  1250.0000 </r>
       <r>    17.7156     0.0000  1250.0000 </r>
       <r>    17.8509     0.0000  1250.0000 </r>
       <r>    17.9861     0.0000  1250.0000 </r>
       <r>    18.1214     0.0000  1250.0000 </r>
       <r>    18.2567     0.0000  1250.0000 </r>
       <r>    18.3920     0.0000  1250.0000 </r>
       <r>    18.5273     0.0000  1250.0000 </r>
       <r>    18.6626     0.0000  1250.0000 </r>
       <r>    18.7979     0.0000  1250.0000 </r>
       <r>    18.9332     0.0000  1250.0000 </r>
       <r>    19.0685     0.0000  1250.0000 </r>
      </set>
     </set>
    </array>
   </total>
  </dos>
 </calculation>
 <structure name="finalpos" >
  <crystal>
   <varray name="basis" >
    <v>       0.00000000      12.28047342       0.00000000 </v>
    <v>       9.14270205       0.00000000       0.00000000 </v>
    <v>       0.00000000      -2.76826177     -11.30069772 </v>
   </varray>
   <i name="volume">   1268.80515525 </i>
   <varray name="rec_basis" >
    <v>       0.00000000       0.08143009      -0.01994742 </v>
    <v>       0.10937686      -0.00000000       0.00000000 </v>
    <v>       0.00000000       0.00000000      -0.08849011 </v>
   </varray>
  </crystal>
  <varray name="positions" >
   <v>       0.66034400       0.99894297       0.15879501 </v>
   <v>       0.65868450       0.99848318       0.65585433 </v>
   <v>       0.66078668       0.33114162       0.15883978 </v>
   <v>       0.65789788       0.33218000       0.65627947 </v>
   <v>       0.66091696       0.66597312       0.15837748 </v>
   <v>       0.65826366       0.66486602       0.65771060 </v>
   <v>       0.84896102       0.16268191       0.34462140 </v>
   <v>       0.83745788       0.16499296       0.84068190 </v>
   <v>       0.84142735       0.49837046       0.34564271 </v>
   <v>       0.84054264       0.49916101       0.84264926 </v>
   <v>       0.84517952       0.83174891       0.34576620 </v>
   <v>       0.83963370       0.83054547       0.84191523 </v>
   <v>       0.59327103       0.16692771       0.39731735 </v>
   <v>       0.59066791       0.16480661       0.89870803 </v>
   <v>       0.59047111       0.49916509       0.39821552 </v>
   <v>       0.59138519       0.49846394       0.89949752 </v>
   <v>       0.59426269       0.83233464       0.39870271 </v>
   <v>       0.59136545       0.83128710       0.89931686 </v>
   <v>       0.90219882       0.99606719       0.09883072 </v>
   <v>       0.91001211       0.99778945       0.60084049 </v>
   <v>       0.90393798       0.33758455       0.09946537 </v>
   <v>       0.90939537       0.33079415       0.60297725 </v>
   <v>       0.90866706       0.66573554       0.10279565 </v>
   <v>       0.90982048       0.66466945       0.60418350 </v>
   <v>       0.15956328       0.16127759       0.65134504 </v>
   <v>       0.15905582       0.50295447       0.16862926 </v>
   <v>       0.15926645       0.49740618       0.66046899 </v>
   <v>       0.15667563       0.83471511       0.17326306 </v>
   <v>       0.15929651       0.83320619       0.65362968 </v>
   <v>       0.34515772       0.00320035       0.34414744 </v>
   <v>       0.34078116       0.99866251       0.84539282 </v>
   <v>       0.33945369       0.33093575       0.34253356 </v>
   <v>       0.34081128       0.33049490       0.84603497 </v>
   <v>       0.34329147       0.66538383       0.34837117 </v>
   <v>       0.33954237       0.66491590       0.84562334 </v>
   <v>       0.11444562       0.99003585       0.37783348 </v>
   <v>       0.08553540       0.99799770       0.88992432 </v>
   <v>       0.09074541       0.32923411       0.39971739 </v>
   <v>       0.08776504       0.32831031       0.89441804 </v>
   <v>       0.08804960       0.66490397       0.40262300 </v>
   <v>       0.09393998       0.66461884       0.90380243 </v>
   <v>       0.41211114       0.16571632       0.10697501 </v>
   <v>       0.40826935       0.16511396       0.60360422 </v>
   <v>       0.41118589       0.50005889       0.10397394 </v>
   <v>       0.40974229       0.49855259       0.60602611 </v>
   <v>       0.40885285       0.83299917       0.10414875 </v>
   <v>       0.40953111       0.83258494       0.60508880 </v>
   <v>       0.99133965       0.16624986       0.10799038 </v>
   <v>       0.99699879       0.16458380       0.62619711 </v>
   <v>       0.99639523       0.49877355       0.12758612 </v>
   <v>       0.99655951       0.49756650       0.63201362 </v>
   <v>       0.99458742       0.83465245       0.12698815 </v>
   <v>       0.99698514       0.83111674       0.63131858 </v>
   <v>       0.50743376       0.99874170       0.37573253 </v>
   <v>       0.50341922       0.99771378       0.87473956 </v>
   <v>       0.50445799       0.33242223       0.37456770 </v>
   <v>       0.50350205       0.33192187       0.87520682 </v>
   <v>       0.50480199       0.66740915       0.37053897 </v>
   <v>       0.50277980       0.66488777       0.87682282 </v>
   <v>       0.67529583       0.16578852       0.28094743 </v>
   <v>       0.67123509       0.16480865       0.78033812 </v>
   <v>       0.67409998       0.49826921       0.28218187 </v>
   <v>       0.67162501       0.49876719       0.78116996 </v>
   <v>       0.67560417       0.83188947       0.28160810 </v>
   <v>       0.67172018       0.83095862       0.78106306 </v>
   <v>       0.82862370       0.99988384       0.21963453 </v>
   <v>       0.82723648       0.99713167       0.71830311 </v>
   <v>       0.82971509       0.33053179       0.22011458 </v>
   <v>       0.82670567       0.33285616       0.71917881 </v>
   <v>       0.82894576       0.66465807       0.22087267 </v>
   <v>       0.82769450       0.66411270       0.72095615 </v>
   <v>       0.83130710       0.99882314       0.44555312 </v>
   <v>       0.82910137       0.99768241       0.94284022 </v>
   <v>       0.83536934       0.32887084       0.44577647 </v>
   <v>       0.82947627       0.33273030       0.94354808 </v>
   <v>       0.83243224       0.66503073       0.44799451 </v>
   <v>       0.83216764       0.66496530       0.94636915 </v>
   <v>       0.66961310       0.16506877       0.05471002 </v>
   <v>       0.66845653       0.16599563       0.55484611 </v>
   <v>       0.66991859       0.49867213       0.05593683 </v>
   <v>       0.66750512       0.49925064       0.55486405 </v>
   <v>       0.67069825       0.83229261       0.05533130 </v>
   <v>       0.66859896       0.83075694       0.55575422 </v>
   <v>       0.49841583       0.99733127       0.12778359 </v>
   <v>       0.49660980       0.99939404       0.62898198 </v>
   <v>       0.49859012       0.33368079       0.12742979 </v>
   <v>       0.49622323       0.33104627       0.63008034 </v>
   <v>       0.49748049       0.66749517       0.12824667 </v>
   <v>       0.49662525       0.66576739       0.63068437 </v>
   <v>       0.01143639       0.15707498       0.36466716 </v>
   <v>       0.99882775       0.16419903       0.86603068 </v>
   <v>       0.00227029       0.49710411       0.37642969 </v>
   <v>       0.00545935       0.49753143       0.87963026 </v>
   <v>       0.00514243       0.83355788       0.37572443 </v>
   <v>       0.00342344       0.82960075       0.87657929 </v>
   <v>       0.17279665       0.99847300       0.78045808 </v>
   <v>       0.17637667       0.35790324       0.29172052 </v>
   <v>       0.17318047       0.32970387       0.78325692 </v>
   <v>       0.17420181       0.66722785       0.28847066 </v>
   <v>       0.17233816       0.66452003       0.78405462 </v>
   <v>       0.33832657       0.16480953       0.22774945 </v>
   <v>       0.32759669       0.16451905       0.72169952 </v>
   <v>       0.32728031       0.50115982       0.21811795 </v>
   <v>       0.32795506       0.49764936       0.72310576 </v>
   <v>       0.32350385       0.84062669       0.21949151 </v>
   <v>       0.32769101       0.83129432       0.72209640 </v>
   <v>       0.32893143       0.16542280       0.44738025 </v>
   <v>       0.33275221       0.16437175       0.95006665 </v>
   <v>       0.33977655       0.49960549       0.44870982 </v>
   <v>       0.32871317       0.49715034       0.94920593 </v>
   <v>       0.33668594       0.83398502       0.44707053 </v>
   <v>       0.32841912       0.83288566       0.94866815 </v>
   <v>       0.15218156       0.01841404       0.05491585 </v>
   <v>       0.16705324       0.99626412       0.55061036 </v>
   <v>       0.15466989       0.30559509       0.05953410 </v>
   <v>       0.16765620       0.33254992       0.55690977 </v>
   <v>       0.16486111       0.66873423       0.06264132 </v>
   <v>       0.16927007       0.66254365       0.55765026 </v>
   <v>       0.13741302       0.16031413       0.14162819 </v>
  </varray>
 </structure>
</modeling>
