 running    4 mpi-ranks, on    1 nodes
 distrk:  each k-point on    1 cores,    4 groups
 distr:  one band on    1 cores,    1 groups
 OpenACC runtime initialized ...    4 GPUs detected
 vasp.6.4.2 20Jul23 (build Nov 12 2023 22:16:35) complex                         
 POSCAR found type information on POSCAR GaO P 
 POSCAR found :  3 types and     120 ions
 scaLAPACK will be used selectively (only on CPU)
 LDA part: xc-table for Pade appr. of Perdew
 POSCAR, INCAR and KPOINTS ok, starting setup
 FFT: planning ... GRIDC
 FFT: planning ... GRID_SOFT
 FFT: planning ... GRID
 WAVECAR not read
 initial charge from wavefunction
 entering main loop
       N       E                     dE             d eps       ncg     rms          ort
DAV:   1    -0.217267182726E+05   -0.21727E+05   -0.54707E+05  5064   0.751E+03
DAV:   2    -0.664644053883E+05   -0.44738E+05   -0.43233E+05  5064   0.124E+03
DAV:   3    -0.716072838541E+05   -0.51429E+04   -0.45750E+04  5064   0.373E+02
DAV:   4    -0.723357527865E+05   -0.72847E+03   -0.66389E+03  5064   0.118E+02
DAV:   5    -0.393148536991E+05    0.33021E+05   -0.71962E+02  5064   0.594E+01
 gam= 0.000 g(H,U,f)=  0.842E+05 0.139E+05 0.132E-13 ort(H,U,f) = 0.000E+00 0.000E+00 0.000E+00
SDA:   6     0.355957821925E+05    0.74911E+05   -0.71962E+02  5064   0.981E+05 0.000E+00
 gam= 0.000 trial= 0.400  step= 0.609 mean= 0.400
 gam= 0.963 g(H,U,f)=  0.671E+05 0.235E+05 0.394E+04 ort(H,U,f) =-0.154E+05-0.132E+05-0.231E+04
CGA:   7     0.154205977509E+05   -0.20175E+05   -0.29884E+05  5064   0.945E+05-0.309E+05
 gam= 0.963 trial= 0.410  step= 0.254 mean= 0.410
 gam= 0.423 g(H,U,f)=  0.287E+05 0.106E+05 0.748E+03 ort(H,U,f) = 0.532E+04 0.758E+04 0.491E+03
CGA:   8     0.974068567481E+04   -0.56799E+04   -0.82137E+04  5064   0.400E+05 0.134E+05
 gam= 0.423 trial= 0.403  step= 0.217 mean= 0.403
 gam= 0.593 g(H,U,f)=  0.193E+05 0.425E+04 0.108E+03 ort(H,U,f) = 0.309E+04-0.240E+04-0.134E+03
CGA:   9     0.636715162989E+04   -0.33735E+04   -0.49465E+04  5064   0.237E+05 0.559E+03
 gam= 0.593 trial= 0.393  step= 0.252 mean= 0.393
 gam= 0.597 g(H,U,f)=  0.103E+05 0.371E+04 0.865E+02 ort(H,U,f) = 0.404E+04-0.282E+04-0.992E+02
CGA:  10     0.383289267907E+04   -0.25343E+04   -0.30239E+04  5064   0.141E+05 0.112E+04
 gam= 0.597 trial= 0.386  step= 0.272 mean= 0.386
 gam= 0.448 g(H,U,f)=  0.501E+04 0.130E+04 0.249E+02 ort(H,U,f) = 0.689E+03 0.211E+03-0.105E+02
CGA:  11     0.206727520252E+04   -0.17656E+04   -0.20122E+04  5064   0.634E+04 0.890E+03
 gam= 0.448 trial= 0.381  step= 0.403 mean= 0.381
 gam= 0.421 g(H,U,f)=  0.235E+04 0.315E+03 0.192E+01 ort(H,U,f) = 0.504E+03 0.838E+02-0.562E+01
CGA:  12     0.697452981011E+03   -0.13698E+04   -0.13564E+04  5064   0.267E+04 0.583E+03
 gam= 0.421 trial= 0.382  step= 0.519 mean= 0.382
 gam= 0.503 g(H,U,f)=  0.114E+04 0.202E+03 0.107E+01 ort(H,U,f) =-0.552E+02 0.271E+03-0.670E+00
CGA:  13    -0.806573919446E+02   -0.77811E+03   -0.75577E+03  5064   0.134E+04 0.215E+03
 gam= 0.503 trial= 0.389  step= 0.619 mean= 0.389
 gam= 0.621 g(H,U,f)=  0.678E+03 0.154E+03 0.759E+00 ort(H,U,f) =-0.263E+03 0.203E+03-0.192E+01
CGA:  14    -0.528465141099E+03   -0.44781E+03   -0.44863E+03  5064   0.833E+03-0.616E+02
 gam= 0.621 trial= 0.400  step= 0.469 mean= 0.400
 gam= 0.693 g(H,U,f)=  0.426E+03 0.151E+03 0.137E+01 ort(H,U,f) =-0.217E+02-0.201E+03-0.571E+00
CGA:  15    -0.704079840731E+03   -0.17561E+03   -0.18631E+03  5064   0.578E+03-0.224E+03
 gam= 0.693 trial= 0.403  step= 0.249 mean= 0.403
 gam= 0.824 g(H,U,f)=  0.274E+03 0.201E+03 0.874E+00 ort(H,U,f) = 0.158E+03-0.154E+03 0.117E+01
CGA:  16    -0.758143725080E+03   -0.54064E+02   -0.52677E+02  5064   0.476E+03 0.536E+01
 gam= 0.824 trial= 0.396  step= 0.258 mean= 0.396
 gam= 0.581 g(H,U,f)=  0.155E+03 0.118E+03 0.335E+01 ort(H,U,f) = 0.481E+02-0.491E+02 0.555E+01
CGA:  17    -0.818451917017E+03   -0.60308E+02   -0.62012E+02  5064   0.276E+03 0.464E+01
 gam= 0.581 trial= 0.389  step= 0.300 mean= 0.389
 gam= 0.632 g(H,U,f)=  0.117E+03 0.581E+02 0.143E-06 ort(H,U,f) =-0.103E+02 0.232E+02 0.457E-06
CGA:  18    -0.858909529015E+03   -0.40458E+02   -0.41861E+02  5064   0.175E+03 0.130E+02
 gam= 0.632 trial= 0.384  step= 0.376 mean= 0.384
 gam= 0.692 g(H,U,f)=  0.876E+02 0.334E+02 0.341E-11 ort(H,U,f) =-0.198E+02 0.314E+02 0.516E-10
CGA:  19    -0.893200291250E+03   -0.34291E+02   -0.34364E+02  5064   0.121E+03 0.117E+02
 gam= 0.692 trial= 0.384  step= 0.436 mean= 0.384
 gam= 0.718 g(H,U,f)=  0.658E+02 0.211E+02 0.684E-27 ort(H,U,f) =-0.227E+02 0.292E+02-0.952E-26
CGA:  20    -0.921497773394E+03   -0.28297E+02   -0.28108E+02  5064   0.869E+02 0.652E+01
 gam= 0.718 trial= 0.387  step= 0.426 mean= 0.387
 gam= 0.657 g(H,U,f)=  0.449E+02 0.122E+02 0.289E-15 ort(H,U,f) =-0.177E+02 0.203E+02 0.495E-15
CGA:  21    -0.941066079583E+03   -0.19568E+02   -0.19526E+02  5064   0.571E+02 0.257E+01
 gam= 0.657 trial= 0.389  step= 0.409 mean= 0.389
 gam= 0.678 g(H,U,f)=  0.313E+02 0.735E+01 0.109E-12 ort(H,U,f) =-0.713E+01 0.862E+01 0.721E-13
CGA:  22    -0.953104610170E+03   -0.12039E+02   -0.12026E+02  5064   0.387E+02 0.150E+01
 gam= 0.678 trial= 0.390  step= 0.407 mean= 0.390
 gam= 0.630 g(H,U,f)=  0.193E+02 0.509E+01 0.110E-20 ort(H,U,f) =-0.519E+00 0.181E+01 0.740E-20
CGA:  23    -0.961193666836E+03   -0.80891E+01   -0.80761E+01  5064   0.244E+02 0.129E+01
 gam= 0.630 trial= 0.390  step= 0.401 mean= 0.390
 gam= 0.570 g(H,U,f)=  0.102E+02 0.370E+01 0.232E-11 ort(H,U,f) = 0.219E+00 0.486E+00 0.149E-13
CGA:  24    -0.966249829822E+03   -0.50562E+01   -0.50514E+01  5064   0.139E+02 0.705E+00
 gam= 0.570 trial= 0.391  step= 0.424 mean= 0.391
 gam= 0.686 g(H,U,f)=  0.690E+01 0.264E+01 0.210E-16 ort(H,U,f) =-0.783E+00 0.107E+01 0.237E-16
CGA:  25    -0.969288954731E+03   -0.30391E+01   -0.30332E+01  5064   0.954E+01 0.287E+00
 gam= 0.686 trial= 0.393  step= 0.444 mean= 0.393
 gam= 0.749 g(H,U,f)=  0.531E+01 0.184E+01 0.247E-11 ort(H,U,f) =-0.109E+01 0.120E+01 0.105E-10
CGA:  26    -0.971452050070E+03   -0.21631E+01   -0.21599E+01  5064   0.715E+01 0.112E+00
 gam= 0.749 trial= 0.395  step= 0.402 mean= 0.395
 gam= 0.633 g(H,U,f)=  0.329E+01 0.124E+01 0.146E-14 ort(H,U,f) =-0.106E+01 0.109E+01-0.307E-13
CGA:  27    -0.972903855411E+03   -0.14518E+01   -0.14518E+01  5064   0.452E+01 0.236E-01
 gam= 0.633 trial= 0.396  step= 0.406 mean= 0.396
 gam= 0.669 g(H,U,f)=  0.224E+01 0.787E+00 0.313E-14 ort(H,U,f) =-0.802E+00 0.806E+00-0.106E-13
CGA:  28    -0.973824553717E+03   -0.92070E+00   -0.92079E+00  5064   0.302E+01 0.372E-02
 gam= 0.669 trial= 0.396  step= 0.443 mean= 0.396
 gam= 0.677 g(H,U,f)=  0.158E+01 0.465E+00 0.395E-17 ort(H,U,f) =-0.400E+00 0.408E+00-0.503E-17
CGA:  29    -0.974494481331E+03   -0.66993E+00   -0.66987E+00  5064   0.205E+01 0.833E-02
 gam= 0.677 trial= 0.398  step= 0.441 mean= 0.398
 gam= 0.583 g(H,U,f)=  0.905E+00 0.288E+00 0.346E-15 ort(H,U,f) =-0.109E+00 0.122E+00 0.387E-15
CGA:  30    -0.974947963814E+03   -0.45348E+00   -0.45315E+00  5064   0.119E+01 0.131E-01
 gam= 0.583 trial= 0.400  step= 0.466 mean= 0.400
 gam= 0.665 g(H,U,f)=  0.585E+00 0.208E+00 0.503E-12 ort(H,U,f) =-0.428E-01 0.500E-01 0.912E-12
CGA:  31    -0.975227706816E+03   -0.27974E+00   -0.27946E+00  5064   0.793E+00 0.724E-02
 gam= 0.665 trial= 0.404  step= 0.478 mean= 0.404
 gam= 0.766 g(H,U,f)=  0.443E+00 0.164E+00 0.116E-15 ort(H,U,f) =-0.522E-01 0.553E-01 0.372E-15
CGA:  32    -0.975418468166E+03   -0.19076E+00   -0.19063E+00  5064   0.607E+00 0.311E-02
 gam= 0.766 trial= 0.407  step= 0.446 mean= 0.407
 gam= 0.717 g(H,U,f)=  0.318E+00 0.117E+00 0.768E-20 ort(H,U,f) =-0.603E-01 0.616E-01 0.272E-19
CGA:  33    -0.975554417721E+03   -0.13595E+00   -0.13593E+00  5064   0.435E+00 0.132E-02
 gam= 0.717 trial= 0.409  step= 0.395 mean= 0.409
 gam= 0.643 g(H,U,f)=  0.202E+00 0.778E-01 0.103E-14 ort(H,U,f) =-0.513E-01 0.520E-01 0.299E-14
CGA:  34    -0.975640630154E+03   -0.86212E-01   -0.86217E-01  5064   0.280E+00 0.695E-03
 gam= 0.643 trial= 0.409  step= 0.412 mean= 0.409
 gam= 0.695 g(H,U,f)=  0.140E+00 0.544E-01 0.105E-17 ort(H,U,f) =-0.358E-01 0.364E-01 0.103E-16
CGA:  35    -0.975698410489E+03   -0.57780E-01   -0.57779E-01  5064   0.195E+00 0.618E-03
 gam= 0.695 trial= 0.409  step= 0.451 mean= 0.409
 gam= 0.674 g(H,U,f)=  0.947E-01 0.365E-01 0.527E-15 ort(H,U,f) =-0.229E-01 0.236E-01-0.424E-14
CGA:  36    -0.975742380487E+03   -0.43970E-01   -0.43953E-01  5064   0.131E+00 0.684E-03
 gam= 0.674 trial= 0.411  step= 0.450 mean= 0.411
 gam= 0.000 g(H,U,f)=  0.569E-01 0.219E-01 0.215E-12 ort(H,U,f) =-0.139E-01 0.143E-01-0.278E-12
SDA:  37    -0.975772043024E+03   -0.29663E-01   -0.29653E-01  5064   0.788E-01 0.437E-03
 gam= 0.000 trial= 0.413  step= 1.046 mean= 0.413
 gam= 0.401 g(H,U,f)=  0.245E-01 0.710E-02 0.252E-21 ort(H,U,f) =-0.101E-01 0.999E-02 0.117E-20
CGA:  38    -0.975813256230E+03   -0.41213E-01   -0.41252E-01  5064   0.316E-01-0.122E-03
 gam= 0.401 trial= 0.445  step= 0.802 mean= 0.445
 gam= 0.365 g(H,U,f)=  0.100E-01 0.154E-02 0.722E-19 ort(H,U,f) =-0.522E-02 0.522E-02 0.347E-18
CGA:  39    -0.975825923193E+03   -0.12667E-01   -0.12668E-01  5064   0.116E-01-0.336E-05
 gam= 0.365 trial= 0.462  step= 0.642 mean= 0.462
 gam= 0.247 g(H,U,f)=  0.252E-02 0.332E-03 0.216E-17 ort(H,U,f) =-0.136E-02 0.140E-02 0.632E-17
CGA:  40    -0.975829631954E+03   -0.37088E-02   -0.37053E-02  5064   0.286E-02 0.403E-04
 gam= 0.247 trial= 0.471  step= 0.712 mean= 0.471
 gam= 0.243 g(H,U,f)=  0.649E-03 0.468E-04 0.761E-17 ort(H,U,f) =-0.256E-03 0.239E-03 0.351E-16
CGA:  41    -0.975830649694E+03   -0.10177E-02   -0.10199E-02  5064   0.695E-03-0.168E-04
 gam= 0.243 trial= 0.483  step= 0.628 mean= 0.483
 gam= 0.258 g(H,U,f)=  0.167E-03 0.124E-04 0.149E-17 ort(H,U,f) =-0.487E-04 0.377E-04 0.203E-16
CGA:  42    -0.975830865972E+03   -0.21628E-03   -0.21718E-03  5064   0.179E-03-0.110E-04
 gam= 0.258 trial= 0.491  step= 0.725 mean= 0.491
 gam= 0.312 g(H,U,f)=  0.531E-04 0.286E-05 0.558E-22 ort(H,U,f) =-0.412E-05 0.765E-05-0.288E-20
CGA:  43    -0.975830930421E+03   -0.64448E-04   -0.64036E-04  5064   0.560E-04 0.353E-05
 gam= 0.312 trial= 0.502  step= 0.612 mean= 0.502
 gam= 0.334 g(H,U,f)=  0.178E-04 0.939E-06 0.528E-19 ort(H,U,f) =-0.101E-06 0.197E-05 0.108E-17
CGA:  44    -0.975830947989E+03   -0.17568E-04   -0.17457E-04  5064   0.187E-04 0.187E-05
 gam= 0.334 trial= 0.508  step= 0.665 mean= 0.508
 gam= 0.397 g(H,U,f)=  0.709E-05 0.328E-06 0.379E-18 ort(H,U,f) =-0.884E-09 0.670E-06 0.122E-18
CGA:  45    -0.975830954463E+03   -0.64742E-05   -0.64196E-05  5064   0.742E-05 0.669E-06
 gam= 0.397 trial= 0.516  step= 0.710 mean= 0.516
 final diagonalization
   1 F= -.97583095E+03 E0= -.97583095E+03  d E =-.107531E-18
 writing wavefunctions
Warning: ieee_invalid is signaling
Warning: ieee_divide_by_zero is signaling
Warning: ieee_underflow is signaling
Warning: ieee_inexact is signaling
FORTRAN STOP
Warning: ieee_invalid is signaling
Warning: ieee_divide_by_zero is signaling
Warning: ieee_underflow is signaling
Warning: ieee_inexact is signaling
FORTRAN STOP
Warning: ieee_invalid is signaling
Warning: ieee_divide_by_zero is signaling
Warning: ieee_underflow is signaling
Warning: ieee_inexact is signaling
FORTRAN STOP
Warning: ieee_invalid is signaling
Warning: ieee_divide_by_zero is signaling
Warning: ieee_underflow is signaling
Warning: ieee_inexact is signaling
FORTRAN STOP
