 vasp.6.4.2 20Jul23 (build Nov 12 2023 22:16:35) complex                         
 executed on              LinuxNV date 2025.03.12  04:27:44
 running    4 mpi-ranks, on    1 nodes
 distrk:  each k-point on    1 cores,    4 groups
 distr:  one band on NCORE=   1 cores,    1 groups
 OpenACC runtime initialized ...    4 GPUs detected


--------------------------------------------------------------------------------------------------------


 INCAR:
   PREC = Normal
   ENCUT = 450
   NELM = 500
   IBRION = -1
   ISPIN = 1
   NSW = 0
   ISIF = 2
   EDIFF = 1E-5
   EDIFFG = -5E-3
   ISTART = 0
   ICHARG = 0
   ISMEAR = 0
   SIGMA = 0.05
   LWAVE = .T.
   LCHARG = .T.
   LREAL = Auto
   LPLANE = .TRUE.
   NPAR = 1
   KPAR = 4
   NCORE = 1
   ALGO = All
   LHFCALC = .TRUE.
   HSE06 = .TRUE.
   HFSCREEN = 0.18
   TIME = 0.4
   AEXX = 0.35
   LMAXFOCK = 4
   PRECFOCK = Fast
   NELECT = 1056

 POTCAR:    PAW_PBE Ga_d 06Jul2010                
 POTCAR:     PAW_PBE O 08Apr2002                  
 POTCAR:    PAW_PBE P 06Sep2000                   
 POTCAR:    PAW_PBE Ga_d 06Jul2010                
   SHA256 =  a60ddf36e14f00ea098d9e3914b3745f1b7105e68786148f49ae384e44b4226c Ga_d/POTCAR           
   COPYR  = (c) Copyright 06Jul2010 Georg Kresse                                                    
   COPYR  = This file is part of the software VASP. Any use, copying, and all other rights are regul
   COPYR  = If you do not have a valid VASP license, you may not use, copy or distribute this file. 
   VRHFIN =Ga: s2p1                                                                                 
   LEXCH  = PE                                                                                      
   EATOM  =  2148.8298 eV,  157.9345 Ry                                                             
                                                                                                    
   TITEL  = PAW_PBE Ga_d 06Jul2010                                                                  
   LULTRA =        F    use ultrasoft PP ?                                                          
   IUNSCR =        1    unscreen: 0-lin 1-nonlin 2-no                                               
   RPACOR =    1.700    partial core radius                                                         
   POMASS =   69.723; ZVAL   =   13.000    mass and valenz                                          
   RCORE  =    2.300    outmost cutoff radius                                                       
   RWIGS  =    2.300; RWIGS  =    1.217    wigner-seitz radius (au A)                               
   ENMAX  =  282.691; ENMIN  =  212.018 eV                                                          
   ICORE  =        3    local potential                                                             
   LCOR   =        T    correct aug charges                                                         
   LPAW   =        T    paw PP                                                                      
   EAUG   =  490.690                                                                                
   DEXC   =    0.000                                                                                
   RMAX   =    2.341    core radius for proj-oper                                                   
   RAUG   =    1.300    factor for augmentation sphere                                              
   RDEP   =    2.413    radius for radial grids                                                     
   RDEPT  =    1.856    core radius for aug-charge                                                  
                                                                                                    
   Atomic configuration                                                                             
    9 entries                                                                                       
     n  l   j            E        occ.                                                              
     1  0  0.50    -10228.7831   2.0000                                                             
     2  0  0.50     -1262.1604   2.0000                                                             
     2  1  1.50     -1098.6333   6.0000                                                             
     3  0  0.50      -148.1110   2.0000                                                             
     3  1  1.50       -98.8436   6.0000                                                             
     3  2  2.50       -19.1549  10.0000                                                             
     4  0  0.50        -8.9483   2.0000                                                             
     4  1  0.50        -2.5791   1.0000                                                             
     4  3  2.50        -2.7416   0.0000                                                             
   Description                                                                                      
     l       E           TYP  RCUT    TYP  RCUT                                                     
     2    -19.1549037     23  2.300                                                                 
     2     -5.4423304     23  2.300                                                                 
     0     -8.9483111     23  2.300                                                                 
     0     68.0291300     23  2.300                                                                 
     1     -2.5790802     23  2.100                                                                 
     1     81.6349560     23  2.300                                                                 
     3      6.8029130     23  2.300                                                                 
  local pseudopotential read in
  partial core-charges read in
  partial kinetic energy density read in
  atomic valenz-charges read in
  non local Contribution for L=            2  read in
    real space projection operators read in
  non local Contribution for L=            2  read in
    real space projection operators read in
  non local Contribution for L=            0  read in
    real space projection operators read in
  non local Contribution for L=            0  read in
    real space projection operators read in
  non local Contribution for L=            1  read in
    real space projection operators read in
  non local Contribution for L=            1  read in
    real space projection operators read in
    PAW grid and wavefunctions read in
 
   number of l-projection  operators is LMAX  =            6
   number of lm-projection operators is LMMAX =           18
 
 POTCAR:     PAW_PBE O 08Apr2002                  
   SHA256 =  818f92134a0a090dccd8ba1447fa70422a3b330e708bb4f08108d8ae51209ddf O/POTCAR              
   COPYR  = (c) Copyright 08Apr2002 Georg Kresse                                                    
   COPYR  = This file is part of the software VASP. Any use, copying, and all other rights are regul
   COPYR  = If you do not have a valid VASP license, you may not use, copy or distribute this file. 
   VRHFIN =O: s2p4                                                                                  
   LEXCH  = PE                                                                                      
   EATOM  =   432.3788 eV,   31.7789 Ry                                                             
                                                                                                    
   TITEL  = PAW_PBE O 08Apr2002                                                                     
   LULTRA =        F    use ultrasoft PP ?                                                          
   IUNSCR =        1    unscreen: 0-lin 1-nonlin 2-no                                               
   RPACOR =    1.200    partial core radius                                                         
   POMASS =   16.000; ZVAL   =    6.000    mass and valenz                                          
   RCORE  =    1.520    outmost cutoff radius                                                       
   RWIGS  =    1.550; RWIGS  =    0.820    wigner-seitz radius (au A)                               
   ENMAX  =  400.000; ENMIN  =  300.000 eV                                                          
   ICORE  =        2    local potential                                                             
   LCOR   =        T    correct aug charges                                                         
   LPAW   =        T    paw PP                                                                      
   EAUG   =  605.392                                                                                
   DEXC   =    0.000                                                                                
   RMAX   =    1.553    core radius for proj-oper                                                   
   RAUG   =    1.300    factor for augmentation sphere                                              
   RDEP   =    1.550    radius for radial grids                                                     
   RDEPT  =    1.329    core radius for aug-charge                                                  
                                                                                                    
   Atomic configuration                                                                             
    4 entries                                                                                       
     n  l   j            E        occ.                                                              
     1  0  0.50      -514.6923   2.0000                                                             
     2  0  0.50       -23.9615   2.0000                                                             
     2  1  0.50        -9.0305   4.0000                                                             
     3  2  1.50        -9.5241   0.0000                                                             
   Description                                                                                      
     l       E           TYP  RCUT    TYP  RCUT                                                     
     0    -23.9615318     23  1.200                                                                 
     0     -9.5240782     23  1.200                                                                 
     1     -9.0304911     23  1.520                                                                 
     1      8.1634956     23  1.520                                                                 
     2     -9.5240782      7  1.500                                                                 
  local pseudopotential read in
  partial core-charges read in
  partial kinetic energy density read in
  kinetic energy density of atom read in
  atomic valenz-charges read in
  non local Contribution for L=            0  read in
    real space projection operators read in
  non local Contribution for L=            0  read in
    real space projection operators read in
  non local Contribution for L=            1  read in
    real space projection operators read in
  non local Contribution for L=            1  read in
    real space projection operators read in
    PAW grid and wavefunctions read in
 
   number of l-projection  operators is LMAX  =            4
   number of lm-projection operators is LMMAX =            8
 
 POTCAR:    PAW_PBE P 06Sep2000                   
   SHA256 =  df60c54a93efe35c9e85ae94c010c75e9f6960a95d5595d7cdba4096d109af88 P/POTCAR              
   COPYR  = (c) Copyright 06Sep2000 Georg Kresse                                                    
   COPYR  = This file is part of the software VASP. Any use, copying, and all other rights are regul
   COPYR  = If you do not have a valid VASP license, you may not use, copy or distribute this file. 
   VRHFIN =P : s2p3                                                                                 
   LEXCH  = PE                                                                                      
   EATOM  =   176.0430 eV,   12.9388 Ry                                                             
                                                                                                    
   TITEL  = PAW_PBE P 06Sep2000                                                                     
   LULTRA =        F    use ultrasoft PP ?                                                          
   IUNSCR =        1    unscreen: 0-lin 1-nonlin 2-no                                               
   RPACOR =    1.500    partial core radius                                                         
   POMASS =   30.974; ZVAL   =    5.000    mass and valenz                                          
   RCORE  =    1.900    outmost cutoff radius                                                       
   RWIGS  =    2.330; RWIGS  =    1.233    wigner-seitz radius (au A)                               
   ENMAX  =  255.040; ENMIN  =  191.280 eV                                                          
   ICORE  =        2    local potential                                                             
   LCOR   =        T    correct aug charges                                                         
   LPAW   =        T    paw PP                                                                      
   EAUG   =  342.924                                                                                
   DEXC   =    0.000                                                                                
   RMAX   =    1.935    core radius for proj-oper                                                   
   RAUG   =    1.300    factor for augmentation sphere                                              
   RDEP   =    1.931    radius for radial grids                                                     
   RDEPT  =    1.794    core radius for aug-charge                                                  
                                                                                                    
   Atomic configuration                                                                             
    6 entries                                                                                       
     n  l   j            E        occ.                                                              
     1  0  0.50     -2084.0982   2.0000                                                             
     2  0  0.50      -173.9859   2.0000                                                             
     2  1  1.50      -124.4865   6.0000                                                             
     3  0  0.50       -13.9692   2.0000                                                             
     3  1  0.50        -5.5067   3.0000                                                             
     3  2  1.50        -5.4423   0.0000                                                             
   Description                                                                                      
     l       E           TYP  RCUT    TYP  RCUT                                                     
     0    -13.9691527     23  1.900                                                                 
     0    -11.7794650     23  1.900                                                                 
     1     -5.5066937     23  1.900                                                                 
     1     -0.2556953     23  1.900                                                                 
     2     -5.4423304     23  1.900                                                                 
  local pseudopotential read in
  partial core-charges read in
  partial kinetic energy density read in
  atomic valenz-charges read in
  non local Contribution for L=            0  read in
    real space projection operators read in
  non local Contribution for L=            0  read in
    real space projection operators read in
  non local Contribution for L=            1  read in
    real space projection operators read in
  non local Contribution for L=            1  read in
    real space projection operators read in
    PAW grid and wavefunctions read in
 
   number of l-projection  operators is LMAX  =            4
   number of lm-projection operators is LMMAX =            8
 
 Optimization of the real space projectors (new method)

 maximal supplied QI-value         = 16.25
 optimisation between [QCUT,QGAM] = [ 10.73, 21.61] = [ 32.22,130.83] Ry 
 Optimized for a Real-space Cutoff    1.42 Angstroem

   l    n(q)    QCUT    max X(q) W(low)/X(q) W(high)/X(q)  e(spline) 
   2      8    10.726     7.143    0.22E-03    0.16E-03    0.73E-07
   2      8    10.726     5.586    0.40E-03    0.26E-03    0.10E-06
   0      9    10.726    12.382    0.25E-04    0.21E-05    0.37E-07
   0      9    10.726     6.622    0.42E-04    0.48E-05    0.77E-07
   1      9    10.726     7.935    0.27E-03    0.13E-04    0.16E-06
   1      9    10.726     2.425    0.23E-03    0.15E-04    0.14E-06
 Optimization of the real space projectors (new method)

 maximal supplied QI-value         = 24.76
 optimisation between [QCUT,QGAM] = [ 10.64, 21.54] = [ 31.73,129.89] Ry 
 Optimized for a Real-space Cutoff    1.23 Angstroem

   l    n(q)    QCUT    max X(q) W(low)/X(q) W(high)/X(q)  e(spline) 
   0      8    10.645    20.381    0.38E-03    0.60E-03    0.15E-06
   0      8    10.645    15.268    0.40E-03    0.65E-03    0.17E-06
   1      7    10.645     5.964    0.30E-03    0.63E-03    0.18E-06
   1      7    10.645     5.382    0.24E-03    0.53E-03    0.16E-06
 Optimization of the real space projectors (new method)

 maximal supplied QI-value         = 19.84
 optimisation between [QCUT,QGAM] = [ 10.71, 21.63] = [ 32.15,130.99] Ry 
 Optimized for a Real-space Cutoff    1.19 Angstroem

   l    n(q)    QCUT    max X(q) W(low)/X(q) W(high)/X(q)  e(spline) 
   0      8    10.715   160.924    0.37E-03    0.37E-04    0.63E-07
   0      8    10.715   130.086    0.37E-03    0.36E-04    0.63E-07
   1      7    10.715    74.434    0.19E-03    0.56E-03    0.65E-07
   1      7    10.715    49.120    0.19E-03    0.55E-03    0.63E-07
  PAW_PBE Ga_d 06Jul2010                :
 energy of atom  1       EATOM=-2148.8298
 kinetic energy error for atom=    0.0038 (will be added to EATOM!!)
   PAW_PBE O 08Apr2002                  :
 energy of atom  2       EATOM= -432.3788
 kinetic energy error for atom=    0.0389 (will be added to EATOM!!)
  PAW_PBE P 06Sep2000                   :
 energy of atom  3       EATOM= -176.0430
 kinetic energy error for atom=    0.0019 (will be added to EATOM!!)
 
 
 POSCAR: Ga48 O72
  positions in direct lattice
  velocities in cartesian coordinates
 exchange correlation table for  LEXCH =        8
   RHO(1)=    0.500       N(1)  =     2000
   RHO(2)=  100.500       N(2)  =     4000
 


--------------------------------------------------------------------------------------------------------


 ion  position               nearest neighbor table
   1  0.661  0.000  0.156-  85 1.93  83 1.95  79 1.95  67 2.01  61 2.08  65 2.08
   2  0.659  0.000  0.657-  86 1.93  80 1.95  84 1.95  68 2.01  62 2.07  66 2.07
   3  0.660  0.335  0.155-  87 1.91  81 1.95  79 1.96  69 2.00  63 2.06  61 2.09
   4  0.660  0.334  0.657-  88 1.92  82 1.94  80 1.95  70 2.01  64 2.07  62 2.08
   5  0.660  0.665  0.155-  89 1.91  81 1.95  83 1.96  71 2.00  63 2.06  65 2.09
   6  0.660  0.666  0.657-  90 1.92  82 1.94  84 1.95  72 2.01  64 2.07  66 2.08
   7  0.835  0.169  0.344-  91 1.89  75 1.96  73 1.97  61 1.97  69 2.07  67 2.09
   8  0.840  0.167  0.845-  92 1.94  76 1.94  74 1.95  62 2.02  68 2.08  70 2.09
   9  0.841  0.500  0.344-  93 1.93  77 1.96  75 1.96  63 2.02  71 2.07  69 2.07
  10  0.840  0.500  0.841-  94 1.94  78 1.94  76 1.94  64 2.00  72 2.07  70 2.07
  11  0.835  0.831  0.344-  95 1.89  77 1.96  73 1.97  65 1.97  71 2.07  67 2.09
  12  0.840  0.833  0.845-  96 1.94  78 1.94  74 1.95  66 2.02  68 2.08  72 2.09
  13  0.592  0.169  0.398-  57 1.83  80 1.84  55 1.84  61 1.87
  14  0.591  0.167  0.898-  79 1.84  58 1.85  56 1.85  62 1.87
  15  0.596  0.500  0.398-  57 1.83  59 1.83  82 1.84  63 1.87
  16  0.593  0.500  0.897-  81 1.84  60 1.85  58 1.85  64 1.86
  17  0.592  0.831  0.398-  59 1.83  84 1.84  55 1.84  65 1.87
  18  0.591  0.833  0.898-  83 1.84  60 1.85  56 1.85  66 1.87
  19  0.910  0.000  0.103-  49 1.84  53 1.84  74 1.86  67 1.88
  20  0.907  0.000  0.604-  73 1.85  54 1.85  50 1.85  68 1.86
  21  0.905  0.335  0.100-  49 1.82  76 1.84  51 1.85  69 1.87
  22  0.907  0.333  0.600-  75 1.84  50 1.85  52 1.85  70 1.87
  23  0.905  0.665  0.100-  53 1.82  78 1.84  51 1.85  71 1.87
  24  0.907  0.667  0.600-  77 1.84  54 1.85  52 1.85  72 1.87
  25  0.161  0.171  0.148- 116 1.90 114 2.01  49 2.03 102 2.09  98 2.19 120 2.23
  26  0.159  0.168  0.660- 115 1.92 117 1.96  50 1.96 103 2.03  99 2.04  97 2.07
  27  0.157  0.500  0.160-  51 1.96 116 1.97 118 1.97 100 2.00  98 2.00 104 2.05
  28  0.159  0.500  0.654- 117 1.94 119 1.94  52 1.95 105 2.02 101 2.09  99 2.09
  29  0.161  0.829  0.148- 118 1.90 114 2.01  53 2.03 106 2.09 100 2.19 120 2.23
  30  0.159  0.832  0.660- 115 1.92 119 1.96  54 1.96 107 2.03 101 2.04  97 2.07
  31  0.350  0.000  0.354-  55 1.89 108 1.97 112 1.97 120 2.21 106 2.27 102 2.27
  32  0.341  0.000  0.846- 109 1.94 113 1.94  56 1.95  97 2.01 103 2.09 107 2.09
  33  0.343  0.334  0.341- 108 1.94 110 1.96  57 1.96 102 2.01  98 2.03 104 2.06
  34  0.342  0.334  0.843- 109 1.94 111 1.94  58 1.95  99 2.04 103 2.06 105 2.08
  35  0.343  0.666  0.341- 112 1.94 110 1.96  59 1.96 106 2.01 100 2.03 104 2.06
  36  0.342  0.666  0.843- 113 1.94 111 1.94  60 1.95 101 2.04 107 2.06 105 2.08
  37  0.068  0.000  0.416- 115 1.83  95 1.85  91 1.85 120 2.15
  38  0.088  0.000  0.894- 114 1.81  96 1.85  92 1.85  97 1.86
  39  0.091  0.333  0.396-  91 1.85  98 1.85 117 1.85  93 1.86
  40  0.089  0.334  0.896- 116 1.84  94 1.84  92 1.84  99 1.87
  41  0.091  0.667  0.396-  95 1.85 100 1.85 119 1.85  93 1.86
  42  0.089  0.666  0.896- 118 1.84  94 1.84  96 1.84 101 1.87
  43  0.413  0.168  0.102- 102 1.83 109 1.84  85 1.85  87 1.85
  44  0.413  0.169  0.607- 108 1.81  88 1.84  86 1.85 103 1.87
  45  0.410  0.500  0.102-  87 1.85  89 1.85 111 1.85 104 1.85
  46  0.411  0.500  0.601- 110 1.83  90 1.84  88 1.84 105 1.88
  47  0.413  0.832  0.102- 106 1.83 113 1.84  85 1.85  89 1.85
  48  0.413  0.831  0.607- 112 1.81  90 1.84  86 1.85 107 1.87
  49  0.991  0.171  0.118-  21 1.82  19 1.84  25 2.03
  50  0.995  0.167  0.629-  22 1.85  20 1.85  26 1.96
  51  0.993  0.500  0.125-  21 1.85  23 1.85  27 1.96
  52  0.996  0.500  0.626-  22 1.85  24 1.85  28 1.95
  53  0.991  0.829  0.118-  23 1.82  19 1.84  29 2.03
  54  0.995  0.833  0.629-  24 1.85  20 1.85  30 1.96
  55  0.507  0.000  0.372-  13 1.84  17 1.84  31 1.89
  56  0.504  0.000  0.873-  14 1.85  18 1.85  32 1.95
  57  0.507  0.336  0.372-  13 1.83  15 1.83  33 1.96
  58  0.505  0.334  0.873-  14 1.85  16 1.85  34 1.95
  59  0.507  0.664  0.372-  17 1.83  15 1.83  35 1.96
  60  0.505  0.666  0.873-  18 1.85  16 1.85  36 1.95
  61  0.671  0.166  0.279-  13 1.87   7 1.97   1 2.08   3 2.09
  62  0.672  0.166  0.780-  14 1.87   8 2.02   2 2.07   4 2.08
  63  0.673  0.500  0.278-  15 1.87   9 2.02   3 2.06   5 2.06
  64  0.673  0.500  0.780-  16 1.86  10 2.00   4 2.07   6 2.07
  65  0.671  0.834  0.279-  17 1.87  11 1.97   1 2.08   5 2.09
  66  0.672  0.834  0.780-  18 1.87  12 2.02   2 2.07   6 2.08
  67  0.828  0.000  0.221-  19 1.88   1 2.01  11 2.09   7 2.09
  68  0.826  0.000  0.721-  20 1.86   2 2.01  12 2.08   8 2.08
  69  0.826  0.334  0.220-  21 1.87   3 2.00   9 2.07   7 2.07
  70  0.827  0.333  0.719-  22 1.87   4 2.01  10 2.07   8 2.09
  71  0.826  0.666  0.220-  23 1.87   5 2.00   9 2.07  11 2.07
  72  0.827  0.667  0.719-  24 1.87   6 2.01  10 2.07  12 2.09
  73  0.830  0.000  0.447-  20 1.85  11 1.97   7 1.97
  74  0.830  0.000  0.946-  19 1.86  12 1.95   8 1.95
  75  0.824  0.336  0.447-  22 1.84   9 1.96   7 1.96
  76  0.828  0.335  0.943-  21 1.84  10 1.94   8 1.94
  77  0.824  0.664  0.447-  24 1.84   9 1.96  11 1.96
  78  0.828  0.665  0.943-  23 1.84  10 1.94  12 1.94
  79  0.670  0.167  0.054-  14 1.84   1 1.95   3 1.96
  80  0.668  0.166  0.555-  13 1.84   2 1.95   4 1.95
  81  0.673  0.500  0.052-  16 1.84   5 1.95   3 1.95
  82  0.669  0.500  0.555-  15 1.84   6 1.94   4 1.94
  83  0.670  0.833  0.054-  18 1.84   1 1.95   5 1.96
  84  0.668  0.834  0.555-  17 1.84   2 1.95   6 1.95
  85  0.499  0.000  0.125-  43 1.85  47 1.85   1 1.93
  86  0.497  0.000  0.630-  44 1.85  48 1.85   2 1.93
  87  0.500  0.336  0.123-  45 1.85  43 1.85   3 1.91
  88  0.500  0.336  0.633-  44 1.84  46 1.84   4 1.92
  89  0.500  0.664  0.123-  45 1.85  47 1.85   5 1.91
  90  0.500  0.664  0.633-  48 1.84  46 1.84   6 1.92
  91  0.993  0.176  0.383-  39 1.85  37 1.85   7 1.89
  92  0.002  0.167  0.870-  40 1.84  38 1.85   8 1.94
  93  0.002  0.500  0.375-  39 1.86  41 1.86   9 1.93
  94  0.002  0.500  0.870-  40 1.84  42 1.84  10 1.94
  95  0.993  0.824  0.383-  41 1.85  37 1.85  11 1.89
  96  0.002  0.833  0.870-  42 1.84  38 1.85  12 1.94
  97  0.174  0.000  0.782-  38 1.86  32 2.01  26 2.07  30 2.07
  98  0.173  0.342  0.282-  39 1.85  27 2.00  33 2.03  25 2.19
  99  0.172  0.334  0.780-  40 1.87  34 2.04  26 2.04  28 2.09
 100  0.173  0.658  0.282-  41 1.85  27 2.00  35 2.03  29 2.19
 101  0.172  0.666  0.780-  42 1.87  36 2.04  30 2.04  28 2.09
 102  0.334  0.180  0.217-  43 1.83  33 2.01  25 2.09  31 2.27
 103  0.328  0.167  0.721-  44 1.87  26 2.03  34 2.06  32 2.09
 104  0.329  0.500  0.218-  45 1.85  27 2.05  35 2.06  33 2.06
 105  0.327  0.500  0.718-  46 1.88  28 2.02  36 2.08  34 2.08
 106  0.334  0.820  0.217-  47 1.83  35 2.01  29 2.09  31 2.27
 107  0.328  0.833  0.721-  48 1.87  30 2.03  36 2.06  32 2.09
 108  0.345  0.175  0.451-  44 1.81  33 1.94  31 1.97
 109  0.335  0.169  0.946-  43 1.84  34 1.94  32 1.94
 110  0.336  0.500  0.445-  46 1.83  35 1.96  33 1.96
 111  0.333  0.500  0.945-  45 1.85  36 1.94  34 1.94
 112  0.345  0.825  0.451-  48 1.81  35 1.94  31 1.97
 113  0.335  0.831  0.946-  47 1.84  36 1.94  32 1.94
 114  0.175  0.000  0.043-  38 1.81  29 2.01  25 2.01
 115  0.164  0.000  0.563-  37 1.83  30 1.92  26 1.92
 116  0.166  0.338  0.051-  40 1.84  25 1.90  27 1.97
 117  0.167  0.332  0.554-  39 1.85  28 1.94  26 1.96
 118  0.166  0.662  0.051-  42 1.84  29 1.90  27 1.97
 119  0.167  0.668  0.554-  41 1.85  28 1.94  30 1.96
 120  0.167  0.000  0.286-  37 2.15  31 2.21  25 2.23  29 2.23
 
  LATTYP: Found a simple monoclinic cell.
 ALAT       =    11.6348202465
 B/A-ratio  =     0.7858051831
 C/A-ratio  =     1.0554931797
 COS(beta)  =    -0.2379290539
  
  Lattice vectors:
  
 A1 = (   0.0000000000,  -2.7682617730, -11.3006977184)
 A2 = (  -9.1427020537,   0.0000000000,   0.0000000000)
 A3 = (   0.0000000000,  12.2804734172,   0.0000000000)


Analysis of symmetry for initial positions (statically):
=====================================================================
 Subroutine PRICEL returns:
 Original cell was already a primitive cell.
 

 Routine SETGRP: Setting up the symmetry group for a 
 simple monoclinic supercell.


 Subroutine GETGRP returns: Found  2 space group operations
 (whereof  2 operations were pure point group operations)
 out of a pool of  4 trial point group operations.


The static configuration has the point symmetry C_1h.


Analysis of symmetry for dynamics (positions and initial velocities):
=====================================================================
 Subroutine PRICEL returns:
 Original cell was already a primitive cell.
 

 Routine SETGRP: Setting up the symmetry group for a 
 simple monoclinic supercell.


 Subroutine GETGRP returns: Found  2 space group operations
 (whereof  2 operations were pure point group operations)
 out of a pool of  4 trial point group operations.


The dynamic configuration has the point symmetry C_1h.


 Subroutine INISYM returns: Found  2 space group operations
 (whereof  2 operations are pure point group operations),
 and found     1 'primitive' translations


----------------------------------------------------------------------------------------

                                     Primitive cell                                     

  volume of cell :    1268.8052

  direct lattice vectors                    reciprocal lattice vectors
     0.000000000 12.280473417  0.000000000     0.000000000  0.081430085 -0.019947423
     9.142702054  0.000000000  0.000000000     0.109376855 -0.000000000  0.000000000
     0.000000000 -2.768261773-11.300697718     0.000000000  0.000000000 -0.088490111

  length of vectors
    12.280473417  9.142702054 11.634820246     0.083837691  0.109376855  0.088490111

  position of ions in fractional coordinates (direct lattice)
     0.660508002  0.000000000  0.155515792
     0.658744875  0.000000000  0.657461931
     0.660160298  0.334942252  0.155110374
     0.660277532  0.333702822  0.656764048
     0.660160298  0.665057748  0.155110374
     0.660277532  0.666297178  0.656764048
     0.834785528  0.169167442  0.343768991
     0.839727398  0.166631869  0.844658072
     0.840653391  0.500000000  0.343693632
     0.839611735  0.500000000  0.841299762
     0.834785528  0.830832558  0.343768991
     0.839727398  0.833368131  0.844658072
     0.591536737  0.168792659  0.398297900
     0.591470780  0.166791859  0.897943843
     0.595706841  0.500000000  0.398126187
     0.592960164  0.500000000  0.897053394
     0.591536737  0.831207341  0.398297900
     0.591470780  0.833208141  0.897943843
     0.909998561  0.000000000  0.103343393
     0.906935391  0.000000000  0.604246890
     0.904551122  0.334717183  0.099891553
     0.907487554  0.333494610  0.600461418
     0.904551122  0.665282817  0.099891553
     0.907487554  0.666505390  0.600461418
     0.160718327  0.170767464  0.147649333
     0.158938285  0.168394680  0.660098402
     0.157343977  0.500000000  0.159609310
     0.158952953  0.500000000  0.653915688
     0.160718327  0.829232536  0.147649333
     0.158938285  0.831605320  0.660098402
     0.350343309  0.000000000  0.353767845
     0.341025775  0.000000000  0.845584974
     0.342920152  0.334291492  0.340829321
     0.342172049  0.334099509  0.843235961
     0.342920152  0.665708508  0.340829321
     0.342172049  0.665900491  0.843235961
     0.068392843  0.000000000  0.416095328
     0.088457608  0.000000000  0.894339342
     0.091004194  0.332855658  0.395756614
     0.088847818  0.333780424  0.895524823
     0.091004194  0.667144342  0.395756614
     0.088847818  0.666219576  0.895524823
     0.413140402  0.168484616  0.101870791
     0.412588981  0.169352976  0.607278080
     0.409824357  0.500000000  0.102023459
     0.410515205  0.500000000  0.601389375
     0.413140402  0.831515384  0.101870791
     0.412588981  0.830647024  0.607278080
     0.991010687  0.170742128  0.117545597
     0.994855219  0.166808724  0.628909749
     0.993246363  0.500000000  0.125346440
     0.995665515  0.500000000  0.625955852
     0.991010687  0.829257872  0.117545597
     0.994855219  0.833191276  0.628909749
     0.507391826  0.000000000  0.371608726
     0.504212872  0.000000000  0.872789051
     0.507259100  0.335924948  0.372255914
     0.504920500  0.334018185  0.873232391
     0.507259100  0.664075052  0.372255914
     0.504920500  0.665981815  0.873232391
     0.670874909  0.166292012  0.279191960
     0.672154236  0.166492343  0.780410274
     0.673040156  0.500000000  0.278112704
     0.673063939  0.500000000  0.779540391
     0.670874909  0.833707988  0.279191960
     0.672154236  0.833507657  0.780410274
     0.827822723  0.000000000  0.221007095
     0.826230121  0.000000000  0.720599264
     0.826352037  0.334065281  0.219845753
     0.827398121  0.332719670  0.718908611
     0.826352037  0.665934719  0.219845753
     0.827398121  0.667280330  0.718908611
     0.830369628  0.000000000  0.447204813
     0.830400484  0.000000000  0.945801905
     0.823625350  0.336176329  0.446563236
     0.828199603  0.335064024  0.943064841
     0.823625350  0.663823671  0.446563236
     0.828199603  0.664935976  0.943064841
     0.669915921  0.166921449  0.053855698
     0.667689181  0.166107581  0.554823127
     0.672788098  0.500000000  0.052420067
     0.669162912  0.500000000  0.555300596
     0.669915921  0.833078551  0.053855698
     0.667689181  0.833892419  0.554823127
     0.498800585  0.000000000  0.124639909
     0.497206828  0.000000000  0.629677555
     0.500038419  0.336016838  0.123015481
     0.499697120  0.335695330  0.632825759
     0.500038419  0.663983162  0.123015481
     0.499697120  0.664304670  0.632825759
     0.993328371  0.176345235  0.383408342
     0.001673141  0.167284625  0.870327944
     0.002223260  0.500000000  0.374623052
     0.001631199  0.500000000  0.870399250
     0.993328371  0.823654765  0.383408342
     0.001673141  0.832715375  0.870327944
     0.173766462  0.000000000  0.782281255
     0.173369266  0.342179209  0.281718654
     0.172364810  0.334138881  0.780358096
     0.173369266  0.657820791  0.281718654
     0.172364810  0.665861119  0.780358096
     0.334392103  0.179804619  0.216687147
     0.328072585  0.167433542  0.720930551
     0.328740970  0.500000000  0.217620741
     0.327334481  0.500000000  0.718158924
     0.334392103  0.820195381  0.216687147
     0.328072585  0.832566458  0.720930551
     0.344656838  0.174693245  0.450750709
     0.335427921  0.168518279  0.945548459
     0.336376790  0.500000000  0.445408508
     0.332707273  0.500000000  0.945013859
     0.344656838  0.825306755  0.450750709
     0.335427921  0.831481721  0.945548459
     0.175472411  0.000000000  0.043423628
     0.163852657  0.000000000  0.562850860
     0.166136370  0.337519531  0.051418183
     0.167161539  0.332089265  0.553768999
     0.166136370  0.662480469  0.051418183
     0.167161539  0.667910735  0.553768999
     0.166716454  0.000000000  0.285739253

  ion indices of the primitive-cell ions
   primitive index   ion index
                 1           1
                 2           2
                 3           3
                 4           4
                 5           5
                 6           6
                 7           7
                 8           8
                 9           9
                10          10
                11          11
                12          12
                13          13
                14          14
                15          15
                16          16
                17          17
                18          18
                19          19
                20          20
                21          21
                22          22
                23          23
                24          24
                25          25
                26          26
                27          27
                28          28
                29          29
                30          30
                31          31
                32          32
                33          33
                34          34
                35          35
                36          36
                37          37
                38          38
                39          39
                40          40
                41          41
                42          42
                43          43
                44          44
                45          45
                46          46
                47          47
                48          48
                49          49
                50          50
                51          51
                52          52
                53          53
                54          54
                55          55
                56          56
                57          57
                58          58
                59          59
                60          60
                61          61
                62          62
                63          63
                64          64
                65          65
                66          66
                67          67
                68          68
                69          69
                70          70
                71          71
                72          72
                73          73
                74          74
                75          75
                76          76
                77          77
                78          78
                79          79
                80          80
                81          81
                82          82
                83          83
                84          84
                85          85
                86          86
                87          87
                88          88
                89          89
                90          90
                91          91
                92          92
                93          93
                94          94
                95          95
                96          96
                97          97
                98          98
                99          99
               100         100
               101         101
               102         102
               103         103
               104         104
               105         105
               106         106
               107         107
               108         108
               109         109
               110         110
               111         111
               112         112
               113         113
               114         114
               115         115
               116         116
               117         117
               118         118
               119         119
               120         120

----------------------------------------------------------------------------------------

 
 
 KPOINTS: Automatic mesh                          

Automatic generation of k-mesh.
 Grid dimensions read from file:
 generate k-points for:    2    2    2

 Generating k-lattice:

  Cartesian coordinates                     Fractional coordinates (reciprocal lattice)
     0.000000000  0.040715043 -0.009973711     0.500000000  0.000000000  0.000000000
     0.054688428 -0.000000000  0.000000000     0.000000000  0.500000000  0.000000000
     0.000000000  0.000000000 -0.044245056     0.000000000  0.000000000  0.500000000

  Length of vectors
     0.041918846  0.054688428  0.044245056

  Shift w.r.t. Gamma in fractional coordinates (k-lattice)
     0.000000000  0.000000000  0.000000000

 
 Subroutine IBZKPT returns following result:
 ===========================================
 
 Found      8 irreducible k-points:
 
 Following reciprocal coordinates:
            Coordinates               Weight
  0.000000  0.000000  0.000000      1.000000
  0.500000  0.000000  0.000000      1.000000
  0.000000  0.500000  0.000000      1.000000
  0.500000  0.500000  0.000000      1.000000
  0.000000  0.000000  0.500000      1.000000
  0.500000  0.000000  0.500000      1.000000
  0.000000  0.500000  0.500000      1.000000
  0.500000  0.500000  0.500000      1.000000
 
 Following cartesian coordinates:
            Coordinates               Weight
  0.000000  0.000000 -0.000000      1.000000
  0.000000  0.040715 -0.009974      1.000000
  0.054688  0.000000 -0.000000      1.000000
  0.054688  0.040715 -0.009974      1.000000
  0.000000  0.000000 -0.044245      1.000000
  0.000000  0.040715 -0.054219      1.000000
  0.054688  0.000000 -0.044245      1.000000
  0.054688  0.040715 -0.054219      1.000000
 
 
 Subroutine IBZKPT_HF returns following result:
 ==============================================
 
 Found      8 k-points in 1st BZ
 the following      8 k-points will be used (e.g. in the exchange kernel)
 Following reciprocal coordinates:   # in IRBZ
  0.000000  0.000000  0.000000    0.12500000   1 t-inv F
  0.500000  0.000000  0.000000    0.12500000   2 t-inv F
  0.000000  0.500000  0.000000    0.12500000   3 t-inv F
  0.500000  0.500000  0.000000    0.12500000   4 t-inv F
  0.000000  0.000000  0.500000    0.12500000   5 t-inv F
  0.500000  0.000000  0.500000    0.12500000   6 t-inv F
  0.000000  0.500000  0.500000    0.12500000   7 t-inv F
  0.500000  0.500000  0.500000    0.12500000   8 t-inv F


--------------------------------------------------------------------------------------------------------




 Dimension of arrays:
   k-points           NKPTS =      8   k-points in BZ     NKDIM =      8   number of bands    NBANDS=    633
   number of dos      NEDOS =    301   number of ions     NIONS =    120
   non local maximal  LDIM  =      6   non local SUM 2l+1 LMDIM =     18
   total plane-waves  NPLWV = 184320
   max r-space proj   IRMAX =   1800   max aug-charges    IRDMAX=   5704
   dimension x,y,z NGX =    64 NGY =   48 NGZ =   60
   dimension x,y,z NGXF=   128 NGYF=   96 NGZF=  120
   support grid    NGXF=   128 NGYF=   96 NGZF=  120
   ions per type =              48  71   1
   NGX,Y,Z   is equivalent  to a cutoff of   8.66,  8.73,  8.57 a.u.
   NGXF,Y,Z  is equivalent  to a cutoff of  17.33, 17.46, 17.15 a.u.

 SYSTEM =  unknown system                          
 POSCAR =  Ga48 O72                                

 Startparameter for this run:
   NWRITE =      2    write-flag & timer
   PREC   = normal    normal or accurate (medium, high low for compatibility)
   ISTART =      0    job   : 0-new  1-cont  2-samecut
   ICHARG =      0    charge: 1-file 2-atom 10-const
   ISPIN  =      1    spin polarized calculation?
   LNONCOLLINEAR =      F non collinear calculations
   LSORBIT =      F    spin-orbit coupling
   INIWAV =      1    electr: 0-lowe 1-rand  2-diag
   LASPH  =      F    aspherical Exc in radial PAW
 Electronic Relaxation 1
   ENCUT  =  450.0 eV  33.07 Ry    5.75 a.u.  21.24 15.81 20.12*2*pi/ulx,y,z
   ENINI  =  450.0     initial cutoff
   ENAUG  =  605.4 eV  augmentation charge cutoff
   NELM   =    500;   NELMIN=  2; NELMDL= -5     # of ELM steps 
   EDIFF  = 0.1E-04   stopping-criterion for ELM
   LREAL  =      T    real-space projection
   NLSPLINE    = F    spline interpolate recip. space projectors
   LCOMPAT=      F    compatible to vasp.4.4
   GGA_COMPAT  = T    GGA compatible to vasp.4.4-vasp.4.6
   LMAXPAW     = -100 max onsite density
   LMAXMIX     =    2 max onsite mixed and CHGCAR
   VOSKOWN=      0    Vosko Wilk Nusair interpolation
   ROPT   =   -0.00050  -0.00050  -0.00050
 Ionic relaxation
   EDIFFG = -.5E-02   stopping-criterion for IOM
   NSW    =      0    number of steps for IOM
   NBLOCK =      1;   KBLOCK =      1    inner block; outer block 
   IBRION =     -1    ionic relax: 0-MD 1-quasi-New 2-CG
   NFREE  =      0    steps in history (QN), initial steepest desc. (CG)
   ISIF   =      2    stress and relaxation
   IWAVPR =     10    prediction:  0-non 1-charg 2-wave 3-comb
   ISYM   =      3    0-nonsym 1-usesym 2-fastsym
   LCORR  =      T    Harris-Foulkes like correction to forces

   POTIM  = 0.5000    time-step for ionic-motion
   TEIN   =    0.0    initial temperature
   TEBEG  =    0.0;   TEEND  =   0.0 temperature during run
   SMASS  =  -3.00    Nose mass-parameter (am)
   estimated Nose-frequenzy (Omega)   =  0.10E-29 period in steps = 0.13E+47 mass=  -0.345E-26a.u.
   SCALEE = 1.0000    scale energy and forces
   NPACO  =    256;   APACO  = 10.0  distance and # of slots for P.C.
   PSTRESS=    0.0 pullay stress

  Mass of Ions in am
   POMASS =  69.72 16.00 30.97
  Ionic Valenz
   ZVAL   =  13.00  6.00  5.00
  Atomic Wigner-Seitz radii
   RWIGS  =  -1.00 -1.00 -1.00
  virtual crystal weights 
   VCA    =   1.00  1.00  1.00
   NELECT =    1056.0000    total number of electrons
   NUPDOWN=      -1.0000    fix difference up-down

 DOS related values:
   EMIN   =  10.00;   EMAX   =-10.00  energy-range for DOS
   EFERMI =   0.00;   METHOD = LEGACY      
   ISMEAR =     0;   SIGMA  =   0.05  broadening in eV -4-tet -1-fermi 0-gaus

 Electronic relaxation 2 (details)
   IALGO  =     58    algorithm
   LDIAG  =      T    sub-space diagonalisation (order eigenvalues)
   LSUBROT=      F    optimize rotation matrix (better conditioning)
   TURBO    =      0    0=normal 1=particle mesh
   IRESTART =      0    0=no restart 2=restart with 2 vectors
   NREBOOT  =      0    no. of reboots
   NMIN     =      0    reboot dimension
   EREF     =   0.00    reference energy to select bands
   IMIX   =      4    mixing-type and parameters
     AMIX     =   0.40;   BMIX     =  1.00
     AMIX_MAG =   1.60;   BMIX_MAG =  1.00
     AMIN     =   0.10
     WC   =   100.;   INIMIX=   1;  MIXPRE=   1;  MAXMIX= -45

 Intra band minimization:
   WEIMIN = 0.0000     energy-eigenvalue tresh-hold
   EBREAK =  0.39E-08  absolut break condition
   DEPER  =   0.30     relativ break condition  

   TIME   =   0.40     timestep for ELM

  volume/ion in A,a.u.               =      10.57        71.35
  Fermi-wavevector in a.u.,A,eV,Ry     =   1.539919  2.910025 32.264175  2.371350
  Thomas-Fermi vector in A             =   2.646079
 
 Write flags
   LWAVE        =      T    write WAVECAR
   LDOWNSAMPLE  =      F    k-point downsampling of WAVECAR
   LCHARG       =      T    write CHGCAR
   LVTOT        =      F    write LOCPOT, total local potential
   LVHAR        =      F    write LOCPOT, Hartree potential only
   LELF         =      F    write electronic localiz. function (ELF)
   LORBIT       =      0    0 simple, 1 ext, 2 COOP (PROOUT), +10 PAW based schemes


 Dipole corrections
   LMONO  =      F    monopole corrections only (constant potential shift)
   LDIPOL =      F    correct potential (dipole corrections)
   IDIPOL =      0    1-x, 2-y, 3-z, 4-all directions 
   EPSILON=  1.0000000 bulk dielectric constant

 Exchange correlation treatment:
   GGA     =    --    GGA type
   LEXCH   =     8    internal setting for exchange type
   LIBXC   =     F    Libxc                    
   VOSKOWN =     0    Vosko Wilk Nusair interpolation
   EXXOEP  =     0    0=HF, 1=EXX-LHF (local Hartree Fock) 2=EXX OEP
   LHFCALC =     T    Hartree Fock is set to
   LSYMGRAD=     F    symmetrize gradient (conserves proper symmetry)
   PRECFOCK=fast      Normal, Fast or Accurate (Low or Medium for compatibility)
   LRHFCALC=     F    long range Hartree Fock
   LRSCOR  =     F    long range correlation only (use DFT for short range part)
   LTHOMAS =     F    Thomas Fermi screening in HF
   LMODELHF=     F    short range full HF, long range fraction AEXX
   FOCKCORR=     1    mode to apply convergence corrections
   LFOCKACE=     T    use Adeptively-Compressed-Exchange operator
   ENCUT4O =  -1.0   cutoff for four orbital integrals eV
   LMAXFOCK=     4    L truncation for augmentation on plane wave grid
   LMAXFOCKAE=  -1    L truncation for all-electron charge restoration on plane wave grid
   NMAXFOCKAE=   1    number of basis functions for all-electron charge restoration
   LFOCKAEDFT=     F  apply the AE augmentation even for DFT
   NKREDX  =     1    reduce k-point grid by
   NKREDY  =     1    reduce k-point grid by
   NKREDZ  =     1    reduce k-point grid by
   SHIFTRED=     F    shift reduced grid of Gamma
   HFKIDENT=     F    idential grid for each k-point
   ODDONLY =     F    use only odd q-grid points
   EVENONLY=     F    use only even q-grid points
   HFALPHA =   -1.0000 decay constant for conv. correction
   MCALPHA =    0.0000 extent of test-charge in conv. correction in multipole expansion
   AEXX    =    0.3500 exact exchange contribution
   HFSCREEN=    0.1800 screening length (either q_TF or 0.3 A-1)
   HFSCREENC=   0.1800 screening length for correlation (either q_TF or 0.3 A-1)
   HFRCUT  =    0.0000 spherical cutoff for potential kernel
   ALDAX   =    0.6500 LDA exchange part
   AGGAX   =    0.6500 GGA exchange part
   ALDAC   =    1.0000 LDA correlation
   AGGAC   =    1.0000 GGA correlation
   ENCUTFOCK=  -1.0 apply spherical cutoff to Coloumb kernel
   NBANDSGWLOW=     1    first orbital included in HF term
   NBLOCK_FOCK=    64    blocking factor in FOCK_ACC

 Linear response parameters
   LEPSILON=     F    determine dielectric tensor
   LRPA    =     F    only Hartree local field effects (RPA)
   LNABLA  =     F    use nabla operator in PAW spheres
   LVEL    =     F    velocity operator in full k-point grid
   CSHIFT  =0.1000    complex shift for real part using Kramers Kronig
   OMEGAMAX=  -1.0    maximum frequency
   DEG_THRESHOLD= 0.2000000E-02 threshold for treating states as degnerate
   RTIME   =   -0.100 relaxation time in fs
  (WPLASMAI=    0.000 imaginary part of plasma frequency in eV, 0.658/RTIME)
   DFIELD  = 0.0000000 0.0000000 0.0000000 field for delta impulse in time
 
  Optional k-point grid parameters
   LKPOINTS_OPT  =     F    use optional k-point grid
   KPOINTS_OPT_MODE=     1    mode for optional k-point grid
 
 Orbital magnetization related:
   ORBITALMAG=     F  switch on orbital magnetization
   LCHIMAG   =     F  perturbation theory with respect to B field
   DQ        =  0.001000  dq finite difference perturbation B field
   LLRAUG    =     F  two centre corrections for induced B field
   LBONE     =     F  B-component reconstruction in AE one-centre
   LVGVCALC  =     T  calculate vGv susceptibility
   LVGVAPPL  =     F  apply vGv susceptibility instead of pGv for G=0

 Random number generation:
   RANDOM_GENERATOR = DEFAULT
   PCG_SEED         = not used


--------------------------------------------------------------------------------------------------------


 Static calculation
 charge density and potential will be updated during run
 non-spin polarized calculation
 Conjugate gradient for all bands (Freysoldt, et al. PRB 79, 241103 (2009))
 preconditioned conjugated gradient                                        
 perform sub-space diagonalisation
    before iterative eigenvector-optimisation
 modified Broyden-mixing scheme, WC =      100.0
 initial mixing is a Kerker type mixing with AMIX =  0.4000 and BMIX =      1.0000
 Hartree-type preconditioning will be used
 using additional bands           105
 real space projection scheme for non local part
 use partial core corrections
 no Harris-corrections to forces 
 use gradient corrections 
 use of overlap-Matrix (Vanderbilt PP)
 Gauss-broadening in eV      SIGMA  =   0.05


--------------------------------------------------------------------------------------------------------


  energy-cutoff  :      450.00
  volume of cell :     1268.81
      direct lattice vectors                 reciprocal lattice vectors
     0.000000000 12.280473417  0.000000000     0.000000000  0.081430085 -0.019947423
     9.142702054  0.000000000  0.000000000     0.109376855 -0.000000000  0.000000000
     0.000000000 -2.768261773-11.300697718     0.000000000  0.000000000 -0.088490111

  length of vectors
    12.280473417  9.142702054 11.634820246     0.083837691  0.109376855  0.088490111


 
 k-points in units of 2pi/SCALE and weight: Automatic mesh                          
   0.00000000  0.00000000 -0.00000000       0.125
   0.00000000  0.04071504 -0.00997371       0.125
   0.05468843  0.00000000 -0.00000000       0.125
   0.05468843  0.04071504 -0.00997371       0.125
   0.00000000  0.00000000 -0.04424506       0.125
   0.00000000  0.04071504 -0.05421877       0.125
   0.05468843  0.00000000 -0.04424506       0.125
   0.05468843  0.04071504 -0.05421877       0.125
 
 k-points in reciprocal lattice and weights: Automatic mesh                          
   0.00000000  0.00000000  0.00000000       0.125
   0.50000000  0.00000000  0.00000000       0.125
   0.00000000  0.50000000  0.00000000       0.125
   0.50000000  0.50000000  0.00000000       0.125
   0.00000000  0.00000000  0.50000000       0.125
   0.50000000  0.00000000  0.50000000       0.125
   0.00000000  0.50000000  0.50000000       0.125
   0.50000000  0.50000000  0.50000000       0.125
 
 position of ions in fractional coordinates (direct lattice) 
   0.66050800  0.00000000  0.15551579
   0.65874487  0.00000000  0.65746193
   0.66016030  0.33494225  0.15511037
   0.66027753  0.33370282  0.65676405
   0.66016030  0.66505775  0.15511037
   0.66027753  0.66629718  0.65676405
   0.83478553  0.16916744  0.34376899
   0.83972740  0.16663187  0.84465807
   0.84065339  0.50000000  0.34369363
   0.83961174  0.50000000  0.84129976
   0.83478553  0.83083256  0.34376899
   0.83972740  0.83336813  0.84465807
   0.59153674  0.16879266  0.39829790
   0.59147078  0.16679186  0.89794384
   0.59570684  0.50000000  0.39812619
   0.59296016  0.50000000  0.89705339
   0.59153674  0.83120734  0.39829790
   0.59147078  0.83320814  0.89794384
   0.90999856  0.00000000  0.10334339
   0.90693539  0.00000000  0.60424689
   0.90455112  0.33471718  0.09989155
   0.90748755  0.33349461  0.60046142
   0.90455112  0.66528282  0.09989155
   0.90748755  0.66650539  0.60046142
   0.16071833  0.17076746  0.14764933
   0.15893829  0.16839468  0.66009840
   0.15734398  0.50000000  0.15960931
   0.15895295  0.50000000  0.65391569
   0.16071833  0.82923254  0.14764933
   0.15893829  0.83160532  0.66009840
   0.35034331  0.00000000  0.35376785
   0.34102578  0.00000000  0.84558497
   0.34292015  0.33429149  0.34082932
   0.34217205  0.33409951  0.84323596
   0.34292015  0.66570851  0.34082932
   0.34217205  0.66590049  0.84323596
   0.06839284  0.00000000  0.41609533
   0.08845761  0.00000000  0.89433934
   0.09100419  0.33285566  0.39575661
   0.08884782  0.33378042  0.89552482
   0.09100419  0.66714434  0.39575661
   0.08884782  0.66621958  0.89552482
   0.41314040  0.16848462  0.10187079
   0.41258898  0.16935298  0.60727808
   0.40982436  0.50000000  0.10202346
   0.41051520  0.50000000  0.60138938
   0.41314040  0.83151538  0.10187079
   0.41258898  0.83064702  0.60727808
   0.99101069  0.17074213  0.11754560
   0.99485522  0.16680872  0.62890975
   0.99324636  0.50000000  0.12534644
   0.99566552  0.50000000  0.62595585
   0.99101069  0.82925787  0.11754560
   0.99485522  0.83319128  0.62890975
   0.50739183  0.00000000  0.37160873
   0.50421287  0.00000000  0.87278905
   0.50725910  0.33592495  0.37225591
   0.50492050  0.33401818  0.87323239
   0.50725910  0.66407505  0.37225591
   0.50492050  0.66598182  0.87323239
   0.67087491  0.16629201  0.27919196
   0.67215424  0.16649234  0.78041027
   0.67304016  0.50000000  0.27811270
   0.67306394  0.50000000  0.77954039
   0.67087491  0.83370799  0.27919196
   0.67215424  0.83350766  0.78041027
   0.82782272  0.00000000  0.22100709
   0.82623012  0.00000000  0.72059926
   0.82635204  0.33406528  0.21984575
   0.82739812  0.33271967  0.71890861
   0.82635204  0.66593472  0.21984575
   0.82739812  0.66728033  0.71890861
   0.83036963  0.00000000  0.44720481
   0.83040048  0.00000000  0.94580191
   0.82362535  0.33617633  0.44656324
   0.82819960  0.33506402  0.94306484
   0.82362535  0.66382367  0.44656324
   0.82819960  0.66493598  0.94306484
   0.66991592  0.16692145  0.05385570
   0.66768918  0.16610758  0.55482313
   0.67278810  0.50000000  0.05242007
   0.66916291  0.50000000  0.55530060
   0.66991592  0.83307855  0.05385570
   0.66768918  0.83389242  0.55482313
   0.49880058  0.00000000  0.12463991
   0.49720683  0.00000000  0.62967755
   0.50003842  0.33601684  0.12301548
   0.49969712  0.33569533  0.63282576
   0.50003842  0.66398316  0.12301548
   0.49969712  0.66430467  0.63282576
   0.99332837  0.17634524  0.38340834
   0.00167314  0.16728463  0.87032794
   0.00222326  0.50000000  0.37462305
   0.00163120  0.50000000  0.87039925
   0.99332837  0.82365476  0.38340834
   0.00167314  0.83271537  0.87032794
   0.17376646  0.00000000  0.78228125
   0.17336927  0.34217921  0.28171865
   0.17236481  0.33413888  0.78035810
   0.17336927  0.65782079  0.28171865
   0.17236481  0.66586112  0.78035810
   0.33439210  0.17980462  0.21668715
   0.32807258  0.16743354  0.72093055
   0.32874097  0.50000000  0.21762074
   0.32733448  0.50000000  0.71815892
   0.33439210  0.82019538  0.21668715
   0.32807258  0.83256646  0.72093055
   0.34465684  0.17469324  0.45075071
   0.33542792  0.16851828  0.94554846
   0.33637679  0.50000000  0.44540851
   0.33270727  0.50000000  0.94501386
   0.34465684  0.82530676  0.45075071
   0.33542792  0.83148172  0.94554846
   0.17547241  0.00000000  0.04342363
   0.16385266  0.00000000  0.56285086
   0.16613637  0.33751953  0.05141818
   0.16716154  0.33208927  0.55376900
   0.16613637  0.66248047  0.05141818
   0.16716154  0.66791073  0.55376900
   0.16671645  0.00000000  0.28573925
 
 position of ions in cartesian coordinates  (Angst):
   0.00000000  7.68084254 -1.75743696
   0.00000000  6.26967219 -7.42977854
   3.06227722  7.67769487 -1.75285546
   3.05094548  6.29042587 -7.42189198
   6.08042484  7.67769487 -1.75285546
   6.09175658  6.29042587 -7.42189198
   1.54664752  9.29991892 -3.88482945
   1.52346553  7.97401533 -9.54522555
   4.57135103  9.37218768 -3.88397784
   4.57135103  7.98189162 -9.50727431
   7.59605454  9.29991892 -3.88482945
   7.61923653  7.97401533 -9.54522555
   1.54322099  6.16175832 -4.50104417
   1.52492827  4.77779758-10.14739194
   4.57135103  6.21344452 -4.49910369
   4.57135103  4.79855292-10.13732925
   7.59948106  6.16175832 -4.50104417
   7.61777378  4.77779758-10.14739194
   0.00000000 10.88913157 -1.16785244
   0.00000000  9.46488239 -6.82841145
   3.06021947 10.83179004 -1.12884424
   3.04904185  9.48214239 -6.78563298
   6.08248258 10.83179004 -1.12884424
   6.09366020  9.48214239 -6.78563298
   1.56127605  1.56496514 -1.66854048
   1.53958238  0.12451222 -7.45957250
   4.57135103  1.49041817 -1.80369656
   4.57135103  0.14180771 -7.38970352
   7.58142601  1.56496514 -1.66854048
   7.60311967  0.12451222 -7.45957250
   0.00000000  3.32305970 -3.99782348
   0.00000000  1.84715741 -9.55570019
   3.05632751  3.26771703 -3.85160913
   3.05457226  1.86773687 -9.52915470
   6.08637455  3.26771703 -3.85160913
   6.08812979  1.86773687 -9.52915470
   0.00000000 -0.31196430 -4.70216752
   0.00000000 -1.38946411-10.10665856
   3.04320011  0.02201668 -4.47232586
   3.05165497 -1.38795387-10.12005532
   6.09950195  0.02201668 -4.47232586
   6.09104709 -1.38795387-10.12005532
   1.54040465  4.79155470 -1.15121102
   1.54834380  3.38568332 -6.86266601
   4.57135103  4.75040948 -1.15293627
   4.57135103  3.37651784 -6.79611954
   7.60229740  4.79155470 -1.15121102
   7.59435825  3.38568332 -6.86266601
   1.56104440 11.84468342 -1.32834726
   1.52508246 10.47630625 -7.10711896
   4.57135103 11.85054380 -1.41650223
   4.57135103 10.49443424 -7.07373786
   7.58165765 11.84468342 -1.32834726
   7.61761959 10.47630625 -7.10711896
   0.00000000  5.20230160 -4.19943788
   0.00000000  3.77586421 -9.86312524
   3.07126171  5.19888008 -4.20675156
   3.05382874  3.78332694 -9.86813529
   6.07144034  5.19888008 -4.20675156
   6.08887331  3.78332694 -9.86813529
   1.52035832  7.46578506 -3.15506394
   1.52218988  6.09399229 -8.81918060
   4.57135103  7.49536298 -3.14286760
   4.57135103  6.10757194 -8.80935031
   7.62234373  7.46578506 -3.15506394
   7.62051217  6.09399229 -8.81918060
   0.00000000  9.55424946 -2.49753437
   0.00000000  8.15168964 -8.14327446
   3.05425933  9.53940363 -2.48441040
   3.04195681  8.17071340 -8.12416890
   6.08844272  9.53940363 -2.48441040
   6.10074524  8.17071340 -8.12416890
   0.00000000  8.95935215 -5.05372641
   0.00000000  7.57948381-10.68822143
   3.07356002  8.87830529 -5.04647614
   3.06339054  7.56003286-10.65729069
   6.06914204  8.87830529 -5.04647614
   6.07931151  7.56003286-10.65729069
   1.52611308  8.07779799 -0.60860696
   1.51867212  6.66364359 -6.26988844
   4.57135103  8.11704389 -0.59238333
   4.57135103  6.68041994 -6.27528418
   7.61658898  8.07779799 -0.60860696
   7.62402993  6.66364359 -6.26988844
   0.00000000  5.78047142 -1.40851794
   0.00000000  4.36282293 -7.11579571
   3.07210184  5.80016946 -1.39016077
   3.06916239  4.38468984 -7.15137261
   6.07060022  5.80016946 -1.39016077
   6.07353967  4.38468984 -7.15137261
   1.61227195 11.13716800 -4.33278178
   1.52943349 -2.38874862 -9.83531301
   4.57135103 -1.00975199 -4.23350186
   4.57135103 -2.38946107 -9.83611882
   7.53043011 11.13716800 -4.33278178
   7.61326857 -2.38874862 -9.83531301
   0.00000000 -0.03162487 -8.84032399
   3.12844256  1.34918568 -3.18361736
   3.05493224 -0.04351402 -8.81859095
   6.01425949  1.34918568 -3.18361736
   6.08776982 -0.04351402 -8.81859095
   1.64390006  3.50664659 -2.44871595
   1.53079499  2.03316217 -8.14701823
   4.57135103  3.43466357 -2.45926622
   4.57135103  2.03177049 -8.11569691
   7.49880199  3.50664659 -2.44871595
   7.61190707  2.03316217 -8.14701823
   1.59716829  2.98475318 -5.09379750
   1.54071242  1.50168802-10.68535732
   4.57135103  2.89785888 -5.03342691
   4.57135103  1.46975709-10.67931596
   7.54553377  2.98475318 -5.09379750
   7.60198963  1.50168802-10.68535732
   0.00000000  2.03467631 -0.49071730
   0.00000000  0.45406968 -6.36060742
   3.08584051  1.89789428 -0.58106135
   3.03619321  0.51984528 -6.25797606
   6.05686154  1.89789428 -0.58106135
   6.10650885  0.51984528 -6.25797606
   0.00000000  1.25635593 -3.22905292
 


--------------------------------------------------------------------------------------------------------


 k-point   1 :   0.0000 0.0000 0.0000  plane waves:   27533
 k-point   2 :   0.5000 0.0000 0.0000  plane waves:   27522
 k-point   3 :   0.0000 0.5000 0.0000  plane waves:   27488
 k-point   4 :   0.5000 0.5000 0.0000  plane waves:   27488
 k-point   5 :   0.0000 0.0000 0.5000  plane waves:   27482
 k-point   6 :   0.5000 0.0000 0.5000  plane waves:   27476
 k-point   7 :   0.0000 0.5000 0.5000  plane waves:   27468
 k-point   8 :   0.5000 0.5000 0.5000  plane waves:   27564

 maximum and minimum number of plane-waves per node :     27564    27468

 maximum number of plane-waves:     27564
 maximum index in each direction: 
   IXMAX=   21   IYMAX=   15   IZMAX=   20
   IXMIN=  -21   IYMIN=  -16   IZMIN=  -20


 serial   3D FFT for wavefunctions
 parallel 3D FFT for charge:
    minimum data exchange during FFTs selected (reduces bandwidth)


 FFT grid for exact exchange (Hartree Fock) 
  NGX = 48; NGY = 36; NGZ = 48

 
 Radii for the augmentation spheres in the non-local exchange
 for species   1 augmentation radius   1.392 (default was   1.031)
       energy cutoff for augmentation   1800.0
 for species   2 augmentation radius   0.974 (default was   0.722)
       energy cutoff for augmentation   1800.0
 for species   3 augmentation radius   1.294 (default was   0.959)
       energy cutoff for augmentation   1800.0
 Maximum index for augmentation-charges in exchange           750
  SETUP_FOCK is finished

 total amount of memory used by VASP MPI-rank0  7269129. kBytes
=======================================================================

   base      :      30000. kBytes
   nonlr-proj:      33024. kBytes
   fftplans  :      51012. kBytes
   grid      :     102973. kBytes
   one-center:       1866. kBytes
   HF        :        194. kBytes
   wavefun   :    7050060. kBytes
 
     INWAV:  cpu time      0.0001: real time      0.0001
 Broyden mixing: mesh for mixing (old mesh)
   NGX = 43   NGY = 31   NGZ = 41
  (NGX  =128   NGY  = 96   NGZ  =120)
  gives a total of  54653 points

 charge density for first step will be calculated from the start-wavefunctions


--------------------------------------------------------------------------------------------------------


 Maximum index for non-local projection operator          1726
 Maximum index for augmentation-charges          5359 (set IRDMAX)


--------------------------------------------------------------------------------------------------------


 initial charge from wavefunction
 First call to EWALD:  gamma=   0.164
 Maximum number of real-space cells 3x 3x 3
 Maximum number of reciprocal cells 3x 2x 3

    FEWALD:  cpu time      0.0735: real time      0.0735


--------------------------------------- Ionic step        1  -------------------------------------------




--------------------------------------- Iteration      1(   1)  ---------------------------------------


    POTLOK:  cpu time      0.0307: real time      0.0307
    SETDIJ:  cpu time      0.1210: real time      0.1210
    TRIAL :  cpu time      2.9518: real time      2.9662
    CORREC:  cpu time      0.0015: real time      0.0015
    --------------------------------------------
      LOOP:  cpu time      4.0123: real time      4.0265

 eigenvalue-minimisations  : 10648
 total energy-change (2. order) :-0.2172672E+05  (-0.5470661E+05)
 number of electron    1055.9999479 magnetization 
 augmentation part      121.9015400 magnetization 

 Free energy of the ion-electron system (eV)
  ---------------------------------------------------
  alpha Z        PSCENC =      5529.70323211
  Ewald energy   TEWEN  =    -88550.87271456
  -Hartree energ DENC   =     -2120.67838164
  -exchange      EXHF   =         0.00000000
  -V(xc)+E(xc)   XCENC  =      2796.64281289
  PAW double counting   =    339425.14578583  -371378.80126438
  entropy T*S    EENTRO =        -0.00548176
  eigenvalues    EBANDS =    -41033.66199893
  atomic energy  EATOM  =    133605.80973787
  ---------------------------------------------------
  free energy    TOTEN  =    -21726.71827257 eV

  energy without entropy =   -21726.71279082  energy(sigma->0) =   -21726.71553170
  exchange ACFDT corr.  =         0.00000000  see jH, gK, PRB 81, 115126


--------------------------------------------------------------------------------------------------------




--------------------------------------- Iteration      1(   2)  ---------------------------------------


    TRIAL :  cpu time      3.2060: real time      3.2056
    CORREC:  cpu time      0.0015: real time      0.0015
    --------------------------------------------
      LOOP:  cpu time      3.2078: real time      3.2081

 eigenvalue-minimisations  : 13400
 total energy-change (2. order) :-0.4473769E+05  (-0.4323285E+05)
 number of electron    1055.9999479 magnetization 
 augmentation part      121.9015400 magnetization 

 Free energy of the ion-electron system (eV)
  ---------------------------------------------------
  alpha Z        PSCENC =      5529.70323211
  Ewald energy   TEWEN  =    -88550.87271456
  -Hartree energ DENC   =     -2120.67838164
  -exchange      EXHF   =         0.00000000
  -V(xc)+E(xc)   XCENC  =      2796.64281289
  PAW double counting   =    339425.14578583  -371378.80126438
  entropy T*S    EENTRO =        -0.02134837
  eigenvalues    EBANDS =    -85771.33324807
  atomic energy  EATOM  =    133605.80973787
  ---------------------------------------------------
  free energy    TOTEN  =    -66464.40538832 eV

  energy without entropy =   -66464.38403996  energy(sigma->0) =   -66464.39471414
  exchange ACFDT corr.  =         0.00000000  see jH, gK, PRB 81, 115126


--------------------------------------------------------------------------------------------------------




--------------------------------------- Iteration      1(   3)  ---------------------------------------


    TRIAL :  cpu time      3.4120: real time      3.4116
    CORREC:  cpu time      0.0016: real time      0.0016
    --------------------------------------------
      LOOP:  cpu time      3.4139: real time      3.4138

 eigenvalue-minimisations  : 14602
 total energy-change (2. order) :-0.5142878E+04  (-0.4574970E+04)
 number of electron    1055.9999479 magnetization 
 augmentation part      121.9015400 magnetization 

 Free energy of the ion-electron system (eV)
  ---------------------------------------------------
  alpha Z        PSCENC =      5529.70323211
  Ewald energy   TEWEN  =    -88550.87271456
  -Hartree energ DENC   =     -2120.67838164
  -exchange      EXHF   =         0.00000000
  -V(xc)+E(xc)   XCENC  =      2796.64281289
  PAW double counting   =    339425.14578583  -371378.80126438
  entropy T*S    EENTRO =        -0.02844353
  eigenvalues    EBANDS =    -90914.20461867
  atomic energy  EATOM  =    133605.80973787
  ---------------------------------------------------
  free energy    TOTEN  =    -71607.28385408 eV

  energy without entropy =   -71607.25541055  energy(sigma->0) =   -71607.26963232
  exchange ACFDT corr.  =         0.00000000  see jH, gK, PRB 81, 115126


--------------------------------------------------------------------------------------------------------




--------------------------------------- Iteration      1(   4)  ---------------------------------------


    TRIAL :  cpu time      3.8858: real time      3.8853
    CORREC:  cpu time      0.0016: real time      0.0016
    --------------------------------------------
      LOOP:  cpu time      3.8876: real time      3.8876

 eigenvalue-minimisations  : 18112
 total energy-change (2. order) :-0.7284689E+03  (-0.6638916E+03)
 number of electron    1055.9999479 magnetization 
 augmentation part      121.9015400 magnetization 

 Free energy of the ion-electron system (eV)
  ---------------------------------------------------
  alpha Z        PSCENC =      5529.70323211
  Ewald energy   TEWEN  =    -88550.87271456
  -Hartree energ DENC   =     -2120.67838164
  -exchange      EXHF   =         0.00000000
  -V(xc)+E(xc)   XCENC  =      2796.64281289
  PAW double counting   =    339425.14578583  -371378.80126438
  entropy T*S    EENTRO =        -0.03721977
  eigenvalues    EBANDS =    -91642.66477488
  atomic energy  EATOM  =    133605.80973787
  ---------------------------------------------------
  free energy    TOTEN  =    -72335.75278654 eV

  energy without entropy =   -72335.71556677  energy(sigma->0) =   -72335.73417665
  exchange ACFDT corr.  =         0.00000000  see jH, gK, PRB 81, 115126


--------------------------------------------------------------------------------------------------------




--------------------------------------- Iteration      1(   5)  ---------------------------------------


    POTLOK:  cpu time      1.3624: real time      1.3622
    SETDIJ:  cpu time      0.4660: real time      0.4659
    TRIAL :  cpu time    234.4247: real time    234.3898
    CORREC:  cpu time      0.0006: real time      0.0006
    CHARGE:  cpu time      0.2083: real time      0.2083
    --------------------------------------------
      LOOP:  cpu time    236.4622: real time    236.4275

 eigenvalue-minimisations  : 17720
 total energy-change (2. order) : 0.3302090E+05  (-0.7196172E+02)
 number of electron    1055.9997763 magnetization 
 augmentation part      482.6655666 magnetization 

 Free energy of the ion-electron system (eV)
  ---------------------------------------------------
  alpha Z        PSCENC =      5529.70323211
  Ewald energy   TEWEN  =    -88550.87271456
  -Hartree energ DENC   =     -2120.67838164
  -exchange      EXHF   =      5322.57000476
  -V(xc)+E(xc)   XCENC  =      1853.50271431
  PAW double counting   =    340773.55633466  -342850.90152756
  entropy T*S    EENTRO =        -0.00000000
  eigenvalues    EBANDS =    -92877.54309900
  atomic energy  EATOM  =    133605.80973787
  ---------------------------------------------------
  free energy    TOTEN  =    -39314.85369906 eV

  energy without entropy =   -39314.85369906  energy(sigma->0) =   -39314.85369906
  exchange ACFDT corr.  =        -0.57835011  see jH, gK, PRB 81, 115126


--------------------------------------------------------------------------------------------------------




--------------------------------------- Iteration      1(   6)  ---------------------------------------


    POTLOK:  cpu time      1.3965: real time      1.3963
    SETDIJ:  cpu time      0.4676: real time      0.4675
    TRIAL :  cpu time    233.2598: real time    233.2281
    CORREC:  cpu time    236.9265: real time    236.8802
    CHARGE:  cpu time      0.2119: real time      0.2119
    --------------------------------------------
      LOOP:  cpu time    472.2625: real time    472.1845

 eigenvalue-minimisations  :     0
 total energy-change (2. order) : 0.7491064E+05  (-0.2988408E+05)
 number of electron    1055.9997950 magnetization 
 augmentation part      441.0428338 magnetization 

 Free energy of the ion-electron system (eV)
  ---------------------------------------------------
  alpha Z        PSCENC =      5529.70323211
  Ewald energy   TEWEN  =    -88550.87271456
  -Hartree energ DENC   =    -83978.81518613
  -exchange      EXHF   =      5408.88279526
  -V(xc)+E(xc)   XCENC  =      3627.66428700
  PAW double counting   =    153724.11993207  -178973.62230531
  entropy T*S    EENTRO =        -0.01955472
  eigenvalues    EBANDS =     85202.91241416
  atomic energy  EATOM  =    133605.80973787
  ---------------------------------------------------
  free energy    TOTEN  =     35595.78219248 eV

  energy without entropy =    35595.80174720  energy(sigma->0) =    35595.79196984
  exchange ACFDT corr.  =         0.00000000  see jH, gK, PRB 81, 115126


--------------------------------------------------------------------------------------------------------




--------------------------------------- Iteration      1(   7)  ---------------------------------------


    POTLOK:  cpu time      1.4941: real time      1.4938
    SETDIJ:  cpu time      0.4665: real time      0.4664
    TRIAL :  cpu time    233.9803: real time    233.9449
    CORREC:  cpu time    236.0797: real time    236.0401
    CHARGE:  cpu time      0.2124: real time      0.2123
    --------------------------------------------
      LOOP:  cpu time    472.2333: real time    472.1582

 eigenvalue-minimisations  :     0
 total energy-change (2. order) :-0.2017518E+05  (-0.8213718E+04)
 number of electron    1055.9998276 magnetization 
 augmentation part      407.0525043 magnetization 

 Free energy of the ion-electron system (eV)
  ---------------------------------------------------
  alpha Z        PSCENC =      5529.70323211
  Ewald energy   TEWEN  =    -88550.87271456
  -Hartree energ DENC   =    -38754.45287858
  -exchange      EXHF   =      3878.38390773
  -V(xc)+E(xc)   XCENC  =      2647.26710334
  PAW double counting   =    170431.34250361  -186123.47042286
  entropy T*S    EENTRO =        -0.03412550
  eigenvalues    EBANDS =     12756.90683695
  atomic energy  EATOM  =    133605.80973787
  ---------------------------------------------------
  free energy    TOTEN  =     15420.59775088 eV

  energy without entropy =    15420.63187639  energy(sigma->0) =    15420.61481364
  exchange ACFDT corr.  =      -143.43221048  see jH, gK, PRB 81, 115126


--------------------------------------------------------------------------------------------------------




--------------------------------------- Iteration      1(   8)  ---------------------------------------


    POTLOK:  cpu time      1.4784: real time      1.4782
    SETDIJ:  cpu time      0.4672: real time      0.4671
    TRIAL :  cpu time    234.2609: real time    234.2246
    CORREC:  cpu time    236.1886: real time    236.1631
    CHARGE:  cpu time      0.2094: real time      0.2093
    --------------------------------------------
      LOOP:  cpu time    472.6047: real time    472.5494

 eigenvalue-minimisations  :     0
 total energy-change (2. order) :-0.5679912E+04  (-0.4946457E+04)
 number of electron    1055.9998220 magnetization 
 augmentation part      424.8804316 magnetization 

 Free energy of the ion-electron system (eV)
  ---------------------------------------------------
  alpha Z        PSCENC =      5529.70323211
  Ewald energy   TEWEN  =    -88550.87271456
  -Hartree energ DENC   =    -27651.73100325
  -exchange      EXHF   =      3562.06229373
  -V(xc)+E(xc)   XCENC  =      2471.74124443
  PAW double counting   =    169168.18052641  -182322.91564375
  entropy T*S    EENTRO =        -0.03115751
  eigenvalues    EBANDS =     -6071.25787267
  atomic energy  EATOM  =    133605.80973787
  ---------------------------------------------------
  free energy    TOTEN  =      9740.68567481 eV

  energy without entropy =     9740.71683232  energy(sigma->0) =     9740.70125357
  exchange ACFDT corr.  =      -103.90304894  see jH, gK, PRB 81, 115126


--------------------------------------------------------------------------------------------------------




--------------------------------------- Iteration      1(   9)  ---------------------------------------


    POTLOK:  cpu time      1.5301: real time      1.5299
    SETDIJ:  cpu time      0.4638: real time      0.4638
    TRIAL :  cpu time    234.3767: real time    234.3546
    CORREC:  cpu time    235.9297: real time    235.8947
    CHARGE:  cpu time      0.2227: real time      0.2226
    --------------------------------------------
      LOOP:  cpu time    472.5235: real time    472.4665

 eigenvalue-minimisations  :     0
 total energy-change (2. order) :-0.3373534E+04  (-0.3023945E+04)
 number of electron    1055.9998135 magnetization 
 augmentation part      449.1161295 magnetization 

 Free energy of the ion-electron system (eV)
  ---------------------------------------------------
  alpha Z        PSCENC =      5529.70323211
  Ewald energy   TEWEN  =    -88550.87271456
  -Hartree energ DENC   =    -28496.87684355
  -exchange      EXHF   =      3618.64049820
  -V(xc)+E(xc)   XCENC  =      2504.06713165
  PAW double counting   =    156905.52657429  -171562.84796074
  entropy T*S    EENTRO =        -0.02851560
  eigenvalues    EBANDS =     -7185.96686787
  atomic energy  EATOM  =    133605.80973787
  ---------------------------------------------------
  free energy    TOTEN  =      6367.15162989 eV

  energy without entropy =     6367.18014549  energy(sigma->0) =     6367.16588769
  exchange ACFDT corr.  =       -80.70304277  see jH, gK, PRB 81, 115126


--------------------------------------------------------------------------------------------------------




--------------------------------------- Iteration      1(  10)  ---------------------------------------


    POTLOK:  cpu time      1.4461: real time      1.4459
    SETDIJ:  cpu time      0.5052: real time      0.5052
    TRIAL :  cpu time    234.7420: real time    234.7088
    CORREC:  cpu time    236.0688: real time    236.0357
    CHARGE:  cpu time      0.2165: real time      0.2165
    --------------------------------------------
      LOOP:  cpu time    472.9788: real time    472.9126

 eigenvalue-minimisations  :     0
 total energy-change (2. order) :-0.2534259E+04  (-0.2012220E+04)
 number of electron    1055.9998086 magnetization 
 augmentation part      460.4377197 magnetization 

 Free energy of the ion-electron system (eV)
  ---------------------------------------------------
  alpha Z        PSCENC =      5529.70323211
  Ewald energy   TEWEN  =    -88550.87271456
  -Hartree energ DENC   =    -31457.07943618
  -exchange      EXHF   =      3793.09364312
  -V(xc)+E(xc)   XCENC  =      2610.79535404
  PAW double counting   =    149745.39647520  -166149.09599947
  entropy T*S    EENTRO =        -0.03826691
  eigenvalues    EBANDS =     -5294.82909746
  atomic energy  EATOM  =    133605.80973787
  ---------------------------------------------------
  free energy    TOTEN  =      3832.89267907 eV

  energy without entropy =     3832.93094598  energy(sigma->0) =     3832.91181253
  exchange ACFDT corr.  =       -79.11681711  see jH, gK, PRB 81, 115126


--------------------------------------------------------------------------------------------------------




--------------------------------------- Iteration      1(  11)  ---------------------------------------


    POTLOK:  cpu time      1.4804: real time      1.4802
    SETDIJ:  cpu time      0.4662: real time      0.4661
    TRIAL :  cpu time    234.4153: real time    234.3733
    CORREC:  cpu time    235.6436: real time    235.6019
    CHARGE:  cpu time      0.2167: real time      0.2167
[...]
   -.148E-04 0.106E+03 -.189E+02   0.634E-12 -.104E+03 0.197E+02   0.000E+00 -.165E+01 -.709E+00
   0.127E-03 0.108E+03 -.782E+02   0.540E-12 -.105E+03 0.808E+02   0.000E+00 -.238E+01 -.243E+01
   -.480E+02 0.115E+03 0.505E+01   0.468E+02 -.116E+03 -.609E+01   0.112E+01 0.106E+01 0.869E+00
   -.338E+02 0.124E+03 -.856E+02   0.329E+02 -.122E+03 0.900E+02   0.853E+00 -.156E+01 -.397E+01
   0.313E+02 -.896E+02 0.652E+02   -.319E+02 0.102E+03 -.684E+02   0.508E+00 -.104E+02 0.275E+01
   -.538E+01 -.384E+02 0.181E+02   0.527E+01 0.463E+02 -.224E+02   0.916E-01 -.662E+01 0.360E+01
   -.615E-04 -.511E+02 0.349E+02   0.358E-12 0.596E+02 -.386E+02   0.000E+00 -.717E+01 0.315E+01
   0.447E-04 -.425E+02 0.139E+02   0.196E-12 0.500E+02 -.179E+02   0.000E+00 -.638E+01 0.342E+01
   -.313E+02 -.896E+02 0.652E+02   0.319E+02 0.102E+03 -.684E+02   -.508E+00 -.104E+02 0.275E+01
   0.538E+01 -.384E+02 0.181E+02   -.527E+01 0.463E+02 -.224E+02   -.916E-01 -.662E+01 0.360E+01
   0.104E-04 0.464E+02 -.422E+02   -.374E-12 -.507E+02 0.476E+02   0.000E+00 0.360E+01 -.458E+01
   -.160E-04 0.333E+02 -.203E+02   -.131E-12 -.411E+02 0.244E+02   0.000E+00 0.654E+01 -.349E+01
   0.344E+01 0.566E+02 -.240E+02   -.274E+01 -.660E+02 0.285E+02   -.591E+00 0.793E+01 -.378E+01
   0.329E+00 0.346E+02 -.170E+02   -.171E+00 -.422E+02 0.206E+02   -.138E+00 0.639E+01 -.299E+01
   -.344E+01 0.566E+02 -.240E+02   0.274E+01 -.660E+02 0.285E+02   0.591E+00 0.793E+01 -.378E+01
   -.329E+00 0.346E+02 -.170E+02   0.171E+00 -.422E+02 0.206E+02   0.138E+00 0.639E+01 -.299E+01
   0.106E+02 0.839E+02 0.209E+02   -.106E+02 -.843E+02 -.148E+02   -.388E-02 0.290E+00 -.516E+01
   0.326E+01 0.693E+02 0.336E+02   -.300E+01 -.675E+02 -.286E+02   -.223E+00 -.151E+01 -.422E+01
   -.461E-04 0.762E+02 0.286E+02   0.133E-12 -.747E+02 -.239E+02   0.000E+00 -.132E+01 -.396E+01
   0.285E-04 0.743E+02 0.330E+02   0.655E-13 -.730E+02 -.279E+02   0.000E+00 -.112E+01 -.429E+01
   -.106E+02 0.839E+02 0.209E+02   0.106E+02 -.843E+02 -.148E+02   0.388E-02 0.290E+00 -.516E+01
   -.326E+01 0.693E+02 0.336E+02   0.300E+01 -.675E+02 -.286E+02   0.223E+00 -.151E+01 -.422E+01
   0.436E-04 -.123E+03 -.277E+02   -.352E-12 0.122E+03 0.224E+02   0.000E+00 0.574E+00 0.443E+01
   -.132E-04 -.722E+02 -.281E+02   -.105E-12 0.699E+02 0.226E+02   0.000E+00 0.189E+01 0.468E+01
   0.159E+02 -.111E+03 -.253E+02   -.161E+02 0.110E+03 0.201E+02   0.176E+00 0.497E+00 0.438E+01
   0.858E+01 -.840E+02 -.301E+02   -.921E+01 0.829E+02 0.250E+02   0.531E+00 0.954E+00 0.431E+01
   -.159E+02 -.111E+03 -.253E+02   0.161E+02 0.110E+03 0.201E+02   -.176E+00 0.497E+00 0.438E+01
   -.858E+01 -.840E+02 -.301E+02   0.921E+01 0.829E+02 0.250E+02   -.531E+00 0.954E+00 0.431E+01
   0.465E-05 0.108E+03 0.476E+02   -.179E-12 -.119E+03 -.436E+02   0.000E+00 0.978E+01 -.338E+01
   0.251E-04 0.101E+03 0.904E+02   -.146E-12 -.113E+03 -.887E+02   0.000E+00 0.105E+02 -.143E+01
   0.226E+01 0.109E+03 0.586E+02   -.194E+01 -.123E+03 -.551E+02   -.270E+00 0.120E+02 -.300E+01
   0.648E+01 0.100E+03 0.773E+02   -.626E+01 -.113E+03 -.742E+02   -.187E+00 0.109E+02 -.262E+01
   -.226E+01 0.109E+03 0.586E+02   0.194E+01 -.123E+03 -.551E+02   0.270E+00 0.120E+02 -.300E+01
   -.648E+01 0.100E+03 0.773E+02   0.626E+01 -.113E+03 -.742E+02   0.187E+00 0.109E+02 -.262E+01
   0.842E+01 -.126E+03 -.538E+02   -.827E+01 0.138E+03 0.501E+02   -.130E+00 -.109E+02 0.305E+01
   0.938E+01 -.106E+03 -.678E+02   -.961E+01 0.118E+03 0.642E+02   0.197E+00 -.105E+02 0.304E+01
   -.942E-06 -.123E+03 -.592E+02   0.547E-13 0.136E+03 0.559E+02   0.000E+00 -.115E+02 0.287E+01
   0.874E-05 -.103E+03 -.664E+02   0.701E-13 0.115E+03 0.630E+02   0.000E+00 -.104E+02 0.287E+01
   -.842E+01 -.126E+03 -.538E+02   0.827E+01 0.138E+03 0.501E+02   0.130E+00 -.109E+02 0.305E+01
   -.938E+01 -.106E+03 -.678E+02   0.961E+01 0.118E+03 0.642E+02   -.197E+00 -.105E+02 0.304E+01
   0.131E-04 0.241E+02 0.233E+02   -.204E-12 -.178E+02 -.265E+02   0.000E+00 -.529E+01 0.268E+01
   -.417E-04 0.201E+02 -.121E+02   -.192E-12 -.139E+02 0.903E+01   0.000E+00 -.523E+01 0.258E+01
   0.427E+01 0.947E+01 0.109E+02   -.425E+01 -.333E+01 -.133E+02   -.260E-01 -.518E+01 0.202E+01
   0.178E+01 0.102E+02 0.319E+01   -.135E+01 -.362E+01 -.823E+01   -.362E+00 -.555E+01 0.426E+01
   -.427E+01 0.947E+01 0.109E+02   0.425E+01 -.333E+01 -.133E+02   0.260E-01 -.518E+01 0.202E+01
   -.178E+01 0.102E+02 0.319E+01   0.135E+01 -.362E+01 -.823E+01   0.362E+00 -.555E+01 0.426E+01
   0.935E-01 -.728E+02 -.447E+02   0.172E+01 0.682E+02 0.464E+02   -.152E+01 0.382E+01 -.148E+01
   0.344E+01 0.265E+01 0.708E+01   -.359E+01 -.980E+01 -.310E+01   0.132E+00 0.604E+01 -.337E+01
   -.373E-04 -.165E+02 -.151E+02   0.383E-12 0.106E+02 0.175E+02   0.000E+00 0.501E+01 -.206E+01
   -.187E-04 0.432E+00 -.671E+00   0.228E-12 -.778E+01 0.451E+01   0.000E+00 0.619E+01 -.325E+01
   -.934E-01 -.728E+02 -.447E+02   -.172E+01 0.682E+02 0.464E+02   0.152E+01 0.382E+01 -.148E+01
   -.344E+01 0.265E+01 0.708E+01   0.359E+01 -.980E+01 -.310E+01   -.132E+00 0.604E+01 -.337E+01
   -.503E-04 0.496E+02 0.384E+02   -.222E-12 -.470E+02 -.334E+02   0.000E+00 -.221E+01 -.428E+01
   0.779E+02 0.639E+02 0.444E+02   -.813E+02 -.605E+02 -.392E+02   0.290E+01 -.294E+01 -.439E+01
   -.104E+02 0.556E+02 0.423E+02   0.117E+02 -.528E+02 -.384E+02   -.114E+01 -.234E+01 -.331E+01
   -.779E+02 0.639E+02 0.444E+02   0.813E+02 -.605E+02 -.392E+02   -.290E+01 -.294E+01 -.439E+01
   0.104E+02 0.556E+02 0.423E+02   -.117E+02 -.528E+02 -.384E+02   0.114E+01 -.234E+01 -.331E+01
   0.699E+02 0.228E+02 -.130E+01   -.740E+02 -.289E+02 -.542E+01   0.349E+01 0.529E+01 0.573E+01
   0.134E+02 -.486E+02 -.665E+02   -.142E+02 0.459E+02 0.620E+02   0.734E+00 0.232E+01 0.378E+01
   0.289E-04 -.337E+02 -.389E+02   -.515E-13 0.299E+02 0.344E+02   0.000E+00 0.320E+01 0.379E+01
   0.607E-04 -.503E+02 -.553E+02   0.163E-12 0.485E+02 0.511E+02   0.000E+00 0.155E+01 0.352E+01
   -.699E+02 0.228E+02 -.130E+01   0.740E+02 -.289E+02 -.542E+01   -.349E+01 0.529E+01 0.573E+01
   -.134E+02 -.486E+02 -.665E+02   0.142E+02 0.459E+02 0.620E+02   -.734E+00 0.232E+01 0.378E+01
   0.308E+02 0.169E+03 0.673E+01   -.314E+02 -.180E+03 -.118E+01   0.481E+00 0.939E+01 -.475E+01
   0.300E+01 0.140E+03 0.760E+02   -.299E+01 -.152E+03 -.734E+02   -.730E-02 0.107E+02 -.220E+01
   0.929E-04 0.142E+03 0.502E+02   0.244E-12 -.154E+03 -.454E+02   0.000E+00 0.104E+02 -.404E+01
   0.415E-04 0.142E+03 0.685E+02   0.202E-12 -.155E+03 -.658E+02   0.000E+00 0.109E+02 -.227E+01
   -.308E+02 0.169E+03 0.673E+01   0.314E+02 -.180E+03 -.118E+01   -.481E+00 0.939E+01 -.475E+01
   -.300E+01 0.140E+03 0.760E+02   0.299E+01 -.152E+03 -.734E+02   0.730E-02 0.107E+02 -.220E+01
   -.136E-04 -.122E+03 0.480E+02   -.106E-11 0.137E+03 -.559E+02   0.000E+00 -.122E+02 0.675E+01
   -.265E-04 -.192E+03 -.134E+03   -.789E-12 0.208E+03 0.133E+03   0.000E+00 -.135E+02 0.684E+00
   -.298E+01 -.117E+03 -.382E+02   0.632E+01 0.130E+03 0.353E+02   -.284E+01 -.110E+02 0.247E+01
   0.198E+02 -.139E+03 -.939E+02   -.208E+02 0.152E+03 0.914E+02   0.814E+00 -.104E+02 0.211E+01
   0.298E+01 -.117E+03 -.382E+02   -.632E+01 0.130E+03 0.353E+02   0.284E+01 -.110E+02 0.247E+01
   -.198E+02 -.139E+03 -.939E+02   0.208E+02 0.152E+03 0.914E+02   -.814E+00 -.104E+02 0.211E+01
   -.406E-04 0.561E+02 0.575E+02   -.436E-11 -.540E+02 -.557E+02   0.000E+00 -.186E+01 -.166E+01
 -----------------------------------------------------------------------------------------------
   -.352E-04 0.734E+01 -.193E+02   -.107E-12 0.171E-11 -.888E-12   0.222E-15 -.536E+01 0.173E+02
 
 
 POSITION                                       TOTAL-FORCE (eV/Angst)
 -----------------------------------------------------------------------------------
      0.00000      7.68084     -1.75744         0.000000      0.049372      0.004689
      0.00000      6.26967     -7.42978         0.000000      0.064583      0.002770
      3.06228      7.67769     -1.75286         0.023251      0.053834      0.008465
      3.05095      6.29043     -7.42189         0.017968      0.056524     -0.002949
      6.08042      7.67769     -1.75286        -0.023251      0.053834      0.008465
      6.09176      6.29043     -7.42189        -0.017968      0.056524     -0.002949
      1.54665      9.29992     -3.88483         0.028730     -0.021551     -0.026688
      1.52347      7.97402     -9.54523        -0.005301     -0.077473     -0.011860
      4.57135      9.37219     -3.88398         0.000000     -0.089420     -0.000959
      4.57135      7.98189     -9.50727         0.000000     -0.092773     -0.022584
      7.59605      9.29992     -3.88483        -0.028730     -0.021551     -0.026688
      7.61924      7.97402     -9.54523         0.005301     -0.077473     -0.011860
      1.54322      6.16176     -4.50104        -0.000812     -0.048210      0.039897
      1.52493      4.77780    -10.14739         0.005199     -0.011354      0.019137
      4.57135      6.21344     -4.49910         0.000000     -0.092911      0.042750
      4.57135      4.79855    -10.13733         0.000000     -0.016616      0.023257
      7.59948      6.16176     -4.50104         0.000812     -0.048210      0.039897
      7.61777      4.77780    -10.14739        -0.005199     -0.011354      0.019137
      0.00000     10.88913     -1.16785         0.000000      0.058277      0.036556
      0.00000      9.46488     -6.82841         0.000000     -0.007354     -0.046071
      3.06022     10.83179     -1.12884        -0.049556      0.105325      0.000158
      3.04904      9.48214     -6.78563         0.002830     -0.002415     -0.034242
      6.08248     10.83179     -1.12884         0.049556      0.105325      0.000158
      6.09366      9.48214     -6.78563        -0.002830     -0.002415     -0.034242
      1.56128      1.56497     -1.66854         0.091891      0.090041      0.062018
      1.53958      0.12451     -7.45957        -0.032639      0.092425      0.042458
      4.57135      1.49042     -1.80370         0.000000      0.077668     -0.086992
      4.57135      0.14181     -7.38970         0.000000      0.085244      0.029297
      7.58143      1.56497     -1.66854        -0.091891      0.090041      0.062018
      7.60312      0.12451     -7.45957         0.032639      0.092425      0.042458
      0.00000      3.32306     -3.99782         0.000000      0.042551     -0.186137
      0.00000      1.84716     -9.55570         0.000000     -0.091149     -0.029878
      3.05633      3.26772     -3.85161        -0.045528     -0.058928      0.024675
      3.05457      1.86774     -9.52915        -0.014639     -0.070695     -0.036615
      6.08637      3.26772     -3.85161         0.045528     -0.058928      0.024675
      6.08813      1.86774     -9.52915         0.014639     -0.070695     -0.036615
      0.00000     -0.31196     -4.70217         0.000000     -0.018448     -0.124086
      0.00000     -1.38946    -10.10666         0.000000      0.084973     -0.042300
      3.04320      0.02202     -4.47233         0.017051     -0.031795     -0.002552
      3.05165     -1.38795    -10.12006         0.021229     -0.013576     -0.012051
      6.09950      0.02202     -4.47233        -0.017051     -0.031795     -0.002552
      6.09105     -1.38795    -10.12006        -0.021229     -0.013576     -0.012051
      1.54040      4.79155     -1.15121         0.026949     -0.053122     -0.061113
      1.54834      3.38568     -6.86267         0.007558      0.025972      0.068929
      4.57135      4.75041     -1.15294         0.000000      0.010974     -0.021895
      4.57135      3.37652     -6.79612         0.000000      0.041313     -0.006110
      7.60230      4.79155     -1.15121        -0.026949     -0.053122     -0.061113
      7.59436      3.38568     -6.86267        -0.007558      0.025972      0.068929
      1.56104     11.84468     -1.32835         0.031950     -0.371196      0.140917
      1.52508     10.47631     -7.10712        -0.005255     -0.209749      0.142234
      4.57135     11.85054     -1.41650         0.000000     -0.256132      0.132945
      4.57135     10.49443     -7.07374         0.000000     -0.199423      0.135329
      7.58166     11.84468     -1.32835        -0.031950     -0.371196      0.140917
      7.61762     10.47631     -7.10712         0.005255     -0.209749      0.142234
      0.00000      5.20230     -4.19944         0.000000      0.098225     -0.170281
      0.00000      3.77586     -9.86313         0.000000      0.202142     -0.138650
      3.07126      5.19888     -4.20675        -0.023489      0.273803     -0.150394
      3.05383      3.78333     -9.86814        -0.009118      0.198500     -0.116836
      6.07144      5.19888     -4.20675         0.023489      0.273803     -0.150394
      6.08887      3.78333     -9.86814         0.009118      0.198500     -0.116836
      1.52036      7.46579     -3.15506         0.006338      0.046008     -0.166724
      1.52219      6.09399     -8.81918        -0.009277     -0.033007     -0.139055
      4.57135      7.49536     -3.14287         0.000000     -0.019939     -0.120100
      4.57135      6.10757     -8.80935         0.000000     -0.014575     -0.137771
      7.62234      7.46579     -3.15506        -0.006338      0.046008     -0.166724
      7.62051      6.09399     -8.81918         0.009277     -0.033007     -0.139055
      0.00000      9.55425     -2.49753         0.000000     -0.001437      0.142827
      0.00000      8.15169     -8.14327         0.000000      0.043159      0.151354
      3.05426      9.53940     -2.48441         0.009888     -0.017479      0.142236
      3.04196      8.17071     -8.12417         0.023046      0.009180      0.139571
      6.08844      9.53940     -2.48441        -0.009888     -0.017479      0.142236
      6.10075      8.17071     -8.12417        -0.023046      0.009180      0.139571
      0.00000      8.95935     -5.05373         0.000000      0.394262     -0.110540
      0.00000      7.57948    -10.68822         0.000000      0.429696     -0.024113
      3.07356      8.87831     -5.04648        -0.016157      0.488116     -0.080705
      3.06339      7.56003    -10.65729        -0.015123      0.443666     -0.075695
      6.06914      8.87831     -5.04648         0.016157      0.488116     -0.080705
      6.07931      7.56003    -10.65729         0.015123      0.443666     -0.075695
      1.52611      8.07780     -0.60861        -0.005514     -0.441232      0.088703
      1.51867      6.66364     -6.26989         0.013834     -0.422970      0.079047
      4.57135      8.11704     -0.59238         0.000000     -0.469692      0.075821
      4.57135      6.68042     -6.27528         0.000000     -0.417776      0.079030
      7.61659      8.07780     -0.60861         0.005514     -0.441232      0.088703
      7.62403      6.66364     -6.26989        -0.013834     -0.422970      0.079047
      0.00000      5.78047     -1.40852         0.000000     -0.137098      0.108801
      0.00000      4.36282     -7.11580         0.000000     -0.128910      0.086196
      3.07210      5.80017     -1.39016        -0.018016     -0.158889      0.087498
      3.06916      4.38469     -7.15137        -0.025636     -0.173252      0.159809
      6.07060      5.80017     -1.39016         0.018016     -0.158889      0.087498
      6.07354      4.38469     -7.15137         0.025636     -0.173252      0.159809
      1.61227     11.13717     -4.33278        -0.077582      0.075369     -0.084417
      1.52943     -2.38875     -9.83531        -0.000130      0.176735     -0.127715
      4.57135     -1.00975     -4.23350         0.000000      0.134301     -0.087923
      4.57135     -2.38946     -9.83612         0.000000      0.174455     -0.118136
      7.53043     11.13717     -4.33278         0.077582      0.075369     -0.084417
      7.61327     -2.38875     -9.83531         0.000130      0.176735     -0.127715
      0.00000     -0.03162     -8.84032         0.000000     -0.071116     -0.129698
      3.12844      1.34919     -3.18362         0.135543     -0.096965     -0.131208
      3.05493     -0.04351     -8.81859        -0.047299     -0.065810     -0.088485
      6.01426      1.34919     -3.18362        -0.135543     -0.096965     -0.131208
      6.08777     -0.04351     -8.81859         0.047299     -0.065810     -0.088485
      1.64390      3.50665     -2.44872         0.142973      0.198959      0.219696
      1.53079      2.03316     -8.14702         0.036427      0.069959      0.100808
      4.57135      3.43466     -2.45927         0.000000      0.119120      0.113523
      4.57135      2.03177     -8.11570         0.000000      0.039092      0.107150
      7.49880      3.50665     -2.44872        -0.142973      0.198959      0.219696
      7.61191      2.03316     -8.14702        -0.036427      0.069959      0.100808
      1.59717      2.98475     -5.09380         0.010441      0.412525     -0.182522
      1.54071      1.50169    -10.68536        -0.003077      0.428960     -0.042156
      4.57135      2.89786     -5.03343         0.000000      0.414583     -0.125598
      4.57135      1.46976    -10.67932         0.000000      0.448879     -0.045043
      7.54553      2.98475     -5.09380        -0.010441      0.412525     -0.182522
      7.60199      1.50169    -10.68536         0.003077      0.428960     -0.042156
      0.00000      2.03468     -0.49072         0.000000     -0.505760      0.249132
      0.00000      0.45407     -6.36061         0.000000     -0.551882     -0.032378
      3.08584      1.89789     -0.58106        -0.120722     -0.436630      0.070957
      3.03619      0.51985     -6.25798         0.042792     -0.427792      0.034556
      6.05686      1.89789     -0.58106         0.120722     -0.436630      0.070957
      6.10651      0.51985     -6.25798        -0.042792     -0.427792      0.034556
      0.00000      1.25636     -3.22905         0.000000      0.165918      0.090243
 -----------------------------------------------------------------------------------
    total drift:                               -0.000035      0.084718     -0.049380


--------------------------------------------------------------------------------------------------------



  FREE ENERGIE OF THE ION-ELECTRON SYSTEM (eV)
  ---------------------------------------------------
  free  energy   TOTEN  =      -975.83095446 eV

  energy  without entropy=     -975.83095446  energy(sigma->0) =     -975.83095446
 


--------------------------------------------------------------------------------------------------------


    POTLOK:  cpu time      1.9612: real time      1.9704


--------------------------------------------------------------------------------------------------------


 writing wavefunctions
     LOOP+:  cpu time  19911.8719: real time  19908.8158
    4ORBIT:  cpu time      0.0000: real time      0.0000

 total amount of memory used by VASP MPI-rank0  7512655. kBytes
=======================================================================

   base      :      30000. kBytes
   nonlr-proj:      47280. kBytes
   fftplans  :      51012. kBytes
   grid      :     102973. kBytes
   one-center:       1866. kBytes
   HF        :        194. kBytes
   wavefun   :    7050060. kBytes
   fock_wrk  :     229270. kBytes
 
  
  
 General timing and accounting informations for this job:
 ========================================================
  
                  Total CPU time used (sec):    19943.242
                            User time (sec):    19927.313
                          System time (sec):       15.930
                         Elapsed time (sec):    19941.888
  
                   Maximum memory used (kb):    13316800.
                   Average memory used (kb):          N/A
  
                          Minor page faults:      7215481
                          Major page faults:            4
                 Voluntary context switches:       365276
