       N       E                     dE             d eps       ncg     rms          ort
DAV:   1    -0.184449585124E+05   -0.18445E+05   -0.54230E+05  5064   0.746E+03
DAV:   2    -0.624594484751E+05   -0.44014E+05   -0.42706E+05  5064   0.120E+03
DAV:   3    -0.670003988611E+05   -0.45410E+04   -0.40496E+04  5064   0.350E+02
DAV:   4    -0.675262876236E+05   -0.52589E+03   -0.45021E+03  5064   0.103E+02
DAV:   5    -0.374174524487E+05    0.30109E+05   -0.72057E+02  5064   0.531E+01
SDA:   6     0.188708256355E+05    0.56288E+05   -0.72057E+02  5064   0.123E+06 0.000E+00
CGA:   7     0.504912445891E+04   -0.13822E+05   -0.14985E+05  5064   0.254E+05 0.108E+05
CGA:   8     0.114975094700E+04   -0.38994E+04   -0.31499E+04  5064   0.673E+04 0.126E+03
CGA:   9     0.254293563449E+03   -0.89546E+03   -0.89240E+03  5064   0.450E+04-0.304E+03
CGA:  10    -0.826999293266E+02   -0.33699E+03   -0.40902E+03  5064   0.610E+04-0.128E+04
CGA:  11    -0.318965010875E+03   -0.23627E+03   -0.35854E+03  5064   0.235E+04-0.216E+03
CGA:  12    -0.637461359540E+03   -0.31850E+03   -0.33170E+03  5064   0.786E+03 0.128E+03
CGA:  13    -0.795525232250E+03   -0.15806E+03   -0.15760E+03  5064   0.328E+03 0.197E+02
CGA:  14    -0.879358542522E+03   -0.83833E+02   -0.85113E+02  5064   0.181E+03-0.102E+02
CGA:  15    -0.918383690169E+03   -0.39025E+02   -0.38969E+02  5064   0.855E+02 0.175E+00
CGA:  16    -0.937199332391E+03   -0.18816E+02   -0.18833E+02  5064   0.399E+02-0.551E+00
CGA:  17    -0.946705910428E+03   -0.95066E+01   -0.10193E+02  5064   0.216E+02-0.660E+01
CGA:  18    -0.950612830045E+03   -0.39069E+01   -0.39200E+01  5064   0.112E+02-0.343E+00
CGA:  19    -0.953068209076E+03   -0.24554E+01   -0.24614E+01  5064   0.551E+01-0.147E+00
CGA:  20    -0.954376431353E+03   -0.13082E+01   -0.13105E+01  5064   0.313E+01-0.361E-01
CGA:  21    -0.955080744947E+03   -0.70431E+00   -0.70460E+00  5064   0.170E+01-0.734E-02
CGA:  22    -0.955452288366E+03   -0.37154E+00   -0.37155E+00  5064   0.898E+00-0.251E-02
CGA:  23    -0.955645376784E+03   -0.19309E+00   -0.19346E+00  5064   0.469E+00-0.112E-01
CGA:  24    -0.955746568787E+03   -0.10119E+00   -0.10123E+00  5064   0.240E+00-0.107E-02
CGA:  25    -0.955801272654E+03   -0.54704E-01   -0.54687E-01  5064   0.137E+00 0.495E-03
CGA:  26    -0.955831894159E+03   -0.30622E-01   -0.30614E-01  5064   0.821E-01 0.258E-03
CGA:  27    -0.955849578784E+03   -0.17685E-01   -0.17684E-01  5064   0.486E-01 0.431E-04
CGA:  28    -0.955859281566E+03   -0.97028E-02   -0.97026E-02  5064   0.255E-01-0.526E-04
CGA:  29    -0.955864739856E+03   -0.54583E-02   -0.54590E-02  5064   0.143E-01-0.529E-04
CGA:  30    -0.955867970680E+03   -0.32308E-02   -0.32312E-02  5064   0.754E-02-0.176E-04
CGA:  31    -0.955869744431E+03   -0.17738E-02   -0.17741E-02  5064   0.406E-02-0.997E-05
CGA:  32    -0.955870772396E+03   -0.10280E-02   -0.10286E-02  5064   0.251E-02-0.134E-04
CGA:  33    -0.955871370213E+03   -0.59782E-03   -0.59821E-03  5064   0.146E-02-0.124E-04
CGA:  34    -0.955871686553E+03   -0.31634E-03   -0.31636E-03  5064   0.798E-03-0.188E-05
CGA:  35    -0.955871861997E+03   -0.17544E-03   -0.17536E-03  5064   0.456E-03 0.832E-05
CGA:  36    -0.955871967328E+03   -0.10533E-03   -0.10511E-03  5064   0.251E-03 0.130E-04
SDA:  37    -0.955872027683E+03   -0.60355E-04   -0.60122E-04  5064   0.134E-03 0.108E-04
CGA:  38    -0.955872086587E+03   -0.58904E-04   -0.59235E-04  5064   0.393E-04-0.145E-05
CGA:  39    -0.955872103845E+03   -0.17258E-04   -0.17329E-04  5064   0.160E-04-0.324E-06
CGA:  40    -0.955872108649E+03   -0.48040E-05   -0.47589E-05  5064   0.474E-05 0.686E-06
   1 F= -.95587211E+03 E0= -.95586029E+03  d E =-.236443E-01
