<?xml version="1.0" encoding="ISO-8859-1"?>
<modeling>
 <generator>
  <i name="program" type="string">vasp </i>
  <i name="version" type="string">6.4.2  </i>
  <i name="subversion" type="string">20Jul23 (build Nov 12 2023 22:16:35) complex                          parallel </i>
  <i name="platform" type="string">LinuxNV </i>
  <i name="date" type="string">2025 03 21 </i>
  <i name="time" type="string">12:47:18 </i>
 </generator>
 <incar>
  <i type="int" name="ISTART">     0</i>
  <i type="string" name="PREC">Normal</i>
  <i type="string" name="ALGO">All</i>
  <i type="int" name="ISPIN">     1</i>
  <i type="int" name="ICHARG">     0</i>
  <i type="int" name="NELM">   500</i>
  <i type="int" name="IBRION">    -1</i>
  <i name="EDIFF">      0.00001000</i>
  <i name="EDIFFG">     -0.00500000</i>
  <i type="int" name="NSW">     0</i>
  <i type="int" name="ISIF">     2</i>
  <i name="ENCUT">    450.00000000</i>
  <i type="string" name="LREAL">Auto</i>
  <i type="logical" name="LPLANE"> T  </i>
  <i name="TIME">      0.40000000</i>
  <i type="int" name="ISMEAR">     0</i>
  <i name="SIGMA">      0.05000000</i>
  <i type="logical" name="LWAVE"> T  </i>
  <i type="logical" name="LCHARG"> T  </i>
  <i name="HFSCREEN">      0.20000000</i>
  <i type="logical" name="LHFCALC"> T  </i>
  <i type="int" name="LMAXFOCK">     4</i>
  <i name="AEXX">      0.32000000</i>
  <i type="string" name="PRECFOCK">Fast</i>
 </incar>
 <primitive_cell>
  <structure name="primitive_cell" >
   <crystal>
    <varray name="basis" >
     <v>       0.00000000      12.28047342       0.00000000 </v>
     <v>       9.14270205       0.00000000       0.00000000 </v>
     <v>       0.00000000      -2.76826177     -11.30069772 </v>
    </varray>
    <i name="volume">   1268.80515525 </i>
    <varray name="rec_basis" >
     <v>       0.00000000       0.08143009      -0.01994742 </v>
     <v>       0.10937686      -0.00000000       0.00000000 </v>
     <v>       0.00000000       0.00000000      -0.08849011 </v>
    </varray>
   </crystal>
   <varray name="positions" >
    <v>       0.65841153       0.99936839       0.15594726 </v>
    <v>       0.65924052       0.99988245       0.65685037 </v>
    <v>       0.65841153       0.33396494       0.15594726 </v>
    <v>       0.65924052       0.33345088       0.65685037 </v>
    <v>       0.65867212       0.66666667       0.15627204 </v>
    <v>       0.65942154       0.66666667       0.65696699 </v>
    <v>       0.83915821       0.16666667       0.34358410 </v>
    <v>       0.84109925       0.16666667       0.84319846 </v>
    <v>       0.84069420       0.50049232       0.34287143 </v>
    <v>       0.84163294       0.50012640       0.84381130 </v>
    <v>       0.84069420       0.83284101       0.34287143 </v>
    <v>       0.84163294       0.83320694       0.84381130 </v>
    <v>       0.59154307       0.16666667       0.39787937 </v>
    <v>       0.59077746       0.16666667       0.89752085 </v>
    <v>       0.59173254       0.50013887       0.39780198 </v>
    <v>       0.59049925       0.50013675       0.89708038 </v>
    <v>       0.59173254       0.83319447       0.39780198 </v>
    <v>       0.59049925       0.83319658       0.89708038 </v>
    <v>       0.90855874       0.99879970       0.10373790 </v>
    <v>       0.90774455       0.99907033       0.60111480 </v>
    <v>       0.90855874       0.33453363       0.10373790 </v>
    <v>       0.90774455       0.33426300       0.60111480 </v>
    <v>       0.90943629       0.66666667       0.10297831 </v>
    <v>       0.90876544       0.66666667       0.60187610 </v>
    <v>       0.16083122       0.16666667       0.15874508 </v>
    <v>       0.15992701       0.16666667       0.65514882 </v>
    <v>       0.15972128       0.50006066       0.15731777 </v>
    <v>       0.15898134       0.50005007       0.65621686 </v>
    <v>       0.15972128       0.83327267       0.15731777 </v>
    <v>       0.15898134       0.83328326       0.65621686 </v>
    <v>       0.34188542       0.99958715       0.34401728 </v>
    <v>       0.34068231       0.00002627       0.84304672 </v>
    <v>       0.34188542       0.33374618       0.34401728 </v>
    <v>       0.34068231       0.33330706       0.84304672 </v>
    <v>       0.34178095       0.66666667       0.34354144 </v>
    <v>       0.34048515       0.66666667       0.84328594 </v>
    <v>       0.09009222       0.99994989       0.39685224 </v>
    <v>       0.09143830       0.99982263       0.89748689 </v>
    <v>       0.09009222       0.33338344       0.39685224 </v>
    <v>       0.09143830       0.33351070       0.89748689 </v>
    <v>       0.09154335       0.66666667       0.39777827 </v>
    <v>       0.09144461       0.66666667       0.89788478 </v>
    <v>       0.40893800       0.16666667       0.10203667 </v>
    <v>       0.40955747       0.16666667       0.60250534 </v>
    <v>       0.40890129       0.50007993       0.10204512 </v>
    <v>       0.40922825       0.50013447       0.60279652 </v>
    <v>       0.40890129       0.83325340       0.10204512 </v>
    <v>       0.40922825       0.83319887       0.60279652 </v>
    <v>       0.99661113       0.16666667       0.13759535 </v>
    <v>       0.99567463       0.16666667       0.62038228 </v>
    <v>       0.99693515       0.50009825       0.12778757 </v>
    <v>       0.99621543       0.49986548       0.62697037 </v>
    <v>       0.99693515       0.83323508       0.12778757 </v>
    <v>       0.99621543       0.83346785       0.62697037 </v>
    <v>       0.50431531       0.99994345       0.37306041 </v>
    <v>       0.50329978       0.00007566       0.87259284 </v>
    <v>       0.50431531       0.33338988       0.37306041 </v>
    <v>       0.50329978       0.33325767       0.87259284 </v>
    <v>       0.50417299       0.66666667       0.37321175 </v>
    <v>       0.50299146       0.66666667       0.87215667 </v>
    <v>       0.67227387       0.16666667       0.27997742 </v>
    <v>       0.67303230       0.16666667       0.78099002 </v>
    <v>       0.67163823       0.50081811       0.27964334 </v>
    <v>       0.67331733       0.49964802       0.78109064 </v>
    <v>       0.67163823       0.83251523       0.27964334 </v>
    <v>       0.67331733       0.83368531       0.78109064 </v>
    <v>       0.82518217       0.99695601       0.21820392 </v>
    <v>       0.82809448       0.00030552       0.71983635 </v>
    <v>       0.82518217       0.33637733       0.21820392 </v>
    <v>       0.82809448       0.33302781       0.71983635 </v>
    <v>       0.82710545       0.66666667       0.21914886 </v>
    <v>       0.82788916       0.66666667       0.71979768 </v>
    <v>       0.82804288       0.99793736       0.44570647 </v>
    <v>       0.83436599       0.00067285       0.94658977 </v>
    <v>       0.82804288       0.33539597       0.44570647 </v>
    <v>       0.83436599       0.33266049       0.94658977 </v>
    <v>       0.83100963       0.66666667       0.44563369 </v>
    <v>       0.83294907       0.66666667       0.94621605 </v>
    <v>       0.66764910       0.16666667       0.05391916 </v>
    <v>       0.66801223       0.16666667       0.55471477 </v>
    <v>       0.66725028       0.50036980       0.05334289 </v>
    <v>       0.66792078       0.50009462       0.55473330 </v>
    <v>       0.66725028       0.83296354       0.05334289 </v>
    <v>       0.66792078       0.83323872       0.55473330 </v>
    <v>       0.49614194       0.00002054       0.12677424 </v>
    <v>       0.49676815       0.99986822       0.62797927 </v>
    <v>       0.49614194       0.33331280       0.12677424 </v>
    <v>       0.49676815       0.33346511       0.62797927 </v>
    <v>       0.49602808       0.66666667       0.12626531 </v>
    <v>       0.49686326       0.66666667       0.62827312 </v>
    <v>       0.00388407       0.16666667       0.87238772 </v>
    <v>       0.00342649       0.50149442       0.37314147 </v>
    <v>       0.00406290       0.50006400       0.87267721 </v>
    <v>       0.00342649       0.83183891       0.37314147 </v>
    <v>       0.00406290       0.83326933       0.87267721 </v>
    <v>       0.17431805       0.99842954       0.28083415 </v>
    <v>       0.17200015       0.00062916       0.77965997 </v>
    <v>       0.17431805       0.33490379       0.28083415 </v>
    <v>       0.17200015       0.33270417       0.77965997 </v>
    <v>       0.17338056       0.66666667       0.28082628 </v>
    <v>       0.17227266       0.66666667       0.78018328 </v>
    <v>       0.32837292       0.16666667       0.21982223 </v>
    <v>       0.32775931       0.16666667       0.71946064 </v>
    <v>       0.32817604       0.50015934       0.21955162 </v>
    <v>       0.32753489       0.49991262       0.71983058 </v>
    <v>       0.32817604       0.83317399       0.21955162 </v>
    <v>       0.32753489       0.83342071       0.71983058 </v>
    <v>       0.33334012       0.16666667       0.44594935 </v>
    <v>       0.33155580       0.16666667       0.94556760 </v>
    <v>       0.33323698       0.50035796       0.44616078 </v>
    <v>       0.33125242       0.49968482       0.94561506 </v>
    <v>       0.33323698       0.83297537       0.44616078 </v>
    <v>       0.33125242       0.83364851       0.94561506 </v>
    <v>       0.16638853       0.00093484       0.05458800 </v>
    <v>       0.16918229       0.99895162       0.55392015 </v>
    <v>       0.16638853       0.33239849       0.05458800 </v>
    <v>       0.16918229       0.33438172       0.55392015 </v>
    <v>       0.16813647       0.66666667       0.05447995 </v>
    <v>       0.16848598       0.66666667       0.55443366 </v>
    <v>       0.00014599       0.16666667       0.36883432 </v>
   </varray>
  </structure>
  <varray name="primitive_index" >
   <v type="int" >        1 </v>
   <v type="int" >        2 </v>
   <v type="int" >        3 </v>
   <v type="int" >        4 </v>
   <v type="int" >        5 </v>
   <v type="int" >        6 </v>
   <v type="int" >        7 </v>
   <v type="int" >        8 </v>
   <v type="int" >        9 </v>
   <v type="int" >       10 </v>
   <v type="int" >       11 </v>
   <v type="int" >       12 </v>
   <v type="int" >       13 </v>
   <v type="int" >       14 </v>
   <v type="int" >       15 </v>
   <v type="int" >       16 </v>
   <v type="int" >       17 </v>
   <v type="int" >       18 </v>
   <v type="int" >       19 </v>
   <v type="int" >       20 </v>
   <v type="int" >       21 </v>
   <v type="int" >       22 </v>
   <v type="int" >       23 </v>
   <v type="int" >       24 </v>
   <v type="int" >       25 </v>
   <v type="int" >       26 </v>
   <v type="int" >       27 </v>
   <v type="int" >       28 </v>
   <v type="int" >       29 </v>
   <v type="int" >       30 </v>
   <v type="int" >       31 </v>
   <v type="int" >       32 </v>
   <v type="int" >       33 </v>
   <v type="int" >       34 </v>
   <v type="int" >       35 </v>
   <v type="int" >       36 </v>
   <v type="int" >       37 </v>
   <v type="int" >       38 </v>
   <v type="int" >       39 </v>
   <v type="int" >       40 </v>
   <v type="int" >       41 </v>
   <v type="int" >       42 </v>
   <v type="int" >       43 </v>
   <v type="int" >       44 </v>
   <v type="int" >       45 </v>
   <v type="int" >       46 </v>
   <v type="int" >       47 </v>
   <v type="int" >       48 </v>
   <v type="int" >       49 </v>
   <v type="int" >       50 </v>
   <v type="int" >       51 </v>
   <v type="int" >       52 </v>
   <v type="int" >       53 </v>
   <v type="int" >       54 </v>
   <v type="int" >       55 </v>
   <v type="int" >       56 </v>
   <v type="int" >       57 </v>
   <v type="int" >       58 </v>
   <v type="int" >       59 </v>
   <v type="int" >       60 </v>
   <v type="int" >       61 </v>
   <v type="int" >       62 </v>
   <v type="int" >       63 </v>
   <v type="int" >       64 </v>
   <v type="int" >       65 </v>
   <v type="int" >       66 </v>
   <v type="int" >       67 </v>
   <v type="int" >       68 </v>
   <v type="int" >       69 </v>
   <v type="int" >       70 </v>
   <v type="int" >       71 </v>
   <v type="int" >       72 </v>
   <v type="int" >       73 </v>
   <v type="int" >       74 </v>
   <v type="int" >       75 </v>
   <v type="int" >       76 </v>
   <v type="int" >       77 </v>
   <v type="int" >       78 </v>
   <v type="int" >       79 </v>
   <v type="int" >       80 </v>
   <v type="int" >       81 </v>
   <v type="int" >       82 </v>
   <v type="int" >       83 </v>
   <v type="int" >       84 </v>
   <v type="int" >       85 </v>
   <v type="int" >       86 </v>
   <v type="int" >       87 </v>
   <v type="int" >       88 </v>
   <v type="int" >       89 </v>
   <v type="int" >       90 </v>
   <v type="int" >       91 </v>
   <v type="int" >       92 </v>
   <v type="int" >       93 </v>
   <v type="int" >       94 </v>
   <v type="int" >       95 </v>
   <v type="int" >       96 </v>
   <v type="int" >       97 </v>
   <v type="int" >       98 </v>
   <v type="int" >       99 </v>
   <v type="int" >      100 </v>
   <v type="int" >      101 </v>
   <v type="int" >      102 </v>
   <v type="int" >      103 </v>
   <v type="int" >      104 </v>
   <v type="int" >      105 </v>
   <v type="int" >      106 </v>
   <v type="int" >      107 </v>
   <v type="int" >      108 </v>
   <v type="int" >      109 </v>
   <v type="int" >      110 </v>
   <v type="int" >      111 </v>
   <v type="int" >      112 </v>
   <v type="int" >      113 </v>
   <v type="int" >      114 </v>
   <v type="int" >      115 </v>
   <v type="int" >      116 </v>
   <v type="int" >      117 </v>
   <v type="int" >      118 </v>
   <v type="int" >      119 </v>
   <v type="int" >      120 </v>
  </varray>
 </primitive_cell>
 <kpoints>
  <generation param="Gamma">
   <v type="int" name="divisions">       2        2        2 </v>
   <v name="usershift">      0.00000000       0.00000000       0.00000000 </v>
   <v name="genvec1">      0.50000000       0.00000000       0.00000000 </v>
   <v name="genvec2">      0.00000000       0.50000000       0.00000000 </v>
   <v name="genvec3">      0.00000000       0.00000000       0.50000000 </v>
   <v name="shift">      0.00000000       0.00000000       0.00000000 </v>
  </generation>
  <varray name="kpointlist" >
   <v>       0.00000000       0.00000000       0.00000000 </v>
   <v>       0.50000000       0.00000000       0.00000000 </v>
   <v>       0.00000000       0.50000000       0.00000000 </v>
   <v>       0.50000000       0.50000000       0.00000000 </v>
   <v>       0.00000000       0.00000000       0.50000000 </v>
   <v>       0.50000000       0.00000000       0.50000000 </v>
   <v>       0.00000000       0.50000000       0.50000000 </v>
   <v>       0.50000000       0.50000000       0.50000000 </v>
  </varray>
  <varray name="weights" >
   <v>       0.12500000 </v>
   <v>       0.12500000 </v>
   <v>       0.12500000 </v>
   <v>       0.12500000 </v>
   <v>       0.12500000 </v>
   <v>       0.12500000 </v>
   <v>       0.12500000 </v>
   <v>       0.12500000 </v>
  </varray>
 </kpoints>
 <parameters>
  <separator name="general" >
   <i type="string" name="SYSTEM">unknown system</i>
   <i type="logical" name="LCOMPAT"> F  </i>
  </separator>
  <separator name="electronic" >
   <i type="string" name="PREC">normal</i>
   <i name="ENMAX">    450.00000000</i>
   <i name="ENAUG">    627.11200000</i>
   <i name="EDIFF">      0.00001000</i>
   <i type="int" name="IALGO">    58</i>
   <i type="int" name="IWAVPR">    10</i>
   <i type="int" name="NBANDS">   633</i>
   <i type="int" name="NBANDSLOW">    -1</i>
   <i type="int" name="NBANDSHIGH">    -1</i>
   <i name="NELECT">   1055.00000000</i>
   <i type="int" name="TURBO">     0</i>
   <i type="int" name="IRESTART">     0</i>
   <i type="int" name="NREBOOT">     0</i>
   <i type="int" name="NMIN">     0</i>
   <i name="EREF">      0.00000000</i>
   <separator name="electronic smearing" >
    <i type="int" name="ISMEAR">     0</i>
    <i name="SIGMA">      0.05000000</i>
    <i name="KSPACING">      0.50000000</i>
    <i type="logical" name="KGAMMA"> T  </i>
    <i type="logical" name="KBLOWUP"> T  </i>
   </separator>
   <separator name="electronic projectors" >
    <i type="logical" name="LREAL"> T  </i>
    <v name="ROPT">     -0.00050000     -0.00050000     -0.00050000</v>
    <i type="int" name="LMAXPAW">  -100</i>
    <i type="int" name="LMAXMIX">     2</i>
    <i type="logical" name="NLSPLINE"> F  </i>
   </separator>
   <separator name="electronic startup" >
    <i type="int" name="ISTART">     0</i>
    <i type="int" name="ICHARG">     0</i>
    <i type="int" name="INIWAV">     1</i>
   </separator>
   <separator name="electronic spin" >
    <i type="int" name="ISPIN">     1</i>
    <i type="logical" name="LNONCOLLINEAR"> F  </i>
    <v name="MAGMOM">      1.00000000      1.00000000      1.00000000      1.00000000      1.00000000      1.00000000      1.00000000      1.00000000      1.00000000      1.00000000      1.00000000      1.00000000      1.00000000      1.00000000      1.00000000      1.00000000      1.00000000      1.00000000      1.00000000      1.00000000
      1.00000000      1.00000000      1.00000000      1.00000000      1.00000000      1.00000000      1.00000000      1.00000000      1.00000000      1.00000000      1.00000000      1.00000000      1.00000000      1.00000000      1.00000000      1.00000000      1.00000000      1.00000000      1.00000000      1.00000000
      1.00000000      1.00000000      1.00000000      1.00000000      1.00000000      1.00000000      1.00000000      1.00000000      1.00000000      1.00000000      1.00000000      1.00000000      1.00000000      1.00000000      1.00000000      1.00000000      1.00000000      1.00000000      1.00000000      1.00000000
      1.00000000      1.00000000      1.00000000      1.00000000      1.00000000      1.00000000      1.00000000      1.00000000      1.00000000      1.00000000      1.00000000      1.00000000      1.00000000      1.00000000      1.00000000      1.00000000      1.00000000      1.00000000      1.00000000      1.00000000
      1.00000000      1.00000000      1.00000000      1.00000000      1.00000000      1.00000000      1.00000000      1.00000000      1.00000000      1.00000000      1.00000000      1.00000000      1.00000000      1.00000000      1.00000000      1.00000000      1.00000000      1.00000000      1.00000000      1.00000000
      1.00000000      1.00000000      1.00000000      1.00000000      1.00000000      1.00000000      1.00000000      1.00000000      1.00000000      1.00000000      1.00000000      1.00000000      1.00000000      1.00000000      1.00000000      1.00000000      1.00000000      1.00000000      1.00000000      1.00000000
</v>
    <i name="NUPDOWN">     -1.00000000</i>
    <i type="logical" name="LSORBIT"> F  </i>
    <v name="SAXIS">      0.00000000      0.00000000      1.00000000</v>
    <i type="logical" name="LSPIRAL"> F  </i>
    <v name="QSPIRAL">      0.00000000      0.00000000      0.00000000</v>
    <i type="logical" name="LZEROZ"> F  </i>
   </separator>
   <separator name="electronic exchange-correlation" >
    <i type="logical" name="LASPH"> F  </i>
    <i type="logical" name="LMETAGGA"> F  </i>
   </separator>
   <separator name="electronic convergence" >
    <i type="int" name="NELM">   500</i>
    <i type="int" name="NELMDL">    -5</i>
    <i type="int" name="NELMIN">     2</i>
    <i name="ENINI">    450.00000000</i>
    <separator name="electronic convergence detail" >
     <i type="logical" name="LDIAG"> T  </i>
     <i type="logical" name="LSUBROT"> F  </i>
     <i name="WEIMIN">      0.00000000</i>
     <i name="EBREAK">      0.00000000</i>
     <i name="DEPER">      0.30000000</i>
     <i type="int" name="NRMM">     4</i>
     <i name="TIME">      0.40000000</i>
    </separator>
   </separator>
   <separator name="electronic mixer" >
    <i name="AMIX">      0.40000000</i>
    <i name="BMIX">      1.00000000</i>
    <i name="AMIN">      0.10000000</i>
    <i name="AMIX_MAG">      1.60000000</i>
    <i name="BMIX_MAG">      1.00000000</i>
    <separator name="electronic mixer details" >
     <i type="int" name="IMIX">     4</i>
     <i type="logical" name="MIXFIRST"> F  </i>
     <i type="int" name="MAXMIX">   -45</i>
     <i name="WC">    100.00000000</i>
     <i type="int" name="INIMIX">     1</i>
     <i type="int" name="MIXPRE">     1</i>
     <i type="int" name="MREMOVE">     5</i>
    </separator>
   </separator>
   <separator name="electronic dipolcorrection" >
    <i type="logical" name="LDIPOL"> F  </i>
    <i type="logical" name="LMONO"> F  </i>
    <i type="int" name="IDIPOL">     0</i>
    <i name="EPSILON">      1.00000000</i>
    <v name="DIPOL">   -100.00000000   -100.00000000   -100.00000000</v>
    <i name="EFIELD">      0.00000000</i>
   </separator>
  </separator>
  <separator name="grids" >
   <i type="int" name="NGX">    64</i>
   <i type="int" name="NGY">    48</i>
   <i type="int" name="NGZ">    60</i>
   <i type="int" name="NGXF">   128</i>
   <i type="int" name="NGYF">    96</i>
   <i type="int" name="NGZF">   120</i>
   <i type="logical" name="ADDGRID"> F  </i>
  </separator>
  <separator name="ionic" >
   <i type="int" name="NSW">     0</i>
   <i type="int" name="IBRION">    -1</i>
   <i type="int" name="MDALGO">     0</i>
   <i type="int" name="ISIF">     2</i>
   <i name="PSTRESS">      0.00000000</i>
   <i name="EDIFFG">     -0.00500000</i>
   <i type="int" name="NFREE">     0</i>
   <i name="POTIM">      0.50000000</i>
   <i name="SMASS">     -3.00000000</i>
   <i name="SCALEE">      1.00000000</i>
  </separator>
  <separator name="ionic md" >
   <i name="TEBEG">      0.00010000</i>
   <i name="TEEND">      0.00010000</i>
   <i type="int" name="NBLOCK">     1</i>
   <i type="int" name="KBLOCK">     1</i>
   <i type="int" name="NPACO">   256</i>
   <i name="APACO">     10.00000000</i>
  </separator>
  <separator name="symmetry" >
   <i type="int" name="ISYM">     3</i>
   <i name="SYMPREC">      0.00001000</i>
  </separator>
  <separator name="dos" >
   <i type="int" name="LORBIT">     0</i>
   <v name="RWIGS">     -1.00000000     -1.00000000     -1.00000000</v>
   <i type="int" name="NEDOS">   301</i>
   <i name="EMIN">     10.00000000</i>
   <i name="EMAX">    -10.00000000</i>
   <i name="EFERMI">      0.00000000</i>
  </separator>
  <separator name="writing" >
   <i type="int" name="NWRITE">     2</i>
   <i type="logical" name="LWAVE"> T  </i>
   <i type="logical" name="LDOWNSAMPLE"> F  </i>
   <i type="logical" name="LCHARG"> T  </i>
   <i type="logical" name="LPARD"> F  </i>
   <i type="logical" name="LVTOT"> F  </i>
   <i type="logical" name="LVHAR"> F  </i>
   <i type="logical" name="LELF"> F  </i>
   <i type="logical" name="LOPTICS"> F  </i>
   <v name="STM">      0.00000000      0.00000000      0.00000000      0.00000000      0.00000000      0.00000000      0.00000000</v>
  </separator>
  <separator name="performance" >
   <i type="int" name="NPAR">     1</i>
   <i type="int" name="NSIM">     4</i>
   <i type="int" name="NBLK">    -1</i>
   <i type="logical" name="LPLANE"> T  </i>
   <i type="logical" name="LSCALAPACK"> T  </i>
   <i type="logical" name="LSCAAWARE"> F  </i>
   <i type="logical" name="LSCALU"> F  </i>
   <i type="logical" name="LASYNC"> F  </i>
   <i type="logical" name="LORBITALREAL"> F  </i>
  </separator>
  <separator name="miscellaneous" >
   <i type="int" name="IDIOT">     3</i>
   <i type="int" name="PHON_NSTRUCT">    -1</i>
   <i type="logical" name="LMUSIC"> F  </i>
   <v name="POMASS">     69.72300000     16.00000000     14.00100000</v>
   <v name="DARWINR">      0.00000000      0.00000000      0.00000000</v>
   <v name="DARWINV">      1.00000000      1.00000000      1.00000000</v>
   <i type="logical" name="LCORR"> T  </i>
  </separator>
  <i type="logical" name="GGA_COMPAT"> T  </i>
  <i type="logical" name="LBERRY"> F  </i>
  <i type="int" name="ICORELEVEL">     0</i>
  <i type="logical" name="LDAU"> F  </i>
  <i type="int" name="I_CONSTRAINED_M">     0</i>
  <separator name="electronic exchange-correlation" >
   <i type="string" name="GGA">--</i>
   <i type="int" name="VOSKOWN">     0</i>
   <i type="logical" name="LHFCALC"> T  </i>
   <i type="string" name="PRECFOCK">fast</i>
   <i type="logical" name="LSYMGRAD"> F  </i>
   <i type="logical" name="LHFONE"> F  </i>
   <i type="logical" name="LRHFCALC"> F  </i>
   <i type="logical" name="LTHOMAS"> F  </i>
   <i type="logical" name="LMODELHF"> F  </i>
   <i type="logical" name="LFOCKACE"> T  </i>
   <i name="ENCUT4O">     -1.00000000</i>
   <i type="int" name="EXXOEP">     0</i>
   <i type="int" name="FOURORBIT">     0</i>
   <i name="AEXX">      0.32000000</i>
   <i name="HFALPHA">     -1.00000000</i>
   <i name="MCALPHA">      0.00000000</i>
   <i name="ALDAX">      0.68000000</i>
   <i name="AGGAX">      0.68000000</i>
   <i name="ALDAC">      1.00000000</i>
   <i name="AGGAC">      1.00000000</i>
   <i type="int" name="NKREDX">     1</i>
   <i type="int" name="NKREDY">     1</i>
   <i type="int" name="NKREDZ">     1</i>
   <i type="logical" name="SHIFTRED"> F  </i>
   <i type="logical" name="ODDONLY"> F  </i>
   <i type="logical" name="EVENONLY"> F  </i>
   <i type="int" name="LMAXFOCK">     4</i>
   <i type="int" name="NMAXFOCKAE">     1</i>
   <i type="logical" name="LFOCKAEDFT"> F  </i>
   <i name="HFSCREEN">      0.20000000</i>
   <i name="HFSCREENC">      0.20000000</i>
   <i type="int" name="NBANDSGWLOW">     1</i>
  </separator>
  <separator name="vdW DFT" >
   <i type="logical" name="LUSE_VDW"> F  </i>
   <i type="int" name="IVDW_NL">     1</i>
   <i type="logical" name="LSPIN_VDW"> F  </i>
   <i name="Zab_VDW">     -0.84910000</i>
   <i name="PARAM1">      0.12340000</i>
   <i name="PARAM2">      1.00000000</i>
   <i name="PARAM3">      0.00000000</i>
  </separator>
  <separator name="model GW" >
   <i type="int" name="MODEL_GW">     0</i>
   <i name="MODEL_EPS0">      6.34402578</i>
   <i name="MODEL_ALPHA">      1.00000000</i>
  </separator>
  <separator name="linear response parameters" >
   <i type="logical" name="LEPSILON"> F  </i>
   <i type="logical" name="LRPA"> F  </i>
   <i type="logical" name="LNABLA"> F  </i>
   <i type="logical" name="LVEL"> F  </i>
   <i name="CSHIFT">      0.10000000</i>
   <i name="OMEGAMAX">     -1.00000000</i>
   <i name="DEG_THRESHOLD">      0.00200000</i>
   <i name="RTIME">     -0.10000000</i>
   <i name="WPLASMAI">      0.00000000</i>
   <v name="DFIELD">      0.00000000      0.00000000      0.00000000</v>
   <v name="WPLASMA">      0.00000000      0.00000000      0.00000000      0.00000000      0.00000000      0.00000000      0.00000000      0.00000000      0.00000000</v>
  </separator>
  <separator name="orbital magnetization" >
   <i type="logical" name="NUCIND"> F  </i>
   <v name="MAGPOS">      0.00000000      0.00000000      0.00000000</v>
   <i type="logical" name="LNICSALL"> T  </i>
   <i type="logical" name="ORBITALMAG"> F  </i>
   <i type="logical" name="LMAGBLOCH"> F  </i>
   <i type="logical" name="LCHIMAG"> F  </i>
   <i type="logical" name="LGAUGE"> T  </i>
   <i type="int" name="MAGATOM">     0</i>
   <v name="MAGDIPOL">      0.00000000      0.00000000      0.00000000</v>
   <v name="AVECCONST">      0.00000000      0.00000000      0.00000000</v>
  </separator>
  <separator name="response functions" >
   <i type="logical" name="LALL_IN_ONE"> F  </i>
   <i type="int" name="IALL_IN_ONE">    -1</i>
   <i type="int" name="NBANDS_WAVE">    -1</i>
   <i type="logical" name="LFINITE_TEMPERATURE"> F  </i>
   <i type="logical" name="LADDER"> F  </i>
   <i type="logical" name="LRPAFORCE"> F  </i>
   <i type="logical" name="LFXC"> F  </i>
   <i type="logical" name="LHARTREE"> T  </i>
   <i type="int" name="IBSE">     0</i>
   <v type="int" name="KPOINT">    -1     0     0     0</v>
   <i type="logical" name="LTCTC"> F  </i>
   <i type="logical" name="LTCTE"> F  </i>
   <i type="logical" name="LTETE"> F  </i>
   <i type="logical" name="LTRIPLET"> F  </i>
   <i type="logical" name="LFXCEPS"> F  </i>
   <i type="logical" name="LFXHEG"> F  </i>
   <i type="int" name="NATURALO">     2</i>
   <i type="logical" name="LHOLEGF"> F  </i>
   <i type="logical" name="L2ORDER"> F  </i>
   <i type="logical" name="LDMP1"> F  </i>
   <i type="logical" name="LMP2LT"> F  </i>
   <i type="logical" name="LSMP2LT"> F  </i>
   <i type="logical" name="LGWLF"> F  </i>
   <i name="ENCUTGW">     -1.60000002</i>
   <i name="ENCUTGWSOFT">     -1.60000002</i>
   <i name="ENCUTLF">     -1.00000000</i>
   <i type="logical" name="LESF_SPLINES"> F  </i>
   <i type="int" name="LMAXMP2">    -1</i>
   <i name="SCISSOR">      0.00000000</i>
   <i type="int" name="NOMEGA">     0</i>
   <i type="int" name="NOMEGAR">     0</i>
   <i type="int" name="NBANDSGW">    -1</i>
   <i type="int" name="NBANDSO">    -1</i>
   <i type="int" name="NBANDSV">    -1</i>
   <i type="int" name="NELMGW">     1</i>
   <i type="int" name="NELMHF">     1</i>
   <i type="int" name="DIM">     3</i>
   <i type="int" name="IESPILON">     4</i>
   <i type="int" name="ANTIRES">     0</i>
   <i name="OMEGAMAX">    -30.00000000</i>
   <i name="OMEGAMIN">    -30.00000000</i>
   <i name="OMEGATL">   -200.00000000</i>
   <i type="int" name="OMEGAGRID">     0</i>
   <i name="CSHIFT">     -0.10000000</i>
   <i type="logical" name="LSELFENERGY"> F  </i>
   <i type="logical" name="LSPECTRAL"> F  </i>
   <i type="logical" name="LSPECTRALGW"> F  </i>
   <i type="logical" name="LSINGLES"> F  </i>
   <i type="logical" name="LFERMIGW"> F  </i>
   <i type="logical" name="ODDONLYGW"> F  </i>
   <i type="logical" name="EVENONLYGW"> F  </i>
   <i type="int" name="NKREDLFX">     1</i>
   <i type="int" name="NKREDLFY">     1</i>
   <i type="int" name="NKREDLFZ">     1</i>
   <i type="int" name="MAXMEM">  2800</i>
   <i type="int" name="TELESCOPE">     0</i>
   <i type="int" name="NTAUPAR">    -1</i>
   <i type="int" name="NOMEGAPAR">    -1</i>
   <i name="DAMP_NEWTON">      0.80000001</i>
   <i name="LAMBDA">      1.00000000</i>
  </separator>
  <separator name="External order field" >
   <i name="OFIELD_KAPPA">      0.00000000</i>
   <v name="OFIELD_K">      0.00000000      0.00000000      0.00000000</v>
   <i name="OFIELD_Q6_NEAR">      0.00000000</i>
   <i name="OFIELD_Q6_FAR">      0.00000000</i>
   <i name="OFIELD_A">      0.00000000</i>
  </separator>
  <separator name="optional k-points parameters" >
   <i type="int" name="KPOINTS_OPT_MODE">     1</i>
   <i type="logical" name="LKPOINTS_OPT"> F  </i>
  </separator>
 </parameters>
 <atominfo>
  <atoms>     120 </atoms>
  <types>       3 </types>
  <array name="atoms" >
   <dimension dim="1">ion</dimension>
   <field type="string">element</field>
   <field type="int">atomtype</field>
   <set>
    <rc><c>Ga</c><c>   1</c></rc>
    <rc><c>Ga</c><c>   1</c></rc>
    <rc><c>Ga</c><c>   1</c></rc>
    <rc><c>Ga</c><c>   1</c></rc>
    <rc><c>Ga</c><c>   1</c></rc>
    <rc><c>Ga</c><c>   1</c></rc>
    <rc><c>Ga</c><c>   1</c></rc>
    <rc><c>Ga</c><c>   1</c></rc>
    <rc><c>Ga</c><c>   1</c></rc>
    <rc><c>Ga</c><c>   1</c></rc>
    <rc><c>Ga</c><c>   1</c></rc>
    <rc><c>Ga</c><c>   1</c></rc>
    <rc><c>Ga</c><c>   1</c></rc>
    <rc><c>Ga</c><c>   1</c></rc>
    <rc><c>Ga</c><c>   1</c></rc>
    <rc><c>Ga</c><c>   1</c></rc>
    <rc><c>Ga</c><c>   1</c></rc>
    <rc><c>Ga</c><c>   1</c></rc>
    <rc><c>Ga</c><c>   1</c></rc>
    <rc><c>Ga</c><c>   1</c></rc>
    <rc><c>Ga</c><c>   1</c></rc>
    <rc><c>Ga</c><c>   1</c></rc>
    <rc><c>Ga</c><c>   1</c></rc>
    <rc><c>Ga</c><c>   1</c></rc>
    <rc><c>Ga</c><c>   1</c></rc>
    <rc><c>Ga</c><c>   1</c></rc>
    <rc><c>Ga</c><c>   1</c></rc>
    <rc><c>Ga</c><c>   1</c></rc>
    <rc><c>Ga</c><c>   1</c></rc>
    <rc><c>Ga</c><c>   1</c></rc>
    <rc><c>Ga</c><c>   1</c></rc>
    <rc><c>Ga</c><c>   1</c></rc>
    <rc><c>Ga</c><c>   1</c></rc>
    <rc><c>Ga</c><c>   1</c></rc>
    <rc><c>Ga</c><c>   1</c></rc>
    <rc><c>Ga</c><c>   1</c></rc>
    <rc><c>Ga</c><c>   1</c></rc>
    <rc><c>Ga</c><c>   1</c></rc>
    <rc><c>Ga</c><c>   1</c></rc>
    <rc><c>Ga</c><c>   1</c></rc>
    <rc><c>Ga</c><c>   1</c></rc>
    <rc><c>Ga</c><c>   1</c></rc>
    <rc><c>Ga</c><c>   1</c></rc>
    <rc><c>Ga</c><c>   1</c></rc>
    <rc><c>Ga</c><c>   1</c></rc>
    <rc><c>Ga</c><c>   1</c></rc>
    <rc><c>Ga</c><c>   1</c></rc>
    <rc><c>Ga</c><c>   1</c></rc>
    <rc><c>O </c><c>   2</c></rc>
    <rc><c>O </c><c>   2</c></rc>
    <rc><c>O </c><c>   2</c></rc>
    <rc><c>O </c><c>   2</c></rc>
    <rc><c>O </c><c>   2</c></rc>
    <rc><c>O </c><c>   2</c></rc>
    <rc><c>O </c><c>   2</c></rc>
    <rc><c>O </c><c>   2</c></rc>
    <rc><c>O </c><c>   2</c></rc>
    <rc><c>O </c><c>   2</c></rc>
    <rc><c>O </c><c>   2</c></rc>
    <rc><c>O </c><c>   2</c></rc>
    <rc><c>O </c><c>   2</c></rc>
    <rc><c>O </c><c>   2</c></rc>
    <rc><c>O </c><c>   2</c></rc>
    <rc><c>O </c><c>   2</c></rc>
    <rc><c>O </c><c>   2</c></rc>
    <rc><c>O </c><c>   2</c></rc>
    <rc><c>O </c><c>   2</c></rc>
    <rc><c>O </c><c>   2</c></rc>
    <rc><c>O </c><c>   2</c></rc>
    <rc><c>O </c><c>   2</c></rc>
    <rc><c>O </c><c>   2</c></rc>
    <rc><c>O </c><c>   2</c></rc>
    <rc><c>O </c><c>   2</c></rc>
    <rc><c>O </c><c>   2</c></rc>
    <rc><c>O </c><c>   2</c></rc>
    <rc><c>O </c><c>   2</c></rc>
    <rc><c>O </c><c>   2</c></rc>
    <rc><c>O </c><c>   2</c></rc>
    <rc><c>O </c><c>   2</c></rc>
    <rc><c>O </c><c>   2</c></rc>
    <rc><c>O </c><c>   2</c></rc>
    <rc><c>O </c><c>   2</c></rc>
    <rc><c>O </c><c>   2</c></rc>
    <rc><c>O </c><c>   2</c></rc>
    <rc><c>O </c><c>   2</c></rc>
    <rc><c>O </c><c>   2</c></rc>
    <rc><c>O </c><c>   2</c></rc>
    <rc><c>O </c><c>   2</c></rc>
    <rc><c>O </c><c>   2</c></rc>
    <rc><c>O </c><c>   2</c></rc>
    <rc><c>O </c><c>   2</c></rc>
    <rc><c>O </c><c>   2</c></rc>
    <rc><c>O </c><c>   2</c></rc>
    <rc><c>O </c><c>   2</c></rc>
    <rc><c>O </c><c>   2</c></rc>
    <rc><c>O </c><c>   2</c></rc>
    <rc><c>O </c><c>   2</c></rc>
    <rc><c>O </c><c>   2</c></rc>
    <rc><c>O </c><c>   2</c></rc>
    <rc><c>O </c><c>   2</c></rc>
    <rc><c>O </c><c>   2</c></rc>
    <rc><c>O </c><c>   2</c></rc>
    <rc><c>O </c><c>   2</c></rc>
    <rc><c>O </c><c>   2</c></rc>
    <rc><c>O </c><c>   2</c></rc>
    <rc><c>O </c><c>   2</c></rc>
    <rc><c>O </c><c>   2</c></rc>
    <rc><c>O </c><c>   2</c></rc>
    <rc><c>O </c><c>   2</c></rc>
    <rc><c>O </c><c>   2</c></rc>
    <rc><c>O </c><c>   2</c></rc>
    <rc><c>O </c><c>   2</c></rc>
    <rc><c>O </c><c>   2</c></rc>
    <rc><c>O </c><c>   2</c></rc>
    <rc><c>O </c><c>   2</c></rc>
    <rc><c>O </c><c>   2</c></rc>
    <rc><c>O </c><c>   2</c></rc>
    <rc><c>O </c><c>   2</c></rc>
    <rc><c>O </c><c>   2</c></rc>
    <rc><c>N </c><c>   3</c></rc>
   </set>
  </array>
  <array name="atomtypes" >
   <dimension dim="1">type</dimension>
   <field type="int">atomspertype</field>
   <field type="string">element</field>
   <field>mass</field>
   <field>valence</field>
   <field type="string">pseudopotential</field>
   <set>
    <rc><c>  48</c><c>Ga</c><c>     69.72300000</c><c>     13.00000000</c><c>  PAW_PBE Ga_d 06Jul2010                </c></rc>
    <rc><c>  71</c><c>O </c><c>     16.00000000</c><c>      6.00000000</c><c>  PAW_PBE O 08Apr2002                   </c></rc>
    <rc><c>   1</c><c>N </c><c>     14.00100000</c><c>      5.00000000</c><c>  PAW_PBE N 08Apr2002                   </c></rc>
   </set>
  </array>
 </atominfo>
 <structure name="initialpos" >
  <crystal>
   <varray name="basis" >
    <v>       0.00000000      12.28047342       0.00000000 </v>
    <v>       9.14270205       0.00000000       0.00000000 </v>
    <v>       0.00000000      -2.76826177     -11.30069772 </v>
   </varray>
   <i name="volume">   1268.80515525 </i>
   <varray name="rec_basis" >
    <v>       0.00000000       0.08143009      -0.01994742 </v>
    <v>       0.10937686      -0.00000000       0.00000000 </v>
    <v>       0.00000000       0.00000000      -0.08849011 </v>
   </varray>
  </crystal>
  <varray name="positions" >
   <v>       0.65841153       0.99936839       0.15594726 </v>
   <v>       0.65924052       0.99988245       0.65685037 </v>
   <v>       0.65841153       0.33396494       0.15594726 </v>
   <v>       0.65924052       0.33345088       0.65685037 </v>
   <v>       0.65867212       0.66666667       0.15627204 </v>
   <v>       0.65942154       0.66666667       0.65696699 </v>
   <v>       0.83915821       0.16666667       0.34358410 </v>
   <v>       0.84109925       0.16666667       0.84319846 </v>
   <v>       0.84069420       0.50049232       0.34287143 </v>
   <v>       0.84163294       0.50012640       0.84381130 </v>
   <v>       0.84069420       0.83284101       0.34287143 </v>
   <v>       0.84163294       0.83320694       0.84381130 </v>
   <v>       0.59154307       0.16666667       0.39787937 </v>
   <v>       0.59077746       0.16666667       0.89752085 </v>
   <v>       0.59173254       0.50013887       0.39780198 </v>
   <v>       0.59049925       0.50013675       0.89708038 </v>
   <v>       0.59173254       0.83319447       0.39780198 </v>
   <v>       0.59049925       0.83319658       0.89708038 </v>
   <v>       0.90855874       0.99879970       0.10373790 </v>
   <v>       0.90774455       0.99907033       0.60111480 </v>
   <v>       0.90855874       0.33453363       0.10373790 </v>
   <v>       0.90774455       0.33426300       0.60111480 </v>
   <v>       0.90943629       0.66666667       0.10297831 </v>
   <v>       0.90876544       0.66666667       0.60187610 </v>
   <v>       0.16083122       0.16666667       0.15874508 </v>
   <v>       0.15992701       0.16666667       0.65514882 </v>
   <v>       0.15972128       0.50006066       0.15731777 </v>
   <v>       0.15898134       0.50005007       0.65621686 </v>
   <v>       0.15972128       0.83327267       0.15731777 </v>
   <v>       0.15898134       0.83328326       0.65621686 </v>
   <v>       0.34188542       0.99958715       0.34401728 </v>
   <v>       0.34068231       0.00002627       0.84304672 </v>
   <v>       0.34188542       0.33374618       0.34401728 </v>
   <v>       0.34068231       0.33330706       0.84304672 </v>
   <v>       0.34178095       0.66666667       0.34354144 </v>
   <v>       0.34048515       0.66666667       0.84328594 </v>
   <v>       0.09009222       0.99994989       0.39685224 </v>
   <v>       0.09143830       0.99982263       0.89748689 </v>
   <v>       0.09009222       0.33338344       0.39685224 </v>
   <v>       0.09143830       0.33351070       0.89748689 </v>
   <v>       0.09154335       0.66666667       0.39777827 </v>
   <v>       0.09144461       0.66666667       0.89788478 </v>
   <v>       0.40893800       0.16666667       0.10203667 </v>
   <v>       0.40955747       0.16666667       0.60250534 </v>
   <v>       0.40890129       0.50007993       0.10204512 </v>
   <v>       0.40922825       0.50013447       0.60279652 </v>
   <v>       0.40890129       0.83325340       0.10204512 </v>
   <v>       0.40922825       0.83319887       0.60279652 </v>
   <v>       0.99661113       0.16666667       0.13759535 </v>
   <v>       0.99567463       0.16666667       0.62038228 </v>
   <v>       0.99693515       0.50009825       0.12778757 </v>
   <v>       0.99621543       0.49986548       0.62697037 </v>
   <v>       0.99693515       0.83323508       0.12778757 </v>
   <v>       0.99621543       0.83346785       0.62697037 </v>
   <v>       0.50431531       0.99994345       0.37306041 </v>
   <v>       0.50329978       0.00007566       0.87259284 </v>
   <v>       0.50431531       0.33338988       0.37306041 </v>
   <v>       0.50329978       0.33325767       0.87259284 </v>
   <v>       0.50417299       0.66666667       0.37321175 </v>
   <v>       0.50299146       0.66666667       0.87215667 </v>
   <v>       0.67227387       0.16666667       0.27997742 </v>
   <v>       0.67303230       0.16666667       0.78099002 </v>
   <v>       0.67163823       0.50081811       0.27964334 </v>
   <v>       0.67331733       0.49964802       0.78109064 </v>
   <v>       0.67163823       0.83251523       0.27964334 </v>
   <v>       0.67331733       0.83368531       0.78109064 </v>
   <v>       0.82518217       0.99695601       0.21820392 </v>
   <v>       0.82809448       0.00030552       0.71983635 </v>
   <v>       0.82518217       0.33637733       0.21820392 </v>
   <v>       0.82809448       0.33302781       0.71983635 </v>
   <v>       0.82710545       0.66666667       0.21914886 </v>
   <v>       0.82788916       0.66666667       0.71979768 </v>
   <v>       0.82804288       0.99793736       0.44570647 </v>
   <v>       0.83436599       0.00067285       0.94658977 </v>
   <v>       0.82804288       0.33539597       0.44570647 </v>
   <v>       0.83436599       0.33266049       0.94658977 </v>
   <v>       0.83100963       0.66666667       0.44563369 </v>
   <v>       0.83294907       0.66666667       0.94621605 </v>
   <v>       0.66764910       0.16666667       0.05391916 </v>
   <v>       0.66801223       0.16666667       0.55471477 </v>
   <v>       0.66725028       0.50036980       0.05334289 </v>
   <v>       0.66792078       0.50009462       0.55473330 </v>
   <v>       0.66725028       0.83296354       0.05334289 </v>
   <v>       0.66792078       0.83323872       0.55473330 </v>
   <v>       0.49614194       0.00002054       0.12677424 </v>
   <v>       0.49676815       0.99986822       0.62797927 </v>
   <v>       0.49614194       0.33331280       0.12677424 </v>
   <v>       0.49676815       0.33346511       0.62797927 </v>
   <v>       0.49602808       0.66666667       0.12626531 </v>
   <v>       0.49686326       0.66666667       0.62827312 </v>
   <v>       0.00388407       0.16666667       0.87238772 </v>
   <v>       0.00342649       0.50149442       0.37314147 </v>
   <v>       0.00406290       0.50006400       0.87267721 </v>
   <v>       0.00342649       0.83183891       0.37314147 </v>
   <v>       0.00406290       0.83326933       0.87267721 </v>
   <v>       0.17431805       0.99842954       0.28083415 </v>
   <v>       0.17200015       0.00062916       0.77965997 </v>
   <v>       0.17431805       0.33490379       0.28083415 </v>
   <v>       0.17200015       0.33270417       0.77965997 </v>
   <v>       0.17338056       0.66666667       0.28082628 </v>
   <v>       0.17227266       0.66666667       0.78018328 </v>
   <v>       0.32837292       0.16666667       0.21982223 </v>
   <v>       0.32775931       0.16666667       0.71946064 </v>
   <v>       0.32817604       0.50015934       0.21955162 </v>
   <v>       0.32753489       0.49991262       0.71983058 </v>
   <v>       0.32817604       0.83317399       0.21955162 </v>
   <v>       0.32753489       0.83342071       0.71983058 </v>
   <v>       0.33334012       0.16666667       0.44594935 </v>
   <v>       0.33155580       0.16666667       0.94556760 </v>
   <v>       0.33323698       0.50035796       0.44616078 </v>
   <v>       0.33125242       0.49968482       0.94561506 </v>
   <v>       0.33323698       0.83297537       0.44616078 </v>
   <v>       0.33125242       0.83364851       0.94561506 </v>
   <v>       0.16638853       0.00093484       0.05458800 </v>
   <v>       0.16918229       0.99895162       0.55392015 </v>
   <v>       0.16638853       0.33239849       0.05458800 </v>
   <v>       0.16918229       0.33438172       0.55392015 </v>
   <v>       0.16813647       0.66666667       0.05447995 </v>
   <v>       0.16848598       0.66666667       0.55443366 </v>
   <v>       0.00014599       0.16666667       0.36883432 </v>
  </varray>
 </structure>
 <calculation>
  <scstep>
   <time name="total">    3.96    3.97</time>
   <energy>
    <i name="alphaZ">   5530.94812622 </i>
    <i name="ewald"> -88767.74176337 </i>
    <i name="hartreedc">  -2110.47737191 </i>
    <i name="XCdc">   2801.99420178 </i>
    <i name="pawpsdc">  59853.63315401 </i>
    <i name="pawaedc"> -89056.12416640 </i>
    <i name="eentropy">     -0.00616151 </i>
    <i name="bandstr"> -40431.17732381 </i>
    <i name="atom"> 133733.99279260 </i>
    <i name="e_fr_energy"> -18444.95851239 </i>
    <i name="e_wo_entrp"> -18444.95235088 </i>
    <i name="e_0_energy"> -18444.95543163 </i>
   </energy>
  </scstep>
  <scstep>
   <time name="total">    3.11    3.11</time>
   <energy>
    <i name="e_fr_energy"> -62459.44847510 </i>
    <i name="e_wo_entrp"> -62459.42865289 </i>
    <i name="e_0_energy"> -62459.43856400 </i>
   </energy>
  </scstep>
  <scstep>
   <time name="total">    3.26    3.26</time>
   <energy>
    <i name="e_fr_energy"> -67000.39886109 </i>
    <i name="e_wo_entrp"> -67000.35418444 </i>
    <i name="e_0_energy"> -67000.37652276 </i>
   </energy>
  </scstep>
  <scstep>
   <time name="total">    3.62    3.62</time>
   <energy>
    <i name="e_fr_energy"> -67526.28762359 </i>
    <i name="e_wo_entrp"> -67526.22992495 </i>
    <i name="e_0_energy"> -67526.25877427 </i>
   </energy>
  </scstep>
  <scstep>
   <time name="total">  236.13  236.10</time>
   <energy>
    <i name="e_fr_energy"> -37417.45244870 </i>
    <i name="e_wo_entrp"> -37417.42916835 </i>
    <i name="e_0_energy"> -37417.44080853 </i>
   </energy>
  </scstep>
  <scstep>
   <time name="total">  469.42  469.36</time>
   <energy>
    <i name="e_fr_energy">  18870.82563554 </i>
    <i name="e_wo_entrp">  18870.84852066 </i>
    <i name="e_0_energy">  18870.83707810 </i>
   </energy>
  </scstep>
  <scstep>
   <time name="total">  471.05  470.98</time>
   <energy>
    <i name="e_fr_energy">   5049.12445891 </i>
    <i name="e_wo_entrp">   5049.14237651 </i>
    <i name="e_0_energy">   5049.13341771 </i>
   </energy>
  </scstep>
  <scstep>
   <time name="total">  470.70  470.64</time>
   <energy>
    <i name="e_fr_energy">   1149.75094700 </i>
    <i name="e_wo_entrp">   1149.79689415 </i>
    <i name="e_0_energy">   1149.77392058 </i>
   </energy>
  </scstep>
  <scstep>
   <time name="total">  471.47  471.38</time>
   <energy>
    <i name="e_fr_energy">    254.29356345 </i>
    <i name="e_wo_entrp">    254.35045760 </i>
    <i name="e_0_energy">    254.32201052 </i>
   </energy>
  </scstep>
  <scstep>
   <time name="total">  469.78  469.70</time>
   <energy>
    <i name="e_fr_energy">    -82.69992933 </i>
    <i name="e_wo_entrp">    -82.68674731 </i>
    <i name="e_0_energy">    -82.69333832 </i>
   </energy>
  </scstep>
  <scstep>
   <time name="total">  469.06  468.98</time>
   <energy>
    <i name="e_fr_energy">   -318.96501088 </i>
    <i name="e_wo_entrp">   -318.96052260 </i>
    <i name="e_0_energy">   -318.96276674 </i>
   </energy>
  </scstep>
  <scstep>
   <time name="total">  468.32  468.24</time>
   <energy>
    <i name="e_fr_energy">   -637.46135954 </i>
    <i name="e_wo_entrp">   -637.45353217 </i>
    <i name="e_0_energy">   -637.45744585 </i>
   </energy>
  </scstep>
  <scstep>
   <time name="total">  468.20  468.12</time>
   <energy>
    <i name="e_fr_energy">   -795.52523225 </i>
    <i name="e_wo_entrp">   -795.52518942 </i>
    <i name="e_0_energy">   -795.52521083 </i>
   </energy>
  </scstep>
  <scstep>
   <time name="total">  468.01  467.93</time>
   <energy>
    <i name="e_fr_energy">   -879.35854252 </i>
    <i name="e_wo_entrp">   -879.35708055 </i>
    <i name="e_0_energy">   -879.35781154 </i>
   </energy>
  </scstep>
  <scstep>
   <time name="total">  468.00  467.92</time>
   <energy>
    <i name="e_fr_energy">   -918.38369017 </i>
    <i name="e_wo_entrp">   -918.38365753 </i>
    <i name="e_0_energy">   -918.38367385 </i>
   </energy>
  </scstep>
  <scstep>
   <time name="total">  468.04  467.98</time>
   <energy>
    <i name="e_fr_energy">   -937.19933239 </i>
    <i name="e_wo_entrp">   -937.19364725 </i>
    <i name="e_0_energy">   -937.19648982 </i>
   </energy>
  </scstep>
  <scstep>
   <time name="total">  468.23  468.16</time>
   <energy>
    <i name="e_fr_energy">   -946.70591043 </i>
    <i name="e_wo_entrp">   -946.70425170 </i>
    <i name="e_0_energy">   -946.70508107 </i>
   </energy>
  </scstep>
  <scstep>
   <time name="total">  467.95  467.88</time>
   <energy>
    <i name="e_fr_energy">   -950.61283004 </i>
    <i name="e_wo_entrp">   -950.60939565 </i>
    <i name="e_0_energy">   -950.61111285 </i>
   </energy>
  </scstep>
  <scstep>
   <time name="total">  468.19  468.11</time>
   <energy>
    <i name="e_fr_energy">   -953.06820908 </i>
    <i name="e_wo_entrp">   -953.06127154 </i>
    <i name="e_0_energy">   -953.06474031 </i>
   </energy>
  </scstep>
  <scstep>
   <time name="total">  468.44  468.37</time>
   <energy>
    <i name="e_fr_energy">   -954.37643135 </i>
    <i name="e_wo_entrp">   -954.36631498 </i>
    <i name="e_0_energy">   -954.37137316 </i>
   </energy>
  </scstep>
  <scstep>
   <time name="total">  468.37  468.29</time>
   <energy>
    <i name="e_fr_energy">   -955.08074495 </i>
    <i name="e_wo_entrp">   -955.06495812 </i>
    <i name="e_0_energy">   -955.07285153 </i>
   </energy>
  </scstep>
  <scstep>
   <time name="total">  468.52  468.46</time>
   <energy>
    <i name="e_fr_energy">   -955.45228837 </i>
    <i name="e_wo_entrp">   -955.42996178 </i>
    <i name="e_0_energy">   -955.44112507 </i>
   </energy>
  </scstep>
  <scstep>
   <time name="total">  468.38  468.32</time>
   <energy>
    <i name="e_fr_energy">   -955.64537678 </i>
    <i name="e_wo_entrp">   -955.62355840 </i>
    <i name="e_0_energy">   -955.63446759 </i>
   </energy>
  </scstep>
  <scstep>
   <time name="total">  468.38  468.31</time>
   <energy>
    <i name="e_fr_energy">   -955.74656879 </i>
    <i name="e_wo_entrp">   -955.72588570 </i>
    <i name="e_0_energy">   -955.73622724 </i>
   </energy>
  </scstep>
  <scstep>
   <time name="total">  468.28  468.20</time>
   <energy>
    <i name="e_fr_energy">   -955.80127265 </i>
    <i name="e_wo_entrp">   -955.78092388 </i>
    <i name="e_0_energy">   -955.79109827 </i>
   </energy>
  </scstep>
  <scstep>
   <time name="total">  468.21  468.12</time>
   <energy>
    <i name="e_fr_energy">   -955.83189416 </i>
    <i name="e_wo_entrp">   -955.81110972 </i>
    <i name="e_0_energy">   -955.82150194 </i>
   </energy>
  </scstep>
  <scstep>
   <time name="total">  468.38  468.30</time>
   <energy>
    <i name="e_fr_energy">   -955.84957878 </i>
    <i name="e_wo_entrp">   -955.82799484 </i>
    <i name="e_0_energy">   -955.83878681 </i>
   </energy>
  </scstep>
  <scstep>
   <time name="total">  468.57  468.52</time>
   <energy>
    <i name="e_fr_energy">   -955.85928157 </i>
    <i name="e_wo_entrp">   -955.83682670 </i>
    <i name="e_0_energy">   -955.84805413 </i>
   </energy>
  </scstep>
  <scstep>
   <time name="total">  468.58  468.52</time>
   <energy>
    <i name="e_fr_energy">   -955.86473986 </i>
    <i name="e_wo_entrp">   -955.84157468 </i>
    <i name="e_0_energy">   -955.85315727 </i>
   </energy>
  </scstep>
  <scstep>
   <time name="total">  468.30  468.24</time>
   <energy>
    <i name="e_fr_energy">   -955.86797068 </i>
    <i name="e_wo_entrp">   -955.84439944 </i>
    <i name="e_0_energy">   -955.85618506 </i>
   </energy>
  </scstep>
  <scstep>
   <time name="total">  468.25  468.30</time>
   <energy>
    <i name="e_fr_energy">   -955.86974443 </i>
    <i name="e_wo_entrp">   -955.84599204 </i>
    <i name="e_0_energy">   -955.85786823 </i>
   </energy>
  </scstep>
  <scstep>
   <time name="total">  468.49  468.41</time>
   <energy>
    <i name="e_fr_energy">   -955.87077240 </i>
    <i name="e_wo_entrp">   -955.84696855 </i>
    <i name="e_0_energy">   -955.85887047 </i>
   </energy>
  </scstep>
  <scstep>
   <time name="total">  468.30  468.20</time>
   <energy>
    <i name="e_fr_energy">   -955.87137021 </i>
    <i name="e_wo_entrp">   -955.84756963 </i>
    <i name="e_0_energy">   -955.85946992 </i>
   </energy>
  </scstep>
  <scstep>
   <time name="total">  468.34  468.25</time>
   <energy>
    <i name="e_fr_energy">   -955.87168655 </i>
    <i name="e_wo_entrp">   -955.84790755 </i>
    <i name="e_0_energy">   -955.85979705 </i>
   </energy>
  </scstep>
  <scstep>
   <time name="total">  468.52  468.44</time>
   <energy>
    <i name="e_fr_energy">   -955.87186200 </i>
    <i name="e_wo_entrp">   -955.84811487 </i>
    <i name="e_0_energy">   -955.85998843 </i>
   </energy>
  </scstep>
  <scstep>
   <time name="total">  468.47  468.38</time>
   <energy>
    <i name="e_fr_energy">   -955.87196733 </i>
    <i name="e_wo_entrp">   -955.84825793 </i>
    <i name="e_0_energy">   -955.86011263 </i>
   </energy>
  </scstep>
  <scstep>
   <time name="total">  468.17  468.10</time>
   <energy>
    <i name="e_fr_energy">   -955.87202768 </i>
    <i name="e_wo_entrp">   -955.84834594 </i>
    <i name="e_0_energy">   -955.86018681 </i>
   </energy>
  </scstep>
  <scstep>
   <time name="total">  468.51  468.43</time>
   <energy>
    <i name="e_fr_energy">   -955.87208659 </i>
    <i name="e_wo_entrp">   -955.84842499 </i>
    <i name="e_0_energy">   -955.86025579 </i>
   </energy>
  </scstep>
  <scstep>
   <time name="total">  468.41  468.32</time>
   <energy>
    <i name="e_fr_energy">   -955.87210384 </i>
    <i name="e_wo_entrp">   -955.84845291 </i>
    <i name="e_0_energy">   -955.86027838 </i>
   </energy>
  </scstep>
  <scstep>
   <time name="total">  698.16  698.04</time>
   <energy>
    <i name="alphaZ">   5530.94812622 </i>
    <i name="ewald"> -88767.74176337 </i>
    <i name="hartreedc"> -33831.74812284 </i>
    <i name="XCdc">   2912.04072890 </i>
    <i name="pawpsdc"> 121341.60784891 </i>
    <i name="pawaedc">-136913.88915637 </i>
    <i name="eentropy">     -0.02364429 </i>
    <i name="bandstr">  -8846.50837089 </i>
    <i name="atom"> 133733.99279260 </i>
    <i name="e_fr_energy">   -955.87210865 </i>
    <i name="e_wo_entrp">   -955.84846436 </i>
    <i name="e_0_energy">   -955.86028651 </i>
   </energy>
  </scstep>
  <structure>
   <crystal>
    <varray name="basis" >
     <v>       0.00000000      12.28047342       0.00000000 </v>
     <v>       9.14270205       0.00000000       0.00000000 </v>
     <v>       0.00000000      -2.76826177     -11.30069772 </v>
    </varray>
    <i name="volume">   1268.80515525 </i>
    <varray name="rec_basis" >
     <v>       0.00000000       0.08143009      -0.01994742 </v>
     <v>       0.10937686      -0.00000000       0.00000000 </v>
     <v>       0.00000000       0.00000000      -0.08849011 </v>
    </varray>
   </crystal>
   <varray name="positions" >
    <v>       0.65841153       0.99936839       0.15594726 </v>
    <v>       0.65924052       0.99988245       0.65685037 </v>
    <v>       0.65841153       0.33396494       0.15594726 </v>
    <v>       0.65924052       0.33345088       0.65685037 </v>
    <v>       0.65867212       0.66666667       0.15627204 </v>
    <v>       0.65942154       0.66666667       0.65696699 </v>
    <v>       0.83915821       0.16666667       0.34358410 </v>
    <v>       0.84109925       0.16666667       0.84319846 </v>
    <v>       0.84069420       0.50049232       0.34287143 </v>
    <v>       0.84163294       0.50012640       0.84381130 </v>
    <v>       0.84069420       0.83284101       0.34287143 </v>
    <v>       0.84163294       0.83320694       0.84381130 </v>
    <v>       0.59154307       0.16666667       0.39787937 </v>
    <v>       0.59077746       0.16666667       0.89752085 </v>
    <v>       0.59173254       0.50013887       0.39780198 </v>
    <v>       0.59049925       0.50013675       0.89708038 </v>
    <v>       0.59173254       0.83319447       0.39780198 </v>
    <v>       0.59049925       0.83319658       0.89708038 </v>
    <v>       0.90855874       0.99879970       0.10373790 </v>
    <v>       0.90774455       0.99907033       0.60111480 </v>
    <v>       0.90855874       0.33453363       0.10373790 </v>
    <v>       0.90774455       0.33426300       0.60111480 </v>
    <v>       0.90943629       0.66666667       0.10297831 </v>
    <v>       0.90876544       0.66666667       0.60187610 </v>
    <v>       0.16083122       0.16666667       0.15874508 </v>
    <v>       0.15992701       0.16666667       0.65514882 </v>
    <v>       0.15972128       0.50006066       0.15731777 </v>
    <v>       0.15898134       0.50005007       0.65621686 </v>
    <v>       0.15972128       0.83327267       0.15731777 </v>
    <v>       0.15898134       0.83328326       0.65621686 </v>
    <v>       0.34188542       0.99958715       0.34401728 </v>
    <v>       0.34068231       0.00002627       0.84304672 </v>
    <v>       0.34188542       0.33374618       0.34401728 </v>
    <v>       0.34068231       0.33330706       0.84304672 </v>
    <v>       0.34178095       0.66666667       0.34354144 </v>
    <v>       0.34048515       0.66666667       0.84328594 </v>
    <v>       0.09009222       0.99994989       0.39685224 </v>
    <v>       0.09143830       0.99982263       0.89748689 </v>
    <v>       0.09009222       0.33338344       0.39685224 </v>
    <v>       0.09143830       0.33351070       0.89748689 </v>
    <v>       0.09154335       0.66666667       0.39777827 </v>
    <v>       0.09144461       0.66666667       0.89788478 </v>
    <v>       0.40893800       0.16666667       0.10203667 </v>
    <v>       0.40955747       0.16666667       0.60250534 </v>
    <v>       0.40890129       0.50007993       0.10204512 </v>
    <v>       0.40922825       0.50013447       0.60279652 </v>
    <v>       0.40890129       0.83325340       0.10204512 </v>
    <v>       0.40922825       0.83319887       0.60279652 </v>
    <v>       0.99661113       0.16666667       0.13759535 </v>
    <v>       0.99567463       0.16666667       0.62038228 </v>
    <v>       0.99693515       0.50009825       0.12778757 </v>
    <v>       0.99621543       0.49986548       0.62697037 </v>
    <v>       0.99693515       0.83323508       0.12778757 </v>
    <v>       0.99621543       0.83346785       0.62697037 </v>
    <v>       0.50431531       0.99994345       0.37306041 </v>
    <v>       0.50329978       0.00007566       0.87259284 </v>
    <v>       0.50431531       0.33338988       0.37306041 </v>
    <v>       0.50329978       0.33325767       0.87259284 </v>
    <v>       0.50417299       0.66666667       0.37321175 </v>
    <v>       0.50299146       0.66666667       0.87215667 </v>
    <v>       0.67227387       0.16666667       0.27997742 </v>
    <v>       0.67303230       0.16666667       0.78099002 </v>
    <v>       0.67163823       0.50081811       0.27964334 </v>
    <v>       0.67331733       0.49964802       0.78109064 </v>
    <v>       0.67163823       0.83251523       0.27964334 </v>
    <v>       0.67331733       0.83368531       0.78109064 </v>
    <v>       0.82518217       0.99695601       0.21820392 </v>
    <v>       0.82809448       0.00030552       0.71983635 </v>
    <v>       0.82518217       0.33637733       0.21820392 </v>
    <v>       0.82809448       0.33302781       0.71983635 </v>
    <v>       0.82710545       0.66666667       0.21914886 </v>
    <v>       0.82788916       0.66666667       0.71979768 </v>
    <v>       0.82804288       0.99793736       0.44570647 </v>
    <v>       0.83436599       0.00067285       0.94658977 </v>
    <v>       0.82804288       0.33539597       0.44570647 </v>
    <v>       0.83436599       0.33266049       0.94658977 </v>
    <v>       0.83100963       0.66666667       0.44563369 </v>
    <v>       0.83294907       0.66666667       0.94621605 </v>
    <v>       0.66764910       0.16666667       0.05391916 </v>
    <v>       0.66801223       0.16666667       0.55471477 </v>
    <v>       0.66725028       0.50036980       0.05334289 </v>
    <v>       0.66792078       0.50009462       0.55473330 </v>
    <v>       0.66725028       0.83296354       0.05334289 </v>
    <v>       0.66792078       0.83323872       0.55473330 </v>
    <v>       0.49614194       0.00002054       0.12677424 </v>
    <v>       0.49676815       0.99986822       0.62797927 </v>
    <v>       0.49614194       0.33331280       0.12677424 </v>
    <v>       0.49676815       0.33346511       0.62797927 </v>
    <v>       0.49602808       0.66666667       0.12626531 </v>
    <v>       0.49686326       0.66666667       0.62827312 </v>
    <v>       0.00388407       0.16666667       0.87238772 </v>
    <v>       0.00342649       0.50149442       0.37314147 </v>
    <v>       0.00406290       0.50006400       0.87267721 </v>
    <v>       0.00342649       0.83183891       0.37314147 </v>
    <v>       0.00406290       0.83326933       0.87267721 </v>
    <v>       0.17431805       0.99842954       0.28083415 </v>
    <v>       0.17200015       0.00062916       0.77965997 </v>
    <v>       0.17431805       0.33490379       0.28083415 </v>
    <v>       0.17200015       0.33270417       0.77965997 </v>
    <v>       0.17338056       0.66666667       0.28082628 </v>
    <v>       0.17227266       0.66666667       0.78018328 </v>
    <v>       0.32837292       0.16666667       0.21982223 </v>
    <v>       0.32775931       0.16666667       0.71946064 </v>
    <v>       0.32817604       0.50015934       0.21955162 </v>
    <v>       0.32753489       0.49991262       0.71983058 </v>
    <v>       0.32817604       0.83317399       0.21955162 </v>
    <v>       0.32753489       0.83342071       0.71983058 </v>
    <v>       0.33334012       0.16666667       0.44594935 </v>
    <v>       0.33155580       0.16666667       0.94556760 </v>
    <v>       0.33323698       0.50035796       0.44616078 </v>
    <v>       0.33125242       0.49968482       0.94561506 </v>
    <v>       0.33323698       0.83297537       0.44616078 </v>
    <v>       0.33125242       0.83364851       0.94561506 </v>
    <v>       0.16638853       0.00093484       0.05458800 </v>
    <v>       0.16918229       0.99895162       0.55392015 </v>
    <v>       0.16638853       0.33239849       0.05458800 </v>
    <v>       0.16918229       0.33438172       0.55392015 </v>
    <v>       0.16813647       0.66666667       0.05447995 </v>
    <v>       0.16848598       0.66666667       0.55443366 </v>
    <v>       0.00014599       0.16666667       0.36883432 </v>
   </varray>
  </structure>
  <varray name="forces" >
   <v>      -0.00807300       0.06994176       0.01425794 </v>
   <v>       0.00136985       0.07826748       0.00275992 </v>
   <v>       0.00807300       0.06994176       0.01425794 </v>
   <v>      -0.00136985       0.07826748       0.00275992 </v>
   <v>       0.00000000       0.05744020       0.00772150 </v>
   <v>       0.00000000       0.07702884       0.01148518 </v>
   <v>       0.00000000      -0.41352341       0.04739000 </v>
   <v>       0.00000000      -0.02563103      -0.02603350 </v>
   <v>       0.00789441      -0.11594596       0.00829706 </v>
   <v>      -0.01015577      -0.06125872      -0.01378146 </v>
   <v>      -0.00789441      -0.11594596       0.00829706 </v>
   <v>       0.01015577      -0.06125872      -0.01378146 </v>
   <v>       0.00000000      -0.02475077       0.00740795 </v>
   <v>       0.00000000      -0.01514175       0.01111846 </v>
   <v>       0.00039026      -0.02361216       0.01389640 </v>
   <v>      -0.00194290      -0.01328819       0.00557749 </v>
   <v>      -0.00039026      -0.02361216       0.01389640 </v>
   <v>       0.00194290      -0.01328819       0.00557749 </v>
   <v>       0.03552090       0.04964959      -0.00065468 </v>
   <v>       0.02608683       0.02180887      -0.03393207 </v>
   <v>      -0.03552090       0.04964959      -0.00065468 </v>
   <v>      -0.02608683       0.02180887      -0.03393207 </v>
   <v>       0.00000000       0.02480963       0.00017492 </v>
   <v>       0.00000000       0.01341128      -0.03036515 </v>
   <v>       0.00000000       0.04560836       0.05924478 </v>
   <v>       0.00000000       0.04547642      -0.03387154 </v>
   <v>      -0.00474816       0.06769680       0.02583505 </v>
   <v>       0.00796182       0.06501907      -0.01259484 </v>
   <v>       0.00474816       0.06769680       0.02583505 </v>
   <v>      -0.00796182       0.06501907      -0.01259484 </v>
   <v>      -0.00720819      -0.05217349      -0.01323243 </v>
   <v>      -0.00032777      -0.07073543      -0.00811038 </v>
   <v>       0.00720819      -0.05217349      -0.01323243 </v>
   <v>       0.00032777      -0.07073543      -0.00811038 </v>
   <v>       0.00000000      -0.05714099      -0.01167448 </v>
   <v>       0.00000000      -0.07234646      -0.00350201 </v>
   <v>      -0.33681767       0.21529609      -0.03706453 </v>
   <v>       0.03739637      -0.05813557       0.01094815 </v>
   <v>       0.33681767       0.21529609      -0.03706453 </v>
   <v>      -0.03739637      -0.05813557       0.01094815 </v>
   <v>       0.00000000      -0.00639037       0.00783922 </v>
   <v>       0.00000000      -0.03156332       0.01650005 </v>
   <v>       0.00000000       0.02098626      -0.00955995 </v>
   <v>       0.00000000       0.03166852      -0.02354509 </v>
   <v>      -0.00007055       0.01793882      -0.01214885 </v>
   <v>       0.00090608       0.03118543      -0.01598887 </v>
   <v>       0.00007055       0.01793882      -0.01214885 </v>
   <v>      -0.00090608       0.03118543      -0.01598887 </v>
   <v>       0.00000000      -0.17816111       0.15312517 </v>
   <v>       0.00000000      -0.17962231       0.08450705 </v>
   <v>       0.00849291      -0.18118164       0.09955568 </v>
   <v>       0.00602788      -0.16750797       0.13306775 </v>
   <v>      -0.00849291      -0.18118164       0.09955568 </v>
   <v>      -0.00602788      -0.16750797       0.13306775 </v>
   <v>      -0.00062115       0.16504589      -0.11428375 </v>
   <v>      -0.00368883       0.16382404      -0.11267640 </v>
   <v>       0.00062115       0.16504589      -0.11428375 </v>
   <v>       0.00368883       0.16382404      -0.11267640 </v>
   <v>       0.00000000       0.16605193      -0.10882072 </v>
   <v>       0.00000000       0.16376542      -0.11485215 </v>
   <v>       0.00000000      -0.01636212      -0.13109413 </v>
   <v>       0.00000000      -0.03990169      -0.11277533 </v>
   <v>       0.00365781      -0.03882041      -0.11155606 </v>
   <v>       0.00293984      -0.04432161      -0.10992404 </v>
   <v>      -0.00365781      -0.03882041      -0.11155606 </v>
   <v>      -0.00293984      -0.04432161      -0.10992404 </v>
   <v>       0.00971800       0.05076374       0.08423296 </v>
   <v>      -0.00414661       0.03029869       0.12684814 </v>
   <v>      -0.00971800       0.05076374       0.08423296 </v>
   <v>       0.00414661       0.03029869       0.12684814 </v>
   <v>       0.00000000       0.04708106       0.09761112 </v>
   <v>       0.00000000       0.03481253       0.11598061 </v>
   <v>       0.02919418       0.46457591      -0.05346968 </v>
   <v>      -0.01840502       0.36751207      -0.07670412 </v>
   <v>      -0.02919418       0.46457591      -0.05346968 </v>
   <v>       0.01840502       0.36751207      -0.07670412 </v>
   <v>       0.00000000       0.41651311      -0.06731295 </v>
   <v>       0.00000000       0.40013350      -0.07505237 </v>
   <v>       0.00000000      -0.39928513       0.07678863 </v>
   <v>       0.00000000      -0.39873213       0.07324544 </v>
   <v>      -0.00140564      -0.39972891       0.07170519 </v>
   <v>       0.00214597      -0.39394207       0.06995362 </v>
   <v>       0.00140564      -0.39972891       0.07170519 </v>
   <v>      -0.00214597      -0.39394207       0.06995362 </v>
   <v>      -0.00318900      -0.16920382       0.11806998 </v>
   <v>       0.00099778      -0.17056757       0.11908025 </v>
   <v>       0.00318900      -0.16920382       0.11806998 </v>
   <v>      -0.00099778      -0.17056757       0.11908025 </v>
   <v>       0.00000000      -0.17773252       0.10936688 </v>
   <v>       0.00000000      -0.17131621       0.11874713 </v>
   <v>       0.00000000       0.18341712      -0.11578162 </v>
   <v>      -0.04299410       0.16132946      -0.10628615 </v>
   <v>       0.00927118       0.17448107      -0.11761913 </v>
   <v>       0.04299410       0.16132946      -0.10628615 </v>
   <v>      -0.00927118       0.17448107      -0.11761913 </v>
   <v>       0.02460622      -0.07207830      -0.13535109 </v>
   <v>      -0.00952464      -0.01593899      -0.10116526 </v>
   <v>      -0.02460622      -0.07207830      -0.13535109 </v>
   <v>       0.00952464      -0.01593899      -0.10116526 </v>
   <v>       0.00000000      -0.04467488      -0.11943916 </v>
   <v>       0.00000000      -0.02327916      -0.11090519 </v>
   <v>       0.00000000       0.00961315       0.11563188 </v>
   <v>       0.00000000       0.02474783       0.12598712 </v>
   <v>      -0.00183175       0.02730485       0.10989829 </v>
   <v>      -0.00369422       0.02877318       0.12206216 </v>
   <v>       0.00183175       0.02730485       0.10989829 </v>
   <v>       0.00369422       0.02877318       0.12206216 </v>
   <v>       0.00000000       0.38571978      -0.07579841 </v>
   <v>       0.00000000       0.40069032      -0.06926719 </v>
   <v>      -0.00524973       0.39350510      -0.07380904 </v>
   <v>       0.00389766       0.40281720      -0.06934324 </v>
   <v>       0.00524973       0.39350510      -0.07380904 </v>
   <v>      -0.00389766       0.40281720      -0.06934324 </v>
   <v>      -0.01469114      -0.36095785       0.05533837 </v>
   <v>       0.03742701      -0.42980926       0.11251352 </v>
   <v>       0.01469114      -0.36095785       0.05533837 </v>
   <v>      -0.03742701      -0.42980926       0.11251352 </v>
   <v>       0.00000000      -0.39040554       0.06603471 </v>
   <v>       0.00000000      -0.40240528       0.08038507 </v>
   <v>       0.00000000       0.10373657      -0.09504574 </v>
  </varray>
  <varray name="stress" >
   <v>     -45.94748240       0.00000000       0.00000000 </v>
   <v>       0.00000000     -44.00111376       0.95381037 </v>
   <v>       0.00000000       0.95381083     -46.43502602 </v>
  </varray>
  <energy>
   <i name="e_fr_energy">   -955.87210865 </i>
   <i name="e_wo_entrp">   -955.84846436 </i>
   <i name="e_0_energy">   -955.86028651 </i>
  </energy>
  <time name="totalsc">17466.3017463.77</time>
  <eigenvalues>
   <array>
    <dimension dim="1">band</dimension>
    <dimension dim="2">kpoint</dimension>
    <dimension dim="3">spin</dimension>
    <field>eigene</field>
    <field>occ</field>
    <set>
     <set comment="spin 1">
      <set comment="kpoint 1">
       <r>  -18.6442    1.0000 </r>
       <r>  -18.3700    1.0000 </r>
       <r>  -18.3070    1.0000 </r>
       <r>  -18.2405    1.0000 </r>
       <r>  -18.1008    1.0000 </r>
       <r>  -17.9571    1.0000 </r>
       <r>  -17.9505    1.0000 </r>
       <r>  -17.8886    1.0000 </r>
       <r>  -17.8071    1.0000 </r>
       <r>  -17.7802    1.0000 </r>
       <r>  -17.7765    1.0000 </r>
       <r>  -17.6969    1.0000 </r>
       <r>  -17.6962    1.0000 </r>
       <r>  -17.6803    1.0000 </r>
       <r>  -17.6745    1.0000 </r>
       <r>  -17.6603    1.0000 </r>
       <r>  -17.6478    1.0000 </r>
       <r>  -17.6201    1.0000 </r>
       <r>  -17.5287    1.0000 </r>
       <r>  -17.5130    1.0000 </r>
       <r>  -17.5059    1.0000 </r>
       <r>  -17.4948    1.0000 </r>
       <r>  -17.4817    1.0000 </r>
       <r>  -17.4803    1.0000 </r>
       <r>  -17.4780    1.0000 </r>
       <r>  -17.3928    1.0000 </r>
       <r>  -17.3562    1.0000 </r>
       <r>  -17.3475    1.0000 </r>
       <r>  -17.3452    1.0000 </r>
       <r>  -17.3357    1.0000 </r>
       <r>  -17.3289    1.0000 </r>
       <r>  -17.3075    1.0000 </r>
       <r>  -17.2968    1.0000 </r>
       <r>  -17.2846    1.0000 </r>
       <r>  -17.2620    1.0000 </r>
       <r>  -17.2595    1.0000 </r>
       <r>  -17.2397    1.0000 </r>
       <r>  -17.2267    1.0000 </r>
       <r>  -17.1568    1.0000 </r>
       <r>  -17.1525    1.0000 </r>
       <r>  -17.1517    1.0000 </r>
       <r>  -17.1401    1.0000 </r>
       <r>  -17.1341    1.0000 </r>
       <r>  -17.1324    1.0000 </r>
       <r>  -17.1295    1.0000 </r>
       <r>  -17.1187    1.0000 </r>
       <r>  -17.0985    1.0000 </r>
       <r>  -17.0456    1.0000 </r>
       <r>  -17.0022    1.0000 </r>
       <r>  -16.9995    1.0000 </r>
       <r>  -16.9946    1.0000 </r>
       <r>  -16.9727    1.0000 </r>
       <r>  -16.9698    1.0000 </r>
       <r>  -16.9004    1.0000 </r>
       <r>  -16.8972    1.0000 </r>
       <r>  -16.8922    1.0000 </r>
       <r>  -16.8894    1.0000 </r>
       <r>  -16.8771    1.0000 </r>
       <r>  -16.8748    1.0000 </r>
       <r>  -16.8679    1.0000 </r>
       <r>  -16.8647    1.0000 </r>
       <r>  -16.8627    1.0000 </r>
       <r>  -16.8584    1.0000 </r>
       <r>  -16.8571    1.0000 </r>
       <r>  -16.8541    1.0000 </r>
       <r>  -16.8518    1.0000 </r>
       <r>  -16.8428    1.0000 </r>
       <r>  -16.8366    1.0000 </r>
       <r>  -16.8343    1.0000 </r>
       <r>  -16.7739    1.0000 </r>
       <r>  -16.7449    1.0000 </r>
       <r>  -14.0706    1.0000 </r>
       <r>  -13.0311    1.0000 </r>
       <r>  -13.0143    1.0000 </r>
       <r>  -13.0124    1.0000 </r>
       <r>  -13.0064    1.0000 </r>
       <r>  -13.0020    1.0000 </r>
       <r>  -12.9826    1.0000 </r>
       <r>  -12.9743    1.0000 </r>
       <r>  -12.9709    1.0000 </r>
       <r>  -12.9702    1.0000 </r>
       <r>  -12.9662    1.0000 </r>
       <r>  -12.9588    1.0000 </r>
       <r>  -12.9542    1.0000 </r>
       <r>  -12.9475    1.0000 </r>
       <r>  -12.9328    1.0000 </r>
       <r>  -12.9326    1.0000 </r>
       <r>  -12.9293    1.0000 </r>
       <r>  -12.9205    1.0000 </r>
       <r>  -12.9203    1.0000 </r>
       <r>  -12.9192    1.0000 </r>
       <r>  -12.9127    1.0000 </r>
       <r>  -12.9119    1.0000 </r>
       <r>  -12.9093    1.0000 </r>
       <r>  -12.9030    1.0000 </r>
       <r>  -12.9028    1.0000 </r>
       <r>  -12.8990    1.0000 </r>
       <r>  -12.8982    1.0000 </r>
       <r>  -12.8960    1.0000 </r>
       <r>  -12.8924    1.0000 </r>
       <r>  -12.8924    1.0000 </r>
       <r>  -12.8909    1.0000 </r>
       <r>  -12.8889    1.0000 </r>
       <r>  -12.8871    1.0000 </r>
       <r>  -12.8825    1.0000 </r>
       <r>  -12.8823    1.0000 </r>
       <r>  -12.8787    1.0000 </r>
       <r>  -12.8783    1.0000 </r>
       <r>  -12.8747    1.0000 </r>
       <r>  -12.8713    1.0000 </r>
       <r>  -12.8697    1.0000 </r>
       <r>  -12.8696    1.0000 </r>
       <r>  -12.8684    1.0000 </r>
       <r>  -12.8679    1.0000 </r>
       <r>  -12.8666    1.0000 </r>
       <r>  -12.8635    1.0000 </r>
       <r>  -12.8607    1.0000 </r>
       <r>  -12.8602    1.0000 </r>
       <r>  -12.8588    1.0000 </r>
       <r>  -12.8573    1.0000 </r>
       <r>  -12.8527    1.0000 </r>
       <r>  -12.8486    1.0000 </r>
       <r>  -12.8484    1.0000 </r>
       <r>  -12.8451    1.0000 </r>
       <r>  -12.8444    1.0000 </r>
       <r>  -12.8429    1.0000 </r>
       <r>  -12.8380    1.0000 </r>
       <r>  -12.8371    1.0000 </r>
       <r>  -12.8329    1.0000 </r>
       <r>  -12.8310    1.0000 </r>
       <r>  -12.8246    1.0000 </r>
       <r>  -12.8067    1.0000 </r>
       <r>  -12.8041    1.0000 </r>
       <r>  -12.8034    1.0000 </r>
       <r>  -12.8022    1.0000 </r>
       <r>  -12.7974    1.0000 </r>
       <r>  -12.7924    1.0000 </r>
       <r>  -12.7880    1.0000 </r>
       <r>  -12.7811    1.0000 </r>
       <r>  -12.7809    1.0000 </r>
       <r>  -12.7774    1.0000 </r>
       <r>  -12.7730    1.0000 </r>
       <r>  -12.7712    1.0000 </r>
       <r>  -12.7712    1.0000 </r>
       <r>  -12.7628    1.0000 </r>
       <r>  -12.7589    1.0000 </r>
       <r>  -12.7573    1.0000 </r>
       <r>  -12.7570    1.0000 </r>
       <r>  -12.7547    1.0000 </r>
       <r>  -12.7506    1.0000 </r>
       <r>  -12.7504    1.0000 </r>
       <r>  -12.7481    1.0000 </r>
       <r>  -12.7472    1.0000 </r>
       <r>  -12.7448    1.0000 </r>
       <r>  -12.7435    1.0000 </r>
       <r>  -12.7422    1.0000 </r>
       <r>  -12.7378    1.0000 </r>
       <r>  -12.7350    1.0000 </r>
       <r>  -12.7342    1.0000 </r>
       <r>  -12.7310    1.0000 </r>
       <r>  -12.7306    1.0000 </r>
       <r>  -12.7286    1.0000 </r>
       <r>  -12.7265    1.0000 </r>
       <r>  -12.7251    1.0000 </r>
       <r>  -12.7250    1.0000 </r>
       <r>  -12.7248    1.0000 </r>
       <r>  -12.7202    1.0000 </r>
       <r>  -12.7185    1.0000 </r>
       <r>  -12.7169    1.0000 </r>
       <r>  -12.7160    1.0000 </r>
       <r>  -12.7132    1.0000 </r>
       <r>  -12.7114    1.0000 </r>
       <r>  -12.7064    1.0000 </r>
       <r>  -12.7053    1.0000 </r>
       <r>  -12.7042    1.0000 </r>
       <r>  -12.7024    1.0000 </r>
       <r>  -12.6988    1.0000 </r>
       <r>  -12.6967    1.0000 </r>
       <r>  -12.6962    1.0000 </r>
       <r>  -12.6907    1.0000 </r>
       <r>  -12.6892    1.0000 </r>
       <r>  -12.6874    1.0000 </r>
       <r>  -12.6869    1.0000 </r>
       <r>  -12.6849    1.0000 </r>
       <r>  -12.6752    1.0000 </r>
       <r>  -12.6746    1.0000 </r>
       <r>  -12.6695    1.0000 </r>
       <r>  -12.6657    1.0000 </r>
       <r>  -12.6625    1.0000 </r>
       <r>  -12.6532    1.0000 </r>
       <r>  -12.6517    1.0000 </r>
       <r>  -12.6514    1.0000 </r>
       <r>  -12.6492    1.0000 </r>
       <r>  -12.6460    1.0000 </r>
       <r>  -12.6367    1.0000 </r>
       <r>  -12.6352    1.0000 </r>
       <r>  -12.6347    1.0000 </r>
       <r>  -12.6314    1.0000 </r>
       <r>  -12.6283    1.0000 </r>
       <r>  -12.6275    1.0000 </r>
       <r>  -12.6253    1.0000 </r>
       <r>  -12.6215    1.0000 </r>
       <r>  -12.6206    1.0000 </r>
       <r>  -12.6139    1.0000 </r>
       <r>  -12.6108    1.0000 </r>
       <r>  -12.6076    1.0000 </r>
       <r>  -12.6072    1.0000 </r>
       <r>  -12.6052    1.0000 </r>
       <r>  -12.6045    1.0000 </r>
       <r>  -12.6008    1.0000 </r>
       <r>  -12.5999    1.0000 </r>
       <r>  -12.5954    1.0000 </r>
       <r>  -12.5941    1.0000 </r>
       <r>  -12.5931    1.0000 </r>
       <r>  -12.5931    1.0000 </r>
       <r>  -12.5921    1.0000 </r>
       <r>  -12.5893    1.0000 </r>
       <r>  -12.5859    1.0000 </r>
       <r>  -12.5840    1.0000 </r>
       <r>  -12.5829    1.0000 </r>
       <r>  -12.5761    1.0000 </r>
       <r>  -12.5711    1.0000 </r>
       <r>  -12.5692    1.0000 </r>
       <r>  -12.5667    1.0000 </r>
       <r>  -12.5664    1.0000 </r>
       <r>  -12.5620    1.0000 </r>
       <r>  -12.5608    1.0000 </r>
       <r>  -12.5603    1.0000 </r>
       <r>  -12.5593    1.0000 </r>
       <r>  -12.5585    1.0000 </r>
       <r>  -12.5538    1.0000 </r>
       <r>  -12.5528    1.0000 </r>
       <r>  -12.5525    1.0000 </r>
       <r>  -12.5510    1.0000 </r>
       <r>  -12.5500    1.0000 </r>
       <r>  -12.5477    1.0000 </r>
       <r>  -12.5460    1.0000 </r>
       <r>  -12.5426    1.0000 </r>
       <r>  -12.5347    1.0000 </r>
       <r>  -12.5341    1.0000 </r>
       <r>  -12.5328    1.0000 </r>
       <r>  -12.5305    1.0000 </r>
       <r>  -12.5287    1.0000 </r>
       <r>  -12.5275    1.0000 </r>
       <r>  -12.5262    1.0000 </r>
       <r>  -12.5161    1.0000 </r>
       <r>  -12.5145    1.0000 </r>
       <r>  -12.5134    1.0000 </r>
       <r>  -12.5083    1.0000 </r>
       <r>  -12.5081    1.0000 </r>
       <r>  -12.5061    1.0000 </r>
       <r>  -12.4973    1.0000 </r>
       <r>  -12.4968    1.0000 </r>
       <r>  -12.4941    1.0000 </r>
       <r>  -12.4892    1.0000 </r>
       <r>  -12.4876    1.0000 </r>
       <r>  -12.4859    1.0000 </r>
       <r>  -12.4827    1.0000 </r>
       <r>  -12.4812    1.0000 </r>
[...]
       <r>   -12.0242   105.0881   578.0698 </r>
       <r>   -11.8873    97.5052   591.4165 </r>
       <r>   -11.7504   122.3185   608.1596 </r>
       <r>   -11.6135    90.0316   620.4832 </r>
       <r>   -11.4766    11.0462   621.9952 </r>
       <r>   -11.3397     0.0349   622.0000 </r>
       <r>   -11.2029     0.0000   622.0000 </r>
       <r>   -11.0660     0.0000   622.0000 </r>
       <r>   -10.9291     0.0000   622.0000 </r>
       <r>   -10.7922     0.5829   622.0798 </r>
       <r>   -10.6553    13.7722   623.9649 </r>
       <r>   -10.5185     0.2561   624.0000 </r>
       <r>   -10.3816     0.0000   624.0000 </r>
       <r>   -10.2447     0.0000   624.0000 </r>
       <r>   -10.1078     0.0000   624.0000 </r>
       <r>    -9.9709     0.0000   624.0000 </r>
       <r>    -9.8341     0.0000   624.0000 </r>
       <r>    -9.6972     0.0000   624.0000 </r>
       <r>    -9.5603     0.0000   624.0000 </r>
       <r>    -9.4234     0.0000   624.0000 </r>
       <r>    -9.2865     0.0000   624.0000 </r>
       <r>    -9.1496     0.0000   624.0000 </r>
       <r>    -9.0128     0.0000   624.0000 </r>
       <r>    -8.8759     0.0000   624.0000 </r>
       <r>    -8.7390     0.0000   624.0000 </r>
       <r>    -8.6021     0.0000   624.0000 </r>
       <r>    -8.4652     0.0000   624.0000 </r>
       <r>    -8.3284     0.0000   624.0000 </r>
       <r>    -8.1915     0.0000   624.0000 </r>
       <r>    -8.0546     0.0000   624.0000 </r>
       <r>    -7.9177     0.0000   624.0000 </r>
       <r>    -7.7808     0.0000   624.0000 </r>
       <r>    -7.6440     0.0000   624.0000 </r>
       <r>    -7.5071     0.0000   624.0000 </r>
       <r>    -7.3702     0.0000   624.0000 </r>
       <r>    -7.2333     0.0000   624.0000 </r>
       <r>    -7.0964     0.0000   624.0000 </r>
       <r>    -6.9595     0.0000   624.0000 </r>
       <r>    -6.8227     0.0000   624.0000 </r>
       <r>    -6.6858     0.0000   624.0000 </r>
       <r>    -6.5489     0.0000   624.0000 </r>
       <r>    -6.4120     0.0000   624.0000 </r>
       <r>    -6.2751     0.0000   624.0000 </r>
       <r>    -6.1383     0.0000   624.0000 </r>
       <r>    -6.0014     0.0000   624.0000 </r>
       <r>    -5.8645     0.0000   624.0000 </r>
       <r>    -5.7276     0.0000   624.0000 </r>
       <r>    -5.5907     0.0000   624.0000 </r>
       <r>    -5.4539     0.0000   624.0000 </r>
       <r>    -5.3170     0.0000   624.0000 </r>
       <r>    -5.1801     0.2468   624.0338 </r>
       <r>    -5.0432     6.9674   624.9875 </r>
       <r>    -4.9063    17.0748   627.3247 </r>
       <r>    -4.7694    20.1881   630.0881 </r>
       <r>    -4.6326    36.2806   635.0542 </r>
       <r>    -4.4957    22.2066   638.0939 </r>
       <r>    -4.3588    53.5409   645.4226 </r>
       <r>    -4.2219    35.8634   650.3316 </r>
       <r>    -4.0850    64.0762   659.1025 </r>
       <r>    -3.9482    53.6139   666.4412 </r>
       <r>    -3.8113    35.9698   671.3648 </r>
       <r>    -3.6744    59.1710   679.4642 </r>
       <r>    -3.5375    39.3261   684.8472 </r>
       <r>    -3.4006    28.3781   688.7316 </r>
       <r>    -3.2638    27.9077   692.5517 </r>
       <r>    -3.1269    32.5814   697.0114 </r>
       <r>    -2.9900    38.3935   702.2668 </r>
       <r>    -2.8531    39.3538   707.6536 </r>
       <r>    -2.7162    35.1134   712.4600 </r>
       <r>    -2.5793    29.5774   716.5086 </r>
       <r>    -2.4425    38.3665   721.7602 </r>
       <r>    -2.3056    34.7127   726.5117 </r>
       <r>    -2.1687    48.8860   733.2033 </r>
       <r>    -2.0318    43.1819   739.1141 </r>
       <r>    -1.8949    31.9268   743.4843 </r>
       <r>    -1.7581    52.5730   750.6805 </r>
       <r>    -1.6212    83.9056   762.1656 </r>
       <r>    -1.4843    58.0357   770.1096 </r>
       <r>    -1.3474    58.0385   778.0540 </r>
       <r>    -1.2105    71.6303   787.8589 </r>
       <r>    -1.0737    51.3120   794.8825 </r>
       <r>    -0.9368    40.1314   800.3757 </r>
       <r>    -0.7999    82.5121   811.6701 </r>
       <r>    -0.6630    63.3531   820.3419 </r>
       <r>    -0.5261    76.7270   830.8444 </r>
       <r>    -0.3892    70.7908   840.5344 </r>
       <r>    -0.2524    50.6504   847.4675 </r>
       <r>    -0.1155    78.2477   858.1781 </r>
       <r>     0.0214    74.2705   868.3443 </r>
       <r>     0.1583    79.5034   879.2269 </r>
       <r>     0.2952    79.6518   890.1297 </r>
       <r>     0.4320    56.7581   897.8988 </r>
       <r>     0.5689    71.1193   907.6337 </r>
       <r>     0.7058   105.5890   922.0869 </r>
       <r>     0.8427    82.3506   933.3591 </r>
       <r>     0.9796    92.7159   946.0502 </r>
       <r>     1.1164    80.8134   957.1120 </r>
       <r>     1.2533   125.8298   974.3358 </r>
       <r>     1.3902   118.4991   990.5561 </r>
       <r>     1.5271   126.1956  1007.8299 </r>
       <r>     1.6640   132.1040  1025.9125 </r>
       <r>     1.8009    82.8598  1037.2544 </r>
       <r>     1.9377    46.3550  1043.5995 </r>
       <r>     2.0746    63.2134  1052.2523 </r>
       <r>     2.2115    12.7520  1053.9978 </r>
       <r>     2.3484     0.0163  1054.0000 </r>
       <r>     2.4853     0.0000  1054.0000 </r>
       <r>     2.6221     0.0000  1054.0000 </r>
       <r>     2.7590     0.0000  1054.0000 </r>
       <r>     2.8959     0.0000  1054.0000 </r>
       <r>     3.0328     0.0000  1054.0000 </r>
       <r>     3.1697     0.0000  1054.0000 </r>
       <r>     3.3065     0.0000  1054.0000 </r>
       <r>     3.4434     0.0000  1054.0000 </r>
       <r>     3.5803     0.0000  1054.0000 </r>
       <r>     3.7172     1.8912  1054.2589 </r>
       <r>     3.8541    12.5219  1055.9729 </r>
       <r>     3.9910     0.1980  1056.0000 </r>
       <r>     4.1278     0.0000  1056.0000 </r>
       <r>     4.2647     0.0000  1056.0000 </r>
       <r>     4.4016     0.0000  1056.0000 </r>
       <r>     4.5385     0.0000  1056.0000 </r>
       <r>     4.6754     0.0000  1056.0000 </r>
       <r>     4.8122     0.0000  1056.0000 </r>
       <r>     4.9491     0.0000  1056.0000 </r>
       <r>     5.0860     0.0000  1056.0000 </r>
       <r>     5.2229     0.0000  1056.0000 </r>
       <r>     5.3598     0.0000  1056.0000 </r>
       <r>     5.4966     0.0000  1056.0000 </r>
       <r>     5.6335     0.0000  1056.0000 </r>
       <r>     5.7704     0.0000  1056.0000 </r>
       <r>     5.9073     0.0000  1056.0000 </r>
       <r>     6.0442     0.0000  1056.0000 </r>
       <r>     6.1811     0.0000  1056.0000 </r>
       <r>     6.3179     0.0000  1056.0000 </r>
       <r>     6.4548     0.0000  1056.0000 </r>
       <r>     6.5917     0.0000  1056.0000 </r>
       <r>     6.7286     0.0973  1056.0133 </r>
       <r>     6.8655     1.7072  1056.2470 </r>
       <r>     7.0023     0.0219  1056.2500 </r>
       <r>     7.1392     0.0000  1056.2500 </r>
       <r>     7.2761     0.0000  1056.2500 </r>
       <r>     7.4130     0.0000  1056.2500 </r>
       <r>     7.5499     0.2172  1056.2797 </r>
       <r>     7.6867     5.0610  1056.9725 </r>
       <r>     7.8236     2.0245  1057.2496 </r>
       <r>     7.9605     0.8820  1057.3703 </r>
       <r>     8.0974     5.5808  1058.1342 </r>
       <r>     8.2343     0.8457  1058.2500 </r>
       <r>     8.3712     0.0000  1058.2500 </r>
       <r>     8.5080     2.3767  1058.5753 </r>
       <r>     8.6449     8.8171  1059.7822 </r>
       <r>     8.7818     6.0768  1060.6140 </r>
       <r>     8.9187     4.0034  1061.1620 </r>
       <r>     9.0556     5.6571  1061.9364 </r>
       <r>     9.1924     3.0370  1062.3521 </r>
       <r>     9.3293    10.3830  1063.7733 </r>
       <r>     9.4662     7.1933  1064.7579 </r>
       <r>     9.6031     3.4672  1065.2325 </r>
       <r>     9.7400     4.1599  1065.8019 </r>
       <r>     9.8768    15.4544  1067.9174 </r>
       <r>    10.0137    13.3409  1069.7435 </r>
       <r>    10.1506     7.7392  1070.8028 </r>
       <r>    10.2875     8.7671  1072.0029 </r>
       <r>    10.4244    25.6958  1075.5202 </r>
       <r>    10.5613    27.3788  1079.2678 </r>
       <r>    10.6981    45.2045  1085.4555 </r>
       <r>    10.8350    36.8375  1090.4978 </r>
       <r>    10.9719    48.8829  1097.1890 </r>
       <r>    11.1088    17.4292  1099.5747 </r>
       <r>    11.2457    29.0046  1103.5449 </r>
       <r>    11.3825    32.2866  1107.9643 </r>
       <r>    11.5194    27.2655  1111.6965 </r>
       <r>    11.6563    38.6177  1116.9825 </r>
       <r>    11.7932    40.5230  1122.5293 </r>
       <r>    11.9301    35.8684  1127.4391 </r>
       <r>    12.0669    32.7686  1131.9245 </r>
       <r>    12.2038    17.5870  1134.3318 </r>
       <r>    12.3407    38.8527  1139.6500 </r>
       <r>    12.4776    39.2876  1145.0277 </r>
       <r>    12.6145    58.8758  1153.0867 </r>
       <r>    12.7514    34.1020  1157.7546 </r>
       <r>    12.8882    15.1771  1159.8321 </r>
       <r>    13.0251    13.4535  1161.6736 </r>
       <r>    13.1620    13.1727  1163.4767 </r>
       <r>    13.2989    26.6459  1167.1241 </r>
       <r>    13.4358    18.6149  1169.6721 </r>
       <r>    13.5726    21.8760  1172.6665 </r>
       <r>    13.7095    28.2686  1176.5359 </r>
       <r>    13.8464    24.4103  1179.8773 </r>
       <r>    13.9833    33.5939  1184.4756 </r>
       <r>    14.1202    28.4744  1188.3732 </r>
       <r>    14.2570    30.0920  1192.4923 </r>
       <r>    14.3939    10.4845  1193.9274 </r>
       <r>    14.5308    15.2650  1196.0169 </r>
       <r>    14.6677    19.3223  1198.6618 </r>
       <r>    14.8046    23.2073  1201.8384 </r>
       <r>    14.9415    18.7544  1204.4055 </r>
       <r>    15.0783    22.9145  1207.5421 </r>
       <r>    15.2152    24.3801  1210.8793 </r>
       <r>    15.3521    24.1492  1214.1848 </r>
       <r>    15.4890    32.2491  1218.5991 </r>
       <r>    15.6259    32.4111  1223.0356 </r>
       <r>    15.7627    24.0074  1226.3218 </r>
       <r>    15.8996    17.9311  1228.7762 </r>
       <r>    16.0365    27.4090  1232.5280 </r>
       <r>    16.1734    24.1751  1235.8371 </r>
       <r>    16.3103    26.0568  1239.4038 </r>
       <r>    16.4471    17.8307  1241.8445 </r>
       <r>    16.5840    20.5714  1244.6603 </r>
       <r>    16.7209    19.1459  1247.2810 </r>
       <r>    16.8578    24.5099  1250.6360 </r>
       <r>    16.9947    18.4310  1253.1588 </r>
       <r>    17.1316    14.0232  1255.0784 </r>
       <r>    17.2684    14.9639  1257.1266 </r>
       <r>    17.4053    14.5678  1259.1207 </r>
       <r>    17.5422    12.6916  1260.8579 </r>
       <r>    17.6791     7.8914  1261.9381 </r>
       <r>    17.8160     5.3887  1262.6757 </r>
       <r>    17.9528     4.1712  1263.2467 </r>
       <r>    18.0897     3.3980  1263.7118 </r>
       <r>    18.2266     0.6869  1263.8058 </r>
       <r>    18.3635     1.6888  1264.0370 </r>
       <r>    18.5004     6.7890  1264.9663 </r>
       <r>    18.6372     5.0779  1265.6614 </r>
       <r>    18.7741     2.4614  1265.9983 </r>
       <r>    18.9110     0.0126  1266.0000 </r>
       <r>    19.0479     0.0000  1266.0000 </r>
       <r>    19.1848     0.0000  1266.0000 </r>
       <r>    19.3217     0.0000  1266.0000 </r>
       <r>    19.4585     0.0000  1266.0000 </r>
       <r>    19.5954     0.0000  1266.0000 </r>
       <r>    19.7323     0.0000  1266.0000 </r>
       <r>    19.8692     0.0000  1266.0000 </r>
       <r>    20.0061     0.0000  1266.0000 </r>
       <r>    20.1429     0.0000  1266.0000 </r>
       <r>    20.2798     0.0000  1266.0000 </r>
       <r>    20.4167     0.0000  1266.0000 </r>
       <r>    20.5536     0.0000  1266.0000 </r>
      </set>
     </set>
    </array>
   </total>
  </dos>
 </calculation>
 <structure name="finalpos" >
  <crystal>
   <varray name="basis" >
    <v>       0.00000000      12.28047342       0.00000000 </v>
    <v>       9.14270205       0.00000000       0.00000000 </v>
    <v>       0.00000000      -2.76826177     -11.30069772 </v>
   </varray>
   <i name="volume">   1268.80515525 </i>
   <varray name="rec_basis" >
    <v>       0.00000000       0.08143009      -0.01994742 </v>
    <v>       0.10937686      -0.00000000       0.00000000 </v>
    <v>       0.00000000       0.00000000      -0.08849011 </v>
   </varray>
  </crystal>
  <varray name="positions" >
   <v>       0.65841153       0.99936839       0.15594726 </v>
   <v>       0.65924052       0.99988245       0.65685037 </v>
   <v>       0.65841153       0.33396494       0.15594726 </v>
   <v>       0.65924052       0.33345088       0.65685037 </v>
   <v>       0.65867212       0.66666667       0.15627204 </v>
   <v>       0.65942154       0.66666667       0.65696699 </v>
   <v>       0.83915821       0.16666667       0.34358410 </v>
   <v>       0.84109925       0.16666667       0.84319846 </v>
   <v>       0.84069420       0.50049232       0.34287143 </v>
   <v>       0.84163294       0.50012640       0.84381130 </v>
   <v>       0.84069420       0.83284101       0.34287143 </v>
   <v>       0.84163294       0.83320694       0.84381130 </v>
   <v>       0.59154307       0.16666667       0.39787937 </v>
   <v>       0.59077746       0.16666667       0.89752085 </v>
   <v>       0.59173254       0.50013887       0.39780198 </v>
   <v>       0.59049925       0.50013675       0.89708038 </v>
   <v>       0.59173254       0.83319447       0.39780198 </v>
   <v>       0.59049925       0.83319658       0.89708038 </v>
   <v>       0.90855874       0.99879970       0.10373790 </v>
   <v>       0.90774455       0.99907033       0.60111480 </v>
   <v>       0.90855874       0.33453363       0.10373790 </v>
   <v>       0.90774455       0.33426300       0.60111480 </v>
   <v>       0.90943629       0.66666667       0.10297831 </v>
   <v>       0.90876544       0.66666667       0.60187610 </v>
   <v>       0.16083122       0.16666667       0.15874508 </v>
   <v>       0.15992701       0.16666667       0.65514882 </v>
   <v>       0.15972128       0.50006066       0.15731777 </v>
   <v>       0.15898134       0.50005007       0.65621686 </v>
   <v>       0.15972128       0.83327267       0.15731777 </v>
   <v>       0.15898134       0.83328326       0.65621686 </v>
   <v>       0.34188542       0.99958715       0.34401728 </v>
   <v>       0.34068231       0.00002627       0.84304672 </v>
   <v>       0.34188542       0.33374618       0.34401728 </v>
   <v>       0.34068231       0.33330706       0.84304672 </v>
   <v>       0.34178095       0.66666667       0.34354144 </v>
   <v>       0.34048515       0.66666667       0.84328594 </v>
   <v>       0.09009222       0.99994989       0.39685224 </v>
   <v>       0.09143830       0.99982263       0.89748689 </v>
   <v>       0.09009222       0.33338344       0.39685224 </v>
   <v>       0.09143830       0.33351070       0.89748689 </v>
   <v>       0.09154335       0.66666667       0.39777827 </v>
   <v>       0.09144461       0.66666667       0.89788478 </v>
   <v>       0.40893800       0.16666667       0.10203667 </v>
   <v>       0.40955747       0.16666667       0.60250534 </v>
   <v>       0.40890129       0.50007993       0.10204512 </v>
   <v>       0.40922825       0.50013447       0.60279652 </v>
   <v>       0.40890129       0.83325340       0.10204512 </v>
   <v>       0.40922825       0.83319887       0.60279652 </v>
   <v>       0.99661113       0.16666667       0.13759535 </v>
   <v>       0.99567463       0.16666667       0.62038228 </v>
   <v>       0.99693515       0.50009825       0.12778757 </v>
   <v>       0.99621543       0.49986548       0.62697037 </v>
   <v>       0.99693515       0.83323508       0.12778757 </v>
   <v>       0.99621543       0.83346785       0.62697037 </v>
   <v>       0.50431531       0.99994345       0.37306041 </v>
   <v>       0.50329978       0.00007566       0.87259284 </v>
   <v>       0.50431531       0.33338988       0.37306041 </v>
   <v>       0.50329978       0.33325767       0.87259284 </v>
   <v>       0.50417299       0.66666667       0.37321175 </v>
   <v>       0.50299146       0.66666667       0.87215667 </v>
   <v>       0.67227387       0.16666667       0.27997742 </v>
   <v>       0.67303230       0.16666667       0.78099002 </v>
   <v>       0.67163823       0.50081811       0.27964334 </v>
   <v>       0.67331733       0.49964802       0.78109064 </v>
   <v>       0.67163823       0.83251523       0.27964334 </v>
   <v>       0.67331733       0.83368531       0.78109064 </v>
   <v>       0.82518217       0.99695601       0.21820392 </v>
   <v>       0.82809448       0.00030552       0.71983635 </v>
   <v>       0.82518217       0.33637733       0.21820392 </v>
   <v>       0.82809448       0.33302781       0.71983635 </v>
   <v>       0.82710545       0.66666667       0.21914886 </v>
   <v>       0.82788916       0.66666667       0.71979768 </v>
   <v>       0.82804288       0.99793736       0.44570647 </v>
   <v>       0.83436599       0.00067285       0.94658977 </v>
   <v>       0.82804288       0.33539597       0.44570647 </v>
   <v>       0.83436599       0.33266049       0.94658977 </v>
   <v>       0.83100963       0.66666667       0.44563369 </v>
   <v>       0.83294907       0.66666667       0.94621605 </v>
   <v>       0.66764910       0.16666667       0.05391916 </v>
   <v>       0.66801223       0.16666667       0.55471477 </v>
   <v>       0.66725028       0.50036980       0.05334289 </v>
   <v>       0.66792078       0.50009462       0.55473330 </v>
   <v>       0.66725028       0.83296354       0.05334289 </v>
   <v>       0.66792078       0.83323872       0.55473330 </v>
   <v>       0.49614194       0.00002054       0.12677424 </v>
   <v>       0.49676815       0.99986822       0.62797927 </v>
   <v>       0.49614194       0.33331280       0.12677424 </v>
   <v>       0.49676815       0.33346511       0.62797927 </v>
   <v>       0.49602808       0.66666667       0.12626531 </v>
   <v>       0.49686326       0.66666667       0.62827312 </v>
   <v>       0.00388407       0.16666667       0.87238772 </v>
   <v>       0.00342649       0.50149442       0.37314147 </v>
   <v>       0.00406290       0.50006400       0.87267721 </v>
   <v>       0.00342649       0.83183891       0.37314147 </v>
   <v>       0.00406290       0.83326933       0.87267721 </v>
   <v>       0.17431805       0.99842954       0.28083415 </v>
   <v>       0.17200015       0.00062916       0.77965997 </v>
   <v>       0.17431805       0.33490379       0.28083415 </v>
   <v>       0.17200015       0.33270417       0.77965997 </v>
   <v>       0.17338056       0.66666667       0.28082628 </v>
   <v>       0.17227266       0.66666667       0.78018328 </v>
   <v>       0.32837292       0.16666667       0.21982223 </v>
   <v>       0.32775931       0.16666667       0.71946064 </v>
   <v>       0.32817604       0.50015934       0.21955162 </v>
   <v>       0.32753489       0.49991262       0.71983058 </v>
   <v>       0.32817604       0.83317399       0.21955162 </v>
   <v>       0.32753489       0.83342071       0.71983058 </v>
   <v>       0.33334012       0.16666667       0.44594935 </v>
   <v>       0.33155580       0.16666667       0.94556760 </v>
   <v>       0.33323698       0.50035796       0.44616078 </v>
   <v>       0.33125242       0.49968482       0.94561506 </v>
   <v>       0.33323698       0.83297537       0.44616078 </v>
   <v>       0.33125242       0.83364851       0.94561506 </v>
   <v>       0.16638853       0.00093484       0.05458800 </v>
   <v>       0.16918229       0.99895162       0.55392015 </v>
   <v>       0.16638853       0.33239849       0.05458800 </v>
   <v>       0.16918229       0.33438172       0.55392015 </v>
   <v>       0.16813647       0.66666667       0.05447995 </v>
   <v>       0.16848598       0.66666667       0.55443366 </v>
   <v>       0.00014599       0.16666667       0.36883432 </v>
  </varray>
 </structure>
</modeling>
