<?xml version="1.0" encoding="ISO-8859-1"?>
<modeling>
 <generator>
  <i name="program" type="string">vasp </i>
  <i name="version" type="string">6.4.2  </i>
  <i name="subversion" type="string">20Jul23 (build Mar  2 2025 11:04:54) complex                          parallel </i>
  <i name="platform" type="string">LinuxNV </i>
  <i name="date" type="string">2025 03 03 </i>
  <i name="time" type="string">15:44:11 </i>
 </generator>
 <incar>
  <i type="int" name="ISTART">     0</i>
  <i type="string" name="PREC">Normal</i>
  <i type="string" name="ALGO">Fast</i>
  <i type="int" name="ISPIN">     1</i>
  <i type="int" name="ICHARG">     2</i>
  <i type="int" name="IBRION">     2</i>
  <i name="EDIFF">      0.00001000</i>
  <i name="EDIFFG">     -0.00500000</i>
  <i type="int" name="NSW">   300</i>
  <i type="int" name="ISIF">     3</i>
  <i name="ENCUT">    450.00000000</i>
  <i type="logical" name="LREAL"> F  </i>
  <i type="logical" name="LPLANE"> T  </i>
  <i type="int" name="ISMEAR">     0</i>
  <i name="SIGMA">      0.05000000</i>
  <i type="logical" name="LWAVE"> F  </i>
  <i type="logical" name="LCHARG"> F  </i>
 </incar>
 <primitive_cell>
  <structure name="primitive_cell" >
   <crystal>
    <varray name="basis" >
     <v>      -1.52378368       6.14023671       0.00000000 </v>
     <v>       1.52378368       6.14023671       0.00000000 </v>
     <v>       0.00000000      -1.38413089      -5.65034886 </v>
    </varray>
    <i name="volume">    105.73376294 </i>
    <varray name="rec_basis" >
     <v>      -0.32813057       0.08143009      -0.01994742 </v>
     <v>       0.32813057       0.08143009      -0.01994742 </v>
     <v>       0.00000000       0.00000000      -0.17698022 </v>
    </varray>
   </crystal>
   <varray name="positions" >
    <v>       0.65883830       0.65883830       0.31473034 </v>
    <v>       0.34116170       0.34116170       0.68526966 </v>
    <v>       0.09047440       0.09047440       0.79478600 </v>
    <v>       0.90952560       0.90952560       0.20521400 </v>
    <v>       0.49646913       0.49646913       0.25666409 </v>
    <v>       0.50353087       0.50353087       0.74333591 </v>
    <v>       0.17337106       0.17337107       0.56323016 </v>
    <v>       0.82662893       0.82662894       0.43676984 </v>
    <v>       0.83549502       0.83549502       0.89084592 </v>
    <v>       0.16450498       0.16450498       0.10915408 </v>
   </varray>
  </structure>
  <varray name="primitive_index" >
   <v type="int" >        1 </v>
   <v type="int" >        7 </v>
   <v type="int" >       13 </v>
   <v type="int" >       19 </v>
   <v type="int" >       85 </v>
   <v type="int" >       55 </v>
   <v type="int" >       61 </v>
   <v type="int" >       67 </v>
   <v type="int" >       74 </v>
   <v type="int" >       79 </v>
  </varray>
 </primitive_cell>
 <kpoints>
  <generation param="Gamma">
   <v type="int" name="divisions">       2        2        2 </v>
   <v name="usershift">      0.00000000       0.00000000       0.00000000 </v>
   <v name="genvec1">      0.50000000       0.00000000       0.00000000 </v>
   <v name="genvec2">      0.00000000       0.50000000       0.00000000 </v>
   <v name="genvec3">      0.00000000       0.00000000       0.50000000 </v>
   <v name="shift">      0.00000000       0.00000000       0.00000000 </v>
  </generation>
  <varray name="kpointlist" >
   <v>       0.00000000       0.00000000       0.00000000 </v>
   <v>       0.50000000       0.00000000       0.00000000 </v>
   <v>       0.00000000       0.50000000       0.00000000 </v>
   <v>       0.50000000       0.50000000       0.00000000 </v>
   <v>       0.00000000       0.00000000       0.50000000 </v>
   <v>       0.50000000       0.00000000       0.50000000 </v>
   <v>       0.00000000       0.50000000       0.50000000 </v>
   <v>       0.50000000       0.50000000       0.50000000 </v>
  </varray>
  <varray name="weights" >
   <v>       0.12500000 </v>
   <v>       0.12500000 </v>
   <v>       0.12500000 </v>
   <v>       0.12500000 </v>
   <v>       0.12500000 </v>
   <v>       0.12500000 </v>
   <v>       0.12500000 </v>
   <v>       0.12500000 </v>
  </varray>
 </kpoints>
 <parameters>
  <separator name="general" >
   <i type="string" name="SYSTEM">unknown system</i>
   <i type="logical" name="LCOMPAT"> F  </i>
  </separator>
  <separator name="electronic" >
   <i type="string" name="PREC">normal</i>
   <i name="ENMAX">    450.00000000</i>
   <i name="ENAUG">    605.39200000</i>
   <i name="EDIFF">      0.00001000</i>
   <i type="int" name="IALGO">    68</i>
   <i type="int" name="IWAVPR">    11</i>
   <i type="int" name="NBANDS">   636</i>
   <i type="int" name="NBANDSLOW">    -1</i>
   <i type="int" name="NBANDSHIGH">    -1</i>
   <i name="NELECT">   1056.00000000</i>
   <i type="int" name="TURBO">     0</i>
   <i type="int" name="IRESTART">     0</i>
   <i type="int" name="NREBOOT">     0</i>
   <i type="int" name="NMIN">     0</i>
   <i name="EREF">      0.00000000</i>
   <separator name="electronic smearing" >
    <i type="int" name="ISMEAR">     0</i>
    <i name="SIGMA">      0.05000000</i>
    <i name="KSPACING">      0.50000000</i>
    <i type="logical" name="KGAMMA"> T  </i>
    <i type="logical" name="KBLOWUP"> T  </i>
   </separator>
   <separator name="electronic projectors" >
    <i type="logical" name="LREAL"> F  </i>
    <v name="ROPT">      0.00000000      0.00000000</v>
    <i type="int" name="LMAXPAW">  -100</i>
    <i type="int" name="LMAXMIX">     2</i>
    <i type="logical" name="NLSPLINE"> F  </i>
   </separator>
   <separator name="electronic startup" >
    <i type="int" name="ISTART">     0</i>
    <i type="int" name="ICHARG">     2</i>
    <i type="int" name="INIWAV">     1</i>
   </separator>
   <separator name="electronic spin" >
    <i type="int" name="ISPIN">     1</i>
    <i type="logical" name="LNONCOLLINEAR"> F  </i>
    <v name="MAGMOM">      1.00000000      1.00000000      1.00000000      1.00000000      1.00000000      1.00000000      1.00000000      1.00000000      1.00000000      1.00000000      1.00000000      1.00000000      1.00000000      1.00000000      1.00000000      1.00000000      1.00000000      1.00000000      1.00000000      1.00000000
      1.00000000      1.00000000      1.00000000      1.00000000      1.00000000      1.00000000      1.00000000      1.00000000      1.00000000      1.00000000      1.00000000      1.00000000      1.00000000      1.00000000      1.00000000      1.00000000      1.00000000      1.00000000      1.00000000      1.00000000
      1.00000000      1.00000000      1.00000000      1.00000000      1.00000000      1.00000000      1.00000000      1.00000000      1.00000000      1.00000000      1.00000000      1.00000000      1.00000000      1.00000000      1.00000000      1.00000000      1.00000000      1.00000000      1.00000000      1.00000000
      1.00000000      1.00000000      1.00000000      1.00000000      1.00000000      1.00000000      1.00000000      1.00000000      1.00000000      1.00000000      1.00000000      1.00000000      1.00000000      1.00000000      1.00000000      1.00000000      1.00000000      1.00000000      1.00000000      1.00000000
      1.00000000      1.00000000      1.00000000      1.00000000      1.00000000      1.00000000      1.00000000      1.00000000      1.00000000      1.00000000      1.00000000      1.00000000      1.00000000      1.00000000      1.00000000      1.00000000      1.00000000      1.00000000      1.00000000      1.00000000
      1.00000000      1.00000000      1.00000000      1.00000000      1.00000000      1.00000000      1.00000000      1.00000000      1.00000000      1.00000000      1.00000000      1.00000000      1.00000000      1.00000000      1.00000000      1.00000000      1.00000000      1.00000000      1.00000000      1.00000000
</v>
    <i name="NUPDOWN">     -1.00000000</i>
    <i type="logical" name="LSORBIT"> F  </i>
    <v name="SAXIS">      0.00000000      0.00000000      1.00000000</v>
    <i type="logical" name="LSPIRAL"> F  </i>
    <v name="QSPIRAL">      0.00000000      0.00000000      0.00000000</v>
    <i type="logical" name="LZEROZ"> F  </i>
   </separator>
   <separator name="electronic exchange-correlation" >
    <i type="logical" name="LASPH"> F  </i>
    <i type="logical" name="LMETAGGA"> F  </i>
   </separator>
   <separator name="electronic convergence" >
    <i type="int" name="NELM">    60</i>
    <i type="int" name="NELMDL">    -5</i>
    <i type="int" name="NELMIN">     2</i>
    <i name="ENINI">    450.00000000</i>
    <separator name="electronic convergence detail" >
     <i type="logical" name="LDIAG"> T  </i>
     <i type="logical" name="LSUBROT"> F  </i>
     <i name="WEIMIN">      0.00100000</i>
     <i name="EBREAK">      0.00000000</i>
     <i name="DEPER">      0.30000000</i>
     <i type="int" name="NRMM">     4</i>
     <i name="TIME">      0.40000000</i>
    </separator>
   </separator>
   <separator name="electronic mixer" >
    <i name="AMIX">      0.40000000</i>
    <i name="BMIX">      1.00000000</i>
    <i name="AMIN">      0.10000000</i>
    <i name="AMIX_MAG">      1.60000000</i>
    <i name="BMIX_MAG">      1.00000000</i>
    <separator name="electronic mixer details" >
     <i type="int" name="IMIX">     4</i>
     <i type="logical" name="MIXFIRST"> F  </i>
     <i type="int" name="MAXMIX">   -45</i>
     <i name="WC">    100.00000000</i>
     <i type="int" name="INIMIX">     1</i>
     <i type="int" name="MIXPRE">     1</i>
     <i type="int" name="MREMOVE">     5</i>
    </separator>
   </separator>
   <separator name="electronic dipolcorrection" >
    <i type="logical" name="LDIPOL"> F  </i>
    <i type="logical" name="LMONO"> F  </i>
    <i type="int" name="IDIPOL">     0</i>
    <i name="EPSILON">      1.00000000</i>
    <v name="DIPOL">   -100.00000000   -100.00000000   -100.00000000</v>
    <i name="EFIELD">      0.00000000</i>
   </separator>
  </separator>
  <separator name="grids" >
   <i type="int" name="NGX">    64</i>
   <i type="int" name="NGY">    48</i>
   <i type="int" name="NGZ">    60</i>
   <i type="int" name="NGXF">   128</i>
   <i type="int" name="NGYF">    96</i>
   <i type="int" name="NGZF">   120</i>
   <i type="logical" name="ADDGRID"> F  </i>
  </separator>
  <separator name="ionic" >
   <i type="int" name="NSW">   300</i>
   <i type="int" name="IBRION">     2</i>
   <i type="int" name="MDALGO">     0</i>
   <i type="int" name="ISIF">     3</i>
   <i name="PSTRESS">      0.00000000</i>
   <i name="EDIFFG">     -0.00500000</i>
   <i type="int" name="NFREE">     1</i>
   <i name="POTIM">      0.50000000</i>
   <i name="SMASS">     -3.00000000</i>
   <i name="SCALEE">      1.00000000</i>
  </separator>
  <separator name="ionic md" >
   <i name="TEBEG">      0.00010000</i>
   <i name="TEEND">      0.00010000</i>
   <i type="int" name="NBLOCK">     1</i>
   <i type="int" name="KBLOCK">   300</i>
   <i type="int" name="NPACO">   256</i>
   <i name="APACO">     10.00000000</i>
  </separator>
  <separator name="symmetry" >
   <i type="int" name="ISYM">     2</i>
   <i name="SYMPREC">      0.00001000</i>
  </separator>
  <separator name="dos" >
   <i type="int" name="LORBIT">     0</i>
   <v name="RWIGS">     -1.00000000     -1.00000000</v>
   <i type="int" name="NEDOS">   301</i>
   <i name="EMIN">     10.00000000</i>
   <i name="EMAX">    -10.00000000</i>
   <i name="EFERMI">      0.00000000</i>
  </separator>
  <separator name="writing" >
   <i type="int" name="NWRITE">     2</i>
   <i type="logical" name="LWAVE"> F  </i>
   <i type="logical" name="LDOWNSAMPLE"> F  </i>
   <i type="logical" name="LCHARG"> F  </i>
   <i type="logical" name="LPARD"> F  </i>
   <i type="logical" name="LVTOT"> F  </i>
   <i type="logical" name="LVHAR"> F  </i>
   <i type="logical" name="LELF"> F  </i>
   <i type="logical" name="LOPTICS"> F  </i>
   <v name="STM">      0.00000000      0.00000000      0.00000000      0.00000000      0.00000000      0.00000000      0.00000000</v>
  </separator>
  <separator name="performance" >
   <i type="int" name="NPAR">     4</i>
   <i type="int" name="NSIM">     4</i>
   <i type="int" name="NBLK">    -1</i>
   <i type="logical" name="LPLANE"> T  </i>
   <i type="logical" name="LSCALAPACK"> T  </i>
   <i type="logical" name="LSCAAWARE"> F  </i>
   <i type="logical" name="LSCALU"> F  </i>
   <i type="logical" name="LASYNC"> F  </i>
   <i type="logical" name="LORBITALREAL"> F  </i>
  </separator>
  <separator name="miscellaneous" >
   <i type="int" name="IDIOT">     3</i>
   <i type="int" name="PHON_NSTRUCT">    -1</i>
   <i type="logical" name="LMUSIC"> F  </i>
   <v name="POMASS">     69.72300000     16.00000000</v>
   <v name="DARWINR">      0.00000000      0.00000000</v>
   <v name="DARWINV">      1.00000000      1.00000000</v>
   <i type="logical" name="LCORR"> T  </i>
  </separator>
  <i type="logical" name="GGA_COMPAT"> T  </i>
  <i type="logical" name="LBERRY"> F  </i>
  <i type="int" name="ICORELEVEL">     0</i>
  <i type="logical" name="LDAU"> F  </i>
  <i type="int" name="I_CONSTRAINED_M">     0</i>
  <separator name="electronic exchange-correlation" >
   <i type="string" name="GGA">--</i>
   <i type="int" name="VOSKOWN">     0</i>
   <i type="logical" name="LHFCALC"> F  </i>
   <i type="string" name="PRECFOCK"></i>
   <i type="logical" name="LSYMGRAD"> F  </i>
   <i type="logical" name="LHFONE"> F  </i>
   <i type="logical" name="LRHFCALC"> F  </i>
   <i type="logical" name="LTHOMAS"> F  </i>
   <i type="logical" name="LMODELHF"> F  </i>
   <i type="logical" name="LFOCKACE"> F  </i>
   <i name="ENCUT4O">     -1.00000000</i>
   <i type="int" name="EXXOEP">     0</i>
   <i type="int" name="FOURORBIT">     0</i>
   <i name="AEXX">      0.00000000</i>
   <i name="HFALPHA">      0.00000000</i>
   <i name="MCALPHA">      0.00000000</i>
   <i name="ALDAX">      1.00000000</i>
   <i name="AGGAX">      1.00000000</i>
   <i name="ALDAC">      1.00000000</i>
   <i name="AGGAC">      1.00000000</i>
   <i type="int" name="NKREDX">     1</i>
   <i type="int" name="NKREDY">     1</i>
   <i type="int" name="NKREDZ">     1</i>
   <i type="logical" name="SHIFTRED"> F  </i>
   <i type="logical" name="ODDONLY"> F  </i>
   <i type="logical" name="EVENONLY"> F  </i>
   <i type="int" name="LMAXFOCK">     0</i>
   <i type="int" name="NMAXFOCKAE">     0</i>
   <i type="logical" name="LFOCKAEDFT"> F  </i>
   <i name="HFSCREEN">      0.00000000</i>
   <i name="HFSCREENC">      0.00000000</i>
   <i type="int" name="NBANDSGWLOW">     0</i>
  </separator>
  <separator name="vdW DFT" >
   <i type="logical" name="LUSE_VDW"> F  </i>
   <i type="int" name="IVDW_NL">     1</i>
   <i type="logical" name="LSPIN_VDW"> F  </i>
   <i name="Zab_VDW">     -0.84910000</i>
   <i name="PARAM1">      0.12340000</i>
   <i name="PARAM2">      1.00000000</i>
   <i name="PARAM3">      0.00000000</i>
  </separator>
  <separator name="model GW" >
   <i type="int" name="MODEL_GW">     0</i>
   <i name="MODEL_EPS0">      6.34402578</i>
   <i name="MODEL_ALPHA">      1.00000000</i>
  </separator>
  <separator name="linear response parameters" >
   <i type="logical" name="LEPSILON"> F  </i>
   <i type="logical" name="LRPA"> F  </i>
   <i type="logical" name="LNABLA"> F  </i>
   <i type="logical" name="LVEL"> F  </i>
   <i name="CSHIFT">      0.10000000</i>
   <i name="OMEGAMAX">     -1.00000000</i>
   <i name="DEG_THRESHOLD">      0.00200000</i>
   <i name="RTIME">     -0.10000000</i>
   <i name="WPLASMAI">      0.00000000</i>
   <v name="DFIELD">      0.00000000      0.00000000      0.00000000</v>
   <v name="WPLASMA">      0.00000000      0.00000000      0.00000000      0.00000000      0.00000000      0.00000000      0.00000000      0.00000000      0.00000000</v>
  </separator>
  <separator name="orbital magnetization" >
   <i type="logical" name="NUCIND"> F  </i>
   <v name="MAGPOS">      0.00000000      0.00000000      0.00000000</v>
   <i type="logical" name="LNICSALL"> T  </i>
   <i type="logical" name="ORBITALMAG"> F  </i>
   <i type="logical" name="LMAGBLOCH"> F  </i>
   <i type="logical" name="LCHIMAG"> F  </i>
   <i type="logical" name="LGAUGE"> T  </i>
   <i type="int" name="MAGATOM">     0</i>
   <v name="MAGDIPOL">      0.00000000      0.00000000      0.00000000</v>
   <v name="AVECCONST">      0.00000000      0.00000000      0.00000000</v>
  </separator>
  <separator name="response functions" >
   <i type="logical" name="LALL_IN_ONE"> F  </i>
   <i type="int" name="IALL_IN_ONE">    -1</i>
   <i type="int" name="NBANDS_WAVE">    -1</i>
   <i type="logical" name="LFINITE_TEMPERATURE"> F  </i>
   <i type="logical" name="LADDER"> F  </i>
   <i type="logical" name="LRPAFORCE"> F  </i>
   <i type="logical" name="LFXC"> F  </i>
   <i type="logical" name="LHARTREE"> T  </i>
   <i type="int" name="IBSE">     0</i>
   <v type="int" name="KPOINT">    -1     0     0     0</v>
   <i type="logical" name="LTCTC"> F  </i>
   <i type="logical" name="LTCTE"> F  </i>
   <i type="logical" name="LTETE"> F  </i>
   <i type="logical" name="LTRIPLET"> F  </i>
   <i type="logical" name="LFXCEPS"> F  </i>
   <i type="logical" name="LFXHEG"> F  </i>
   <i type="int" name="NATURALO">     2</i>
   <i type="logical" name="LHOLEGF"> F  </i>
   <i type="logical" name="L2ORDER"> F  </i>
   <i type="logical" name="LDMP1"> F  </i>
   <i type="logical" name="LMP2LT"> F  </i>
   <i type="logical" name="LSMP2LT"> F  </i>
   <i type="logical" name="LGWLF"> F  </i>
   <i name="ENCUTGW">     -1.60000002</i>
   <i name="ENCUTGWSOFT">     -1.60000002</i>
   <i name="ENCUTLF">     -1.00000000</i>
   <i type="logical" name="LESF_SPLINES"> F  </i>
   <i type="int" name="LMAXMP2">    -1</i>
   <i name="SCISSOR">      0.00000000</i>
   <i type="int" name="NOMEGA">     0</i>
   <i type="int" name="NOMEGAR">     0</i>
   <i type="int" name="NBANDSGW">    -1</i>
   <i type="int" name="NBANDSO">    -1</i>
   <i type="int" name="NBANDSV">    -1</i>
   <i type="int" name="NELMGW">     1</i>
   <i type="int" name="NELMHF">     1</i>
   <i type="int" name="DIM">     3</i>
   <i type="int" name="IESPILON">     4</i>
   <i type="int" name="ANTIRES">     0</i>
   <i name="OMEGAMAX">    -30.00000000</i>
   <i name="OMEGAMIN">    -30.00000000</i>
   <i name="OMEGATL">   -200.00000000</i>
   <i type="int" name="OMEGAGRID">     0</i>
   <i name="CSHIFT">     -0.10000000</i>
   <i type="logical" name="LSELFENERGY"> F  </i>
   <i type="logical" name="LSPECTRAL"> F  </i>
   <i type="logical" name="LSPECTRALGW"> F  </i>
   <i type="logical" name="LSINGLES"> F  </i>
   <i type="logical" name="LFERMIGW"> F  </i>
   <i type="logical" name="ODDONLYGW"> F  </i>
   <i type="logical" name="EVENONLYGW"> F  </i>
   <i type="int" name="NKREDLFX">     1</i>
   <i type="int" name="NKREDLFY">     1</i>
   <i type="int" name="NKREDLFZ">     1</i>
   <i type="int" name="MAXMEM">  2800</i>
   <i type="int" name="TELESCOPE">     0</i>
   <i type="int" name="NTAUPAR">    -1</i>
   <i type="int" name="NOMEGAPAR">    -1</i>
   <i name="DAMP_NEWTON">      0.80000001</i>
   <i name="LAMBDA">      1.00000000</i>
  </separator>
  <separator name="External order field" >
   <i name="OFIELD_KAPPA">      0.00000000</i>
   <v name="OFIELD_K">      0.00000000      0.00000000      0.00000000</v>
   <i name="OFIELD_Q6_NEAR">      0.00000000</i>
   <i name="OFIELD_Q6_FAR">      0.00000000</i>
   <i name="OFIELD_A">      0.00000000</i>
  </separator>
  <separator name="optional k-points parameters" >
   <i type="int" name="KPOINTS_OPT_MODE">     1</i>
   <i type="logical" name="LKPOINTS_OPT"> F  </i>
  </separator>
 </parameters>
 <atominfo>
  <atoms>     120 </atoms>
  <types>       2 </types>
  <array name="atoms" >
   <dimension dim="1">ion</dimension>
   <field type="string">element</field>
   <field type="int">atomtype</field>
   <set>
    <rc><c>Ga</c><c>   1</c></rc>
    <rc><c>Ga</c><c>   1</c></rc>
    <rc><c>Ga</c><c>   1</c></rc>
    <rc><c>Ga</c><c>   1</c></rc>
    <rc><c>Ga</c><c>   1</c></rc>
    <rc><c>Ga</c><c>   1</c></rc>
    <rc><c>Ga</c><c>   1</c></rc>
    <rc><c>Ga</c><c>   1</c></rc>
    <rc><c>Ga</c><c>   1</c></rc>
    <rc><c>Ga</c><c>   1</c></rc>
    <rc><c>Ga</c><c>   1</c></rc>
    <rc><c>Ga</c><c>   1</c></rc>
    <rc><c>Ga</c><c>   1</c></rc>
    <rc><c>Ga</c><c>   1</c></rc>
    <rc><c>Ga</c><c>   1</c></rc>
    <rc><c>Ga</c><c>   1</c></rc>
    <rc><c>Ga</c><c>   1</c></rc>
    <rc><c>Ga</c><c>   1</c></rc>
    <rc><c>Ga</c><c>   1</c></rc>
    <rc><c>Ga</c><c>   1</c></rc>
    <rc><c>Ga</c><c>   1</c></rc>
    <rc><c>Ga</c><c>   1</c></rc>
    <rc><c>Ga</c><c>   1</c></rc>
    <rc><c>Ga</c><c>   1</c></rc>
    <rc><c>Ga</c><c>   1</c></rc>
    <rc><c>Ga</c><c>   1</c></rc>
    <rc><c>Ga</c><c>   1</c></rc>
    <rc><c>Ga</c><c>   1</c></rc>
    <rc><c>Ga</c><c>   1</c></rc>
    <rc><c>Ga</c><c>   1</c></rc>
    <rc><c>Ga</c><c>   1</c></rc>
    <rc><c>Ga</c><c>   1</c></rc>
    <rc><c>Ga</c><c>   1</c></rc>
    <rc><c>Ga</c><c>   1</c></rc>
    <rc><c>Ga</c><c>   1</c></rc>
    <rc><c>Ga</c><c>   1</c></rc>
    <rc><c>Ga</c><c>   1</c></rc>
    <rc><c>Ga</c><c>   1</c></rc>
    <rc><c>Ga</c><c>   1</c></rc>
    <rc><c>Ga</c><c>   1</c></rc>
    <rc><c>Ga</c><c>   1</c></rc>
    <rc><c>Ga</c><c>   1</c></rc>
    <rc><c>Ga</c><c>   1</c></rc>
    <rc><c>Ga</c><c>   1</c></rc>
    <rc><c>Ga</c><c>   1</c></rc>
    <rc><c>Ga</c><c>   1</c></rc>
    <rc><c>Ga</c><c>   1</c></rc>
    <rc><c>Ga</c><c>   1</c></rc>
    <rc><c>O </c><c>   2</c></rc>
    <rc><c>O </c><c>   2</c></rc>
    <rc><c>O </c><c>   2</c></rc>
    <rc><c>O </c><c>   2</c></rc>
    <rc><c>O </c><c>   2</c></rc>
    <rc><c>O </c><c>   2</c></rc>
    <rc><c>O </c><c>   2</c></rc>
    <rc><c>O </c><c>   2</c></rc>
    <rc><c>O </c><c>   2</c></rc>
    <rc><c>O </c><c>   2</c></rc>
    <rc><c>O </c><c>   2</c></rc>
    <rc><c>O </c><c>   2</c></rc>
    <rc><c>O </c><c>   2</c></rc>
    <rc><c>O </c><c>   2</c></rc>
    <rc><c>O </c><c>   2</c></rc>
    <rc><c>O </c><c>   2</c></rc>
    <rc><c>O </c><c>   2</c></rc>
    <rc><c>O </c><c>   2</c></rc>
    <rc><c>O </c><c>   2</c></rc>
    <rc><c>O </c><c>   2</c></rc>
    <rc><c>O </c><c>   2</c></rc>
    <rc><c>O </c><c>   2</c></rc>
    <rc><c>O </c><c>   2</c></rc>
    <rc><c>O </c><c>   2</c></rc>
    <rc><c>O </c><c>   2</c></rc>
    <rc><c>O </c><c>   2</c></rc>
    <rc><c>O </c><c>   2</c></rc>
    <rc><c>O </c><c>   2</c></rc>
    <rc><c>O </c><c>   2</c></rc>
    <rc><c>O </c><c>   2</c></rc>
    <rc><c>O </c><c>   2</c></rc>
    <rc><c>O </c><c>   2</c></rc>
    <rc><c>O </c><c>   2</c></rc>
    <rc><c>O </c><c>   2</c></rc>
    <rc><c>O </c><c>   2</c></rc>
    <rc><c>O </c><c>   2</c></rc>
    <rc><c>O </c><c>   2</c></rc>
    <rc><c>O </c><c>   2</c></rc>
    <rc><c>O </c><c>   2</c></rc>
    <rc><c>O </c><c>   2</c></rc>
    <rc><c>O </c><c>   2</c></rc>
    <rc><c>O </c><c>   2</c></rc>
    <rc><c>O </c><c>   2</c></rc>
    <rc><c>O </c><c>   2</c></rc>
    <rc><c>O </c><c>   2</c></rc>
    <rc><c>O </c><c>   2</c></rc>
    <rc><c>O </c><c>   2</c></rc>
    <rc><c>O </c><c>   2</c></rc>
    <rc><c>O </c><c>   2</c></rc>
    <rc><c>O </c><c>   2</c></rc>
    <rc><c>O </c><c>   2</c></rc>
    <rc><c>O </c><c>   2</c></rc>
    <rc><c>O </c><c>   2</c></rc>
    <rc><c>O </c><c>   2</c></rc>
    <rc><c>O </c><c>   2</c></rc>
    <rc><c>O </c><c>   2</c></rc>
    <rc><c>O </c><c>   2</c></rc>
    <rc><c>O </c><c>   2</c></rc>
    <rc><c>O </c><c>   2</c></rc>
    <rc><c>O </c><c>   2</c></rc>
    <rc><c>O </c><c>   2</c></rc>
    <rc><c>O </c><c>   2</c></rc>
    <rc><c>O </c><c>   2</c></rc>
    <rc><c>O </c><c>   2</c></rc>
    <rc><c>O </c><c>   2</c></rc>
    <rc><c>O </c><c>   2</c></rc>
    <rc><c>O </c><c>   2</c></rc>
    <rc><c>O </c><c>   2</c></rc>
    <rc><c>O </c><c>   2</c></rc>
    <rc><c>O </c><c>   2</c></rc>
    <rc><c>O </c><c>   2</c></rc>
    <rc><c>O </c><c>   2</c></rc>
   </set>
  </array>
  <array name="atomtypes" >
   <dimension dim="1">type</dimension>
   <field type="int">atomspertype</field>
   <field type="string">element</field>
   <field>mass</field>
   <field>valence</field>
   <field type="string">pseudopotential</field>
   <set>
    <rc><c>  48</c><c>Ga</c><c>     69.72300000</c><c>     13.00000000</c><c>  PAW_PBE Ga_d 06Jul2010                </c></rc>
    <rc><c>  72</c><c>O </c><c>     16.00000000</c><c>      6.00000000</c><c>  PAW_PBE O 08Apr2002                   </c></rc>
   </set>
  </array>
 </atominfo>
 <structure name="initialpos" >
  <crystal>
   <varray name="basis" >
    <v>       0.00000000      12.28047342       0.00000000 </v>
    <v>       9.14270205       0.00000000       0.00000000 </v>
    <v>       0.00000000      -2.76826177     -11.30069772 </v>
   </varray>
   <i name="volume">   1268.80515525 </i>
   <varray name="rec_basis" >
    <v>       0.00000000       0.08143009      -0.01994742 </v>
    <v>       0.10937686      -0.00000000       0.00000000 </v>
    <v>       0.00000000       0.00000000      -0.08849011 </v>
   </varray>
  </crystal>
  <varray name="positions" >
   <v>       0.65883830       0.00000000       0.15736517 </v>
   <v>       0.65883830       0.00000000       0.65736517 </v>
   <v>       0.65883830       0.33333333       0.15736517 </v>
   <v>       0.65883830       0.33333333       0.65736517 </v>
   <v>       0.65883830       0.66666667       0.15736517 </v>
   <v>       0.65883830       0.66666667       0.65736517 </v>
   <v>       0.84116170       0.16666667       0.34263483 </v>
   <v>       0.84116170       0.16666667       0.84263483 </v>
   <v>       0.84116170       0.50000000       0.34263483 </v>
   <v>       0.84116170       0.50000000       0.84263483 </v>
   <v>       0.84116170       0.83333333       0.34263483 </v>
   <v>       0.84116170       0.83333333       0.84263483 </v>
   <v>       0.59047440       0.16666667       0.39739300 </v>
   <v>       0.59047440       0.16666667       0.89739300 </v>
   <v>       0.59047440       0.50000000       0.39739300 </v>
   <v>       0.59047440       0.50000000       0.89739300 </v>
   <v>       0.59047440       0.83333333       0.39739300 </v>
   <v>       0.59047440       0.83333333       0.89739300 </v>
   <v>       0.90952560       0.00000000       0.10260700 </v>
   <v>       0.90952560       0.00000000       0.60260700 </v>
   <v>       0.90952560       0.33333333       0.10260700 </v>
   <v>       0.90952560       0.33333333       0.60260700 </v>
   <v>       0.90952560       0.66666667       0.10260700 </v>
   <v>       0.90952560       0.66666667       0.60260700 </v>
   <v>       0.15883830       0.16666667       0.15736517 </v>
   <v>       0.15883830       0.16666667       0.65736517 </v>
   <v>       0.15883830       0.50000000       0.15736517 </v>
   <v>       0.15883830       0.50000000       0.65736517 </v>
   <v>       0.15883830       0.83333333       0.15736517 </v>
   <v>       0.15883830       0.83333333       0.65736517 </v>
   <v>       0.34116170       0.00000000       0.34263483 </v>
   <v>       0.34116170       0.00000000       0.84263483 </v>
   <v>       0.34116170       0.33333333       0.34263483 </v>
   <v>       0.34116170       0.33333333       0.84263483 </v>
   <v>       0.34116170       0.66666667       0.34263483 </v>
   <v>       0.34116170       0.66666667       0.84263483 </v>
   <v>       0.09047440       0.00000000       0.39739300 </v>
   <v>       0.09047440       0.00000000       0.89739300 </v>
   <v>       0.09047440       0.33333333       0.39739300 </v>
   <v>       0.09047440       0.33333333       0.89739300 </v>
   <v>       0.09047440       0.66666667       0.39739300 </v>
   <v>       0.09047440       0.66666667       0.89739300 </v>
   <v>       0.40952560       0.16666667       0.10260700 </v>
   <v>       0.40952560       0.16666667       0.60260700 </v>
   <v>       0.40952560       0.50000000       0.10260700 </v>
   <v>       0.40952560       0.50000000       0.60260700 </v>
   <v>       0.40952560       0.83333333       0.10260700 </v>
   <v>       0.40952560       0.83333333       0.60260700 </v>
   <v>       0.99646913       0.16666667       0.12833205 </v>
   <v>       0.99646913       0.16666667       0.62833205 </v>
   <v>       0.99646913       0.50000000       0.12833205 </v>
   <v>       0.99646913       0.50000000       0.62833205 </v>
   <v>       0.99646913       0.83333333       0.12833205 </v>
   <v>       0.99646913       0.83333333       0.62833205 </v>
   <v>       0.50353087       0.00000000       0.37166795 </v>
   <v>       0.50353087       0.00000000       0.87166795 </v>
   <v>       0.50353087       0.33333333       0.37166795 </v>
   <v>       0.50353087       0.33333333       0.87166795 </v>
   <v>       0.50353087       0.66666667       0.37166795 </v>
   <v>       0.50353087       0.66666667       0.87166795 </v>
   <v>       0.67337106       0.16666667       0.28161508 </v>
   <v>       0.67337106       0.16666667       0.78161508 </v>
   <v>       0.67337106       0.50000000       0.28161508 </v>
   <v>       0.67337106       0.50000000       0.78161508 </v>
   <v>       0.67337106       0.83333333       0.28161508 </v>
   <v>       0.67337106       0.83333333       0.78161508 </v>
   <v>       0.82662894       0.00000000       0.21838492 </v>
   <v>       0.82662894       0.00000000       0.71838492 </v>
   <v>       0.82662894       0.33333333       0.21838492 </v>
   <v>       0.82662894       0.33333333       0.71838492 </v>
   <v>       0.82662894       0.66666667       0.21838492 </v>
   <v>       0.82662894       0.66666667       0.71838492 </v>
   <v>       0.83549502       0.00000000       0.44542296 </v>
   <v>       0.83549502       0.00000000       0.94542296 </v>
   <v>       0.83549502       0.33333333       0.44542296 </v>
   <v>       0.83549502       0.33333333       0.94542296 </v>
   <v>       0.83549502       0.66666667       0.44542296 </v>
   <v>       0.83549502       0.66666667       0.94542296 </v>
   <v>       0.66450498       0.16666667       0.05457704 </v>
   <v>       0.66450498       0.16666667       0.55457704 </v>
   <v>       0.66450498       0.50000000       0.05457704 </v>
   <v>       0.66450498       0.50000000       0.55457704 </v>
   <v>       0.66450498       0.83333333       0.05457704 </v>
   <v>       0.66450498       0.83333333       0.55457704 </v>
   <v>       0.49646913       0.00000000       0.12833205 </v>
   <v>       0.49646913       0.00000000       0.62833205 </v>
   <v>       0.49646913       0.33333333       0.12833205 </v>
   <v>       0.49646913       0.33333333       0.62833205 </v>
   <v>       0.49646913       0.66666667       0.12833205 </v>
   <v>       0.49646913       0.66666667       0.62833205 </v>
   <v>       0.00353087       0.16666667       0.37166795 </v>
   <v>       0.00353087       0.16666667       0.87166795 </v>
   <v>       0.00353087       0.50000000       0.37166795 </v>
   <v>       0.00353087       0.50000000       0.87166795 </v>
   <v>       0.00353087       0.83333333       0.37166795 </v>
   <v>       0.00353087       0.83333333       0.87166795 </v>
   <v>       0.17337106       0.00000000       0.28161508 </v>
   <v>       0.17337106       0.00000000       0.78161508 </v>
   <v>       0.17337106       0.33333333       0.28161508 </v>
   <v>       0.17337106       0.33333333       0.78161508 </v>
   <v>       0.17337106       0.66666667       0.28161508 </v>
   <v>       0.17337106       0.66666667       0.78161508 </v>
   <v>       0.32662894       0.16666667       0.21838492 </v>
   <v>       0.32662894       0.16666667       0.71838492 </v>
   <v>       0.32662894       0.50000000       0.21838492 </v>
   <v>       0.32662894       0.50000000       0.71838492 </v>
   <v>       0.32662894       0.83333333       0.21838492 </v>
   <v>       0.32662894       0.83333333       0.71838492 </v>
   <v>       0.33549502       0.16666667       0.44542296 </v>
   <v>       0.33549502       0.16666667       0.94542296 </v>
   <v>       0.33549502       0.50000000       0.44542296 </v>
   <v>       0.33549502       0.50000000       0.94542296 </v>
   <v>       0.33549502       0.83333333       0.44542296 </v>
   <v>       0.33549502       0.83333333       0.94542296 </v>
   <v>       0.16450498       0.00000000       0.05457704 </v>
   <v>       0.16450498       0.00000000       0.55457704 </v>
   <v>       0.16450498       0.33333333       0.05457704 </v>
   <v>       0.16450498       0.33333333       0.55457704 </v>
   <v>       0.16450498       0.66666667       0.05457704 </v>
   <v>       0.16450498       0.66666667       0.55457704 </v>
  </varray>
 </structure>
 <calculation>
  <scstep>
   <time name="dav">   18.04   18.05</time>
   <time name="total">   18.20   18.21</time>
   <energy>
    <i name="alphaZ">   5537.53060054 </i>
    <i name="ewald"> -88727.78127417 </i>
    <i name="hartreedc"> -33409.49606508 </i>
    <i name="XCdc">   4148.07855945 </i>
    <i name="pawpsdc"> 101903.03713558 </i>
    <i name="pawaedc">-118043.08713707 </i>
    <i name="eentropy">     -0.01343967 </i>
    <i name="bandstr">  16251.64206285 </i>
    <i name="atom"> 134272.11748520 </i>
    <i name="e_fr_energy">  21932.02792763 </i>
    <i name="e_wo_entrp">  21932.04136730 </i>
    <i name="e_0_energy">  21932.03464747 </i>
   </energy>
  </scstep>
  <scstep>
   <time name="dav">   17.97   17.97</time>
   <time name="total">   17.97   17.98</time>
   <energy>
    <i name="e_fr_energy">   4846.39999574 </i>
    <i name="e_wo_entrp">   4846.42490115 </i>
    <i name="e_0_energy">   4846.41244844 </i>
   </energy>
  </scstep>
  <scstep>
   <time name="dav">   21.95   21.96</time>
   <time name="total">   21.95   21.96</time>
   <energy>
    <i name="e_fr_energy">   -158.42321615 </i>
    <i name="e_wo_entrp">   -158.42321615 </i>
    <i name="e_0_energy">   -158.42321615 </i>
   </energy>
  </scstep>
  <scstep>
   <time name="dav">   21.48   21.49</time>
   <time name="total">   21.48   21.49</time>
   <energy>
    <i name="e_fr_energy">   -781.78578034 </i>
    <i name="e_wo_entrp">   -781.78578034 </i>
    <i name="e_0_energy">   -781.78578034 </i>
   </energy>
  </scstep>
  <scstep>
   <time name="dav">   24.21   24.22</time>
   <time name="total">   24.45   24.46</time>
   <energy>
    <i name="e_fr_energy">   -825.00349614 </i>
    <i name="e_wo_entrp">   -825.00349614 </i>
    <i name="e_0_energy">   -825.00349614 </i>
   </energy>
  </scstep>
  <scstep>
   <time name="diag">    1.74    1.74</time>
   <time name="diis">    7.35    7.36</time>
   <time name="orth">    0.94    0.94</time>
   <time name="total">   10.33   10.31</time>
   <energy>
    <i name="e_fr_energy">   -711.62221119 </i>
    <i name="e_wo_entrp">   -711.62221119 </i>
    <i name="e_0_energy">   -711.62221119 </i>
   </energy>
  </scstep>
  <scstep>
   <time name="diag">    1.74    1.74</time>
   <time name="diis">    7.84    7.84</time>
   <time name="orth">    0.94    0.94</time>
   <time name="total">   10.82   10.79</time>
   <energy>
    <i name="e_fr_energy">   -715.67947361 </i>
    <i name="e_wo_entrp">   -715.67947361 </i>
    <i name="e_0_energy">   -715.67947361 </i>
   </energy>
  </scstep>
  <scstep>
   <time name="diag">    1.75    1.75</time>
   <time name="diis">    6.95    6.95</time>
   <time name="orth">    0.95    0.95</time>
   <time name="total">    9.95    9.92</time>
   <energy>
    <i name="e_fr_energy">   -715.75972880 </i>
    <i name="e_wo_entrp">   -715.75972880 </i>
    <i name="e_0_energy">   -715.75972880 </i>
   </energy>
  </scstep>
  <scstep>
   <time name="diag">    1.76    1.75</time>
   <time name="diis">    9.32    9.33</time>
   <time name="orth">    0.96    0.96</time>
   <time name="total">   12.34   12.31</time>
   <energy>
    <i name="e_fr_energy">   -715.01902283 </i>
    <i name="e_wo_entrp">   -715.01902283 </i>
    <i name="e_0_energy">   -715.01902283 </i>
   </energy>
  </scstep>
  <scstep>
   <time name="diag">    1.76    1.76</time>
   <time name="diis">    8.20    8.20</time>
   <time name="orth">    0.98    0.98</time>
   <time name="total">   11.23   11.21</time>
   <energy>
    <i name="e_fr_energy">   -715.05277419 </i>
    <i name="e_wo_entrp">   -715.05277419 </i>
    <i name="e_0_energy">   -715.05277419 </i>
   </energy>
  </scstep>
  <scstep>
   <time name="diag">    1.78    1.78</time>
   <time name="diis">    8.59    8.60</time>
   <time name="orth">    0.99    0.99</time>
   <time name="total">   11.67   11.64</time>
   <energy>
    <i name="e_fr_energy">   -715.08330081 </i>
    <i name="e_wo_entrp">   -715.08330081 </i>
    <i name="e_0_energy">   -715.08330081 </i>
   </energy>
  </scstep>
  <scstep>
   <time name="diag">    1.78    1.78</time>
   <time name="diis">    8.87    8.87</time>
   <time name="orth">    0.99    0.99</time>
   <time name="total">   11.94   11.91</time>
   <energy>
    <i name="e_fr_energy">   -715.06608345 </i>
    <i name="e_wo_entrp">   -715.06608345 </i>
    <i name="e_0_energy">   -715.06608345 </i>
   </energy>
  </scstep>
  <scstep>
   <time name="diag">    1.79    1.79</time>
   <time name="diis">   10.09   10.09</time>
   <time name="orth">    1.00    1.00</time>
   <time name="total">   13.18   13.15</time>
   <energy>
    <i name="e_fr_energy">   -715.06817927 </i>
    <i name="e_wo_entrp">   -715.06817927 </i>
    <i name="e_0_energy">   -715.06817927 </i>
   </energy>
  </scstep>
  <scstep>
   <time name="diag">    1.79    1.79</time>
   <time name="diis">    8.92    8.92</time>
   <time name="orth">    1.00    1.00</time>
   <time name="total">   12.00   11.97</time>
   <energy>
    <i name="e_fr_energy">   -715.06855672 </i>
    <i name="e_wo_entrp">   -715.06855672 </i>
    <i name="e_0_energy">   -715.06855672 </i>
   </energy>
  </scstep>
  <scstep>
   <time name="diag">    1.79    1.79</time>
   <time name="diis">    8.27    8.28</time>
   <time name="orth">    0.99    0.99</time>
   <time name="total">   11.36   11.33</time>
   <energy>
    <i name="e_fr_energy">   -715.06869796 </i>
    <i name="e_wo_entrp">   -715.06869796 </i>
    <i name="e_0_energy">   -715.06869796 </i>
   </energy>
  </scstep>
  <scstep>
   <time name="diag">    1.79    1.79</time>
   <time name="diis">    7.00    7.01</time>
   <time name="orth">    0.99    0.99</time>
   <time name="total">   10.10   10.07</time>
   <energy>
    <i name="e_fr_energy">   -715.06873772 </i>
    <i name="e_wo_entrp">   -715.06873772 </i>
    <i name="e_0_energy">   -715.06873772 </i>
   </energy>
  </scstep>
  <scstep>
   <time name="diag">    1.78    1.78</time>
   <time name="diis">    6.60    6.60</time>
   <time name="orth">    1.00    1.00</time>
   <time name="total">    9.69    9.66</time>
   <energy>
    <i name="e_fr_energy">   -715.06875239 </i>
    <i name="e_wo_entrp">   -715.06875239 </i>
    <i name="e_0_energy">   -715.06875239 </i>
   </energy>
  </scstep>
  <scstep>
   <time name="diag">    1.78    1.78</time>
   <time name="diis">    5.67    5.67</time>
   <time name="orth">    0.99    0.99</time>
   <time name="total">    8.50    8.48</time>
   <energy>
    <i name="alphaZ">   5537.53060054 </i>
    <i name="ewald"> -88727.78127417 </i>
    <i name="hartreedc"> -33885.12741510 </i>
    <i name="XCdc">   4208.71551150 </i>
    <i name="pawpsdc"> 119754.75611138 </i>
    <i name="pawaedc">-136152.20044213 </i>
    <i name="eentropy">     -0.00000000 </i>
    <i name="bandstr">  -5723.07933558 </i>
    <i name="atom"> 134272.11748520 </i>
    <i name="e_fr_energy">   -715.06875835 </i>
    <i name="e_wo_entrp">   -715.06875835 </i>
    <i name="e_0_energy">   -715.06875835 </i>
   </energy>
  </scstep>
  <structure>
   <crystal>
    <varray name="basis" >
     <v>       0.00000000      12.28047342       0.00000000 </v>
     <v>       9.14270205       0.00000000       0.00000000 </v>
     <v>       0.00000000      -2.76826177     -11.30069772 </v>
    </varray>
    <i name="volume">   1268.80515525 </i>
    <varray name="rec_basis" >
     <v>       0.00000000       0.08143009      -0.01994742 </v>
     <v>       0.10937686      -0.00000000       0.00000000 </v>
     <v>       0.00000000       0.00000000      -0.08849011 </v>
    </varray>
   </crystal>
   <varray name="positions" >
    <v>       0.65883830       0.00000000       0.15736517 </v>
    <v>       0.65883830       0.00000000       0.65736517 </v>
    <v>       0.65883830       0.33333333       0.15736517 </v>
    <v>       0.65883830       0.33333333       0.65736517 </v>
    <v>       0.65883830       0.66666667       0.15736517 </v>
    <v>       0.65883830       0.66666667       0.65736517 </v>
    <v>       0.84116170       0.16666667       0.34263483 </v>
    <v>       0.84116170       0.16666667       0.84263483 </v>
    <v>       0.84116170       0.50000000       0.34263483 </v>
    <v>       0.84116170       0.50000000       0.84263483 </v>
    <v>       0.84116170       0.83333333       0.34263483 </v>
    <v>       0.84116170       0.83333333       0.84263483 </v>
    <v>       0.59047440       0.16666667       0.39739300 </v>
    <v>       0.59047440       0.16666667       0.89739300 </v>
    <v>       0.59047440       0.50000000       0.39739300 </v>
    <v>       0.59047440       0.50000000       0.89739300 </v>
    <v>       0.59047440       0.83333333       0.39739300 </v>
    <v>       0.59047440       0.83333333       0.89739300 </v>
    <v>       0.90952560       0.00000000       0.10260700 </v>
    <v>       0.90952560       0.00000000       0.60260700 </v>
    <v>       0.90952560       0.33333333       0.10260700 </v>
    <v>       0.90952560       0.33333333       0.60260700 </v>
    <v>       0.90952560       0.66666667       0.10260700 </v>
    <v>       0.90952560       0.66666667       0.60260700 </v>
    <v>       0.15883830       0.16666667       0.15736517 </v>
    <v>       0.15883830       0.16666667       0.65736517 </v>
    <v>       0.15883830       0.50000000       0.15736517 </v>
    <v>       0.15883830       0.50000000       0.65736517 </v>
    <v>       0.15883830       0.83333333       0.15736517 </v>
    <v>       0.15883830       0.83333333       0.65736517 </v>
    <v>       0.34116170       0.00000000       0.34263483 </v>
    <v>       0.34116170       0.00000000       0.84263483 </v>
    <v>       0.34116170       0.33333333       0.34263483 </v>
    <v>       0.34116170       0.33333333       0.84263483 </v>
    <v>       0.34116170       0.66666667       0.34263483 </v>
    <v>       0.34116170       0.66666667       0.84263483 </v>
    <v>       0.09047440       0.00000000       0.39739300 </v>
    <v>       0.09047440       0.00000000       0.89739300 </v>
    <v>       0.09047440       0.33333333       0.39739300 </v>
    <v>       0.09047440       0.33333333       0.89739300 </v>
    <v>       0.09047440       0.66666667       0.39739300 </v>
    <v>       0.09047440       0.66666667       0.89739300 </v>
    <v>       0.40952560       0.16666667       0.10260700 </v>
    <v>       0.40952560       0.16666667       0.60260700 </v>
    <v>       0.40952560       0.50000000       0.10260700 </v>
    <v>       0.40952560       0.50000000       0.60260700 </v>
    <v>       0.40952560       0.83333333       0.10260700 </v>
    <v>       0.40952560       0.83333333       0.60260700 </v>
    <v>       0.99646913       0.16666667       0.12833205 </v>
    <v>       0.99646913       0.16666667       0.62833205 </v>
    <v>       0.99646913       0.50000000       0.12833205 </v>
    <v>       0.99646913       0.50000000       0.62833205 </v>
    <v>       0.99646913       0.83333333       0.12833205 </v>
    <v>       0.99646913       0.83333333       0.62833205 </v>
    <v>       0.50353087       0.00000000       0.37166795 </v>
    <v>       0.50353087       0.00000000       0.87166795 </v>
    <v>       0.50353087       0.33333333       0.37166795 </v>
    <v>       0.50353087       0.33333333       0.87166795 </v>
    <v>       0.50353087       0.66666667       0.37166795 </v>
    <v>       0.50353087       0.66666667       0.87166795 </v>
    <v>       0.67337106       0.16666667       0.28161508 </v>
    <v>       0.67337106       0.16666667       0.78161508 </v>
    <v>       0.67337106       0.50000000       0.28161508 </v>
    <v>       0.67337106       0.50000000       0.78161508 </v>
    <v>       0.67337106       0.83333333       0.28161508 </v>
    <v>       0.67337106       0.83333333       0.78161508 </v>
    <v>       0.82662894       0.00000000       0.21838492 </v>
    <v>       0.82662894       0.00000000       0.71838492 </v>
    <v>       0.82662894       0.33333333       0.21838492 </v>
    <v>       0.82662894       0.33333333       0.71838492 </v>
    <v>       0.82662894       0.66666667       0.21838492 </v>
    <v>       0.82662894       0.66666667       0.71838492 </v>
    <v>       0.83549502       0.00000000       0.44542296 </v>
    <v>       0.83549502       0.00000000       0.94542296 </v>
    <v>       0.83549502       0.33333333       0.44542296 </v>
    <v>       0.83549502       0.33333333       0.94542296 </v>
    <v>       0.83549502       0.66666667       0.44542296 </v>
    <v>       0.83549502       0.66666667       0.94542296 </v>
    <v>       0.66450498       0.16666667       0.05457704 </v>
    <v>       0.66450498       0.16666667       0.55457704 </v>
    <v>       0.66450498       0.50000000       0.05457704 </v>
    <v>       0.66450498       0.50000000       0.55457704 </v>
    <v>       0.66450498       0.83333333       0.05457704 </v>
    <v>       0.66450498       0.83333333       0.55457704 </v>
    <v>       0.49646913       0.00000000       0.12833205 </v>
    <v>       0.49646913       0.00000000       0.62833205 </v>
    <v>       0.49646913       0.33333333       0.12833205 </v>
    <v>       0.49646913       0.33333333       0.62833205 </v>
    <v>       0.49646913       0.66666667       0.12833205 </v>
    <v>       0.49646913       0.66666667       0.62833205 </v>
    <v>       0.00353087       0.16666667       0.37166795 </v>
    <v>       0.00353087       0.16666667       0.87166795 </v>
    <v>       0.00353087       0.50000000       0.37166795 </v>
    <v>       0.00353087       0.50000000       0.87166795 </v>
    <v>       0.00353087       0.83333333       0.37166795 </v>
    <v>       0.00353087       0.83333333       0.87166795 </v>
    <v>       0.17337106       0.00000000       0.28161508 </v>
    <v>       0.17337106       0.00000000       0.78161508 </v>
    <v>       0.17337106       0.33333333       0.28161508 </v>
    <v>       0.17337106       0.33333333       0.78161508 </v>
    <v>       0.17337106       0.66666667       0.28161508 </v>
    <v>       0.17337106       0.66666667       0.78161508 </v>
    <v>       0.32662894       0.16666667       0.21838492 </v>
    <v>       0.32662894       0.16666667       0.71838492 </v>
    <v>       0.32662894       0.50000000       0.21838492 </v>
    <v>       0.32662894       0.50000000       0.71838492 </v>
    <v>       0.32662894       0.83333333       0.21838492 </v>
    <v>       0.32662894       0.83333333       0.71838492 </v>
    <v>       0.33549502       0.16666667       0.44542296 </v>
    <v>       0.33549502       0.16666667       0.94542296 </v>
    <v>       0.33549502       0.50000000       0.44542296 </v>
    <v>       0.33549502       0.50000000       0.94542296 </v>
    <v>       0.33549502       0.83333333       0.44542296 </v>
    <v>       0.33549502       0.83333333       0.94542296 </v>
    <v>       0.16450498       0.00000000       0.05457704 </v>
    <v>       0.16450498       0.00000000       0.55457704 </v>
    <v>       0.16450498       0.33333333       0.05457704 </v>
    <v>       0.16450498       0.33333333       0.55457704 </v>
    <v>       0.16450498       0.66666667       0.05457704 </v>
    <v>       0.16450498       0.66666667       0.55457704 </v>
   </varray>
  </structure>
  <varray name="forces" >
   <v>       0.00000000      -0.04750280       0.04903705 </v>
   <v>       0.00000000      -0.04750280       0.04903705 </v>
   <v>       0.00000000      -0.04750280       0.04903705 </v>
   <v>      -0.00000000      -0.04750280       0.04903705 </v>
   <v>      -0.00000000      -0.04750280       0.04903705 </v>
   <v>      -0.00000000      -0.04750280       0.04903705 </v>
   <v>      -0.00000000       0.04750280      -0.04903705 </v>
   <v>       0.00000000       0.04750280      -0.04903705 </v>
   <v>      -0.00000000       0.04750280      -0.04903705 </v>
   <v>       0.00000000       0.04750280      -0.04903705 </v>
   <v>      -0.00000000       0.04750280      -0.04903705 </v>
   <v>      -0.00000000       0.04750280      -0.04903705 </v>
   <v>       0.00000000      -0.01997429      -0.02517508 </v>
   <v>       0.00000000      -0.01997429      -0.02517508 </v>
   <v>       0.00000000      -0.01997429      -0.02517508 </v>
   <v>       0.00000000      -0.01997429      -0.02517508 </v>
   <v>       0.00000000      -0.01997429      -0.02517508 </v>
   <v>      -0.00000000      -0.01997429      -0.02517508 </v>
   <v>       0.00000000       0.01997429       0.02517508 </v>
   <v>       0.00000000       0.01997429       0.02517508 </v>
   <v>      -0.00000000       0.01997429       0.02517508 </v>
   <v>       0.00000000       0.01997429       0.02517508 </v>
   <v>      -0.00000000       0.01997429       0.02517508 </v>
   <v>       0.00000000       0.01997429       0.02517508 </v>
   <v>       0.00000000      -0.04750280       0.04903705 </v>
   <v>      -0.00000000      -0.04750280       0.04903705 </v>
   <v>       0.00000000      -0.04750280       0.04903705 </v>
   <v>       0.00000000      -0.04750280       0.04903705 </v>
   <v>      -0.00000000      -0.04750280       0.04903705 </v>
   <v>      -0.00000000      -0.04750280       0.04903705 </v>
   <v>      -0.00000000       0.04750280      -0.04903705 </v>
   <v>       0.00000000       0.04750280      -0.04903705 </v>
   <v>       0.00000000       0.04750280      -0.04903705 </v>
   <v>      -0.00000000       0.04750280      -0.04903705 </v>
   <v>       0.00000000       0.04750280      -0.04903705 </v>
   <v>       0.00000000       0.04750280      -0.04903705 </v>
   <v>       0.00000000      -0.01997429      -0.02517508 </v>
   <v>       0.00000000      -0.01997429      -0.02517508 </v>
   <v>      -0.00000000      -0.01997429      -0.02517508 </v>
   <v>      -0.00000000      -0.01997429      -0.02517508 </v>
   <v>       0.00000000      -0.01997429      -0.02517508 </v>
   <v>       0.00000000      -0.01997429      -0.02517508 </v>
   <v>      -0.00000000       0.01997429       0.02517508 </v>
   <v>       0.00000000       0.01997429       0.02517508 </v>
   <v>       0.00000000       0.01997429       0.02517508 </v>
   <v>       0.00000000       0.01997429       0.02517508 </v>
   <v>       0.00000000       0.01997429       0.02517508 </v>
   <v>       0.00000000       0.01997429       0.02517508 </v>
   <v>       0.00000000      -0.00875921      -0.03413630 </v>
   <v>      -0.00000000      -0.00875921      -0.03413630 </v>
   <v>      -0.00000000      -0.00875921      -0.03413630 </v>
   <v>       0.00000000      -0.00875921      -0.03413630 </v>
   <v>       0.00000000      -0.00875921      -0.03413630 </v>
   <v>      -0.00000000      -0.00875921      -0.03413630 </v>
   <v>       0.00000000       0.00875921       0.03413630 </v>
   <v>       0.00000000       0.00875921       0.03413630 </v>
   <v>      -0.00000000       0.00875921       0.03413630 </v>
   <v>       0.00000000       0.00875921       0.03413630 </v>
   <v>       0.00000000       0.00875921       0.03413630 </v>
   <v>       0.00000000       0.00875921       0.03413630 </v>
   <v>       0.00000000      -0.02502257       0.01139184 </v>
   <v>       0.00000000      -0.02502257       0.01139184 </v>
   <v>       0.00000000      -0.02502257       0.01139184 </v>
   <v>       0.00000000      -0.02502257       0.01139184 </v>
   <v>      -0.00000000      -0.02502257       0.01139184 </v>
   <v>       0.00000000      -0.02502257       0.01139184 </v>
   <v>       0.00000000       0.02502257      -0.01139184 </v>
   <v>       0.00000000       0.02502257      -0.01139184 </v>
   <v>      -0.00000000       0.02502257      -0.01139184 </v>
   <v>      -0.00000000       0.02502257      -0.01139184 </v>
   <v>       0.00000000       0.02502257      -0.01139184 </v>
   <v>       0.00000000       0.02502257      -0.01139184 </v>
   <v>       0.00000000      -0.17286803      -0.02011079 </v>
   <v>       0.00000000      -0.17286803      -0.02011079 </v>
   <v>      -0.00000000      -0.17286803      -0.02011079 </v>
   <v>       0.00000000      -0.17286803      -0.02011079 </v>
   <v>       0.00000000      -0.17286803      -0.02011079 </v>
   <v>       0.00000000      -0.17286803      -0.02011079 </v>
   <v>       0.00000000       0.17286803       0.02011079 </v>
   <v>       0.00000000       0.17286803       0.02011079 </v>
   <v>      -0.00000000       0.17286803       0.02011079 </v>
   <v>       0.00000000       0.17286803       0.02011079 </v>
   <v>      -0.00000000       0.17286803       0.02011079 </v>
   <v>      -0.00000000       0.17286803       0.02011079 </v>
   <v>       0.00000000      -0.00875921      -0.03413630 </v>
   <v>      -0.00000000      -0.00875921      -0.03413630 </v>
   <v>       0.00000000      -0.00875921      -0.03413630 </v>
   <v>      -0.00000000      -0.00875921      -0.03413630 </v>
   <v>      -0.00000000      -0.00875921      -0.03413630 </v>
   <v>       0.00000000      -0.00875921      -0.03413630 </v>
   <v>       0.00000000       0.00875921       0.03413630 </v>
   <v>       0.00000000       0.00875921       0.03413630 </v>
   <v>       0.00000000       0.00875921       0.03413630 </v>
   <v>       0.00000000       0.00875921       0.03413630 </v>
   <v>       0.00000000       0.00875921       0.03413630 </v>
   <v>      -0.00000000       0.00875921       0.03413630 </v>
   <v>      -0.00000000      -0.02502257       0.01139184 </v>
   <v>       0.00000000      -0.02502257       0.01139184 </v>
   <v>      -0.00000000      -0.02502257       0.01139184 </v>
   <v>      -0.00000000      -0.02502257       0.01139184 </v>
   <v>       0.00000000      -0.02502257       0.01139184 </v>
   <v>       0.00000000      -0.02502257       0.01139184 </v>
   <v>       0.00000000       0.02502257      -0.01139184 </v>
   <v>       0.00000000       0.02502257      -0.01139184 </v>
   <v>       0.00000000       0.02502257      -0.01139184 </v>
   <v>      -0.00000000       0.02502257      -0.01139184 </v>
   <v>      -0.00000000       0.02502257      -0.01139184 </v>
   <v>      -0.00000000       0.02502257      -0.01139184 </v>
   <v>       0.00000000      -0.17286803      -0.02011079 </v>
   <v>       0.00000000      -0.17286803      -0.02011079 </v>
   <v>       0.00000000      -0.17286803      -0.02011079 </v>
   <v>       0.00000000      -0.17286803      -0.02011079 </v>
   <v>       0.00000000      -0.17286803      -0.02011079 </v>
   <v>       0.00000000      -0.17286803      -0.02011079 </v>
   <v>      -0.00000000       0.17286803       0.02011079 </v>
   <v>       0.00000000       0.17286803       0.02011079 </v>
   <v>      -0.00000000       0.17286803       0.02011079 </v>
   <v>       0.00000000       0.17286803       0.02011079 </v>
   <v>       0.00000000       0.17286803       0.02011079 </v>
   <v>       0.00000000       0.17286803       0.02011079 </v>
  </varray>
  <varray name="stress" >
   <v>      64.19435316       0.00000000       0.00000000 </v>
   <v>       0.00000000      58.53162091      -1.25630616 </v>
   <v>       0.00000000      -1.25630528      58.09141337 </v>
  </varray>
  <energy>
   <i name="e_fr_energy">   -715.06875835 </i>
   <i name="e_wo_entrp">   -715.06875835 </i>
   <i name="e_0_energy">   -715.06875835 </i>
  </energy>
  <time name="totalsc">  271.08  270.31</time>
 </calculation>
 <calculation>
  <scstep>
   <time name="dav">   25.96   25.97</time>
   <time name="total">   26.25   26.24</time>
   <energy>
    <i name="alphaZ">   5230.61148841 </i>
    <i name="ewald"> -87102.95780392 </i>
    <i name="hartreedc"> -33208.44739003 </i>
    <i name="XCdc">   4116.08575496 </i>
    <i name="pawpsdc"> 119754.52668141 </i>
    <i name="pawaedc">-136151.97984102 </i>
    <i name="eentropy">     -0.00000000 </i>
    <i name="bandstr">  -7648.86779568 </i>
    <i name="atom"> 134272.11748520 </i>
    <i name="e_fr_energy">   -738.91142068 </i>
    <i name="e_wo_entrp">   -738.91142068 </i>
    <i name="e_0_energy">   -738.91142068 </i>
   </energy>
  </scstep>
  <scstep>
   <time name="diag">    1.76    1.76</time>
   <time name="diis">    8.12    8.12</time>
   <time name="orth">    0.99    0.99</time>
   <time name="total">   11.17   11.14</time>
   <energy>
    <i name="e_fr_energy">   -720.12485622 </i>
    <i name="e_wo_entrp">   -720.12485622 </i>
    <i name="e_0_energy">   -720.12485622 </i>
   </energy>
  </scstep>
  <scstep>
   <time name="diag">    1.78    1.78</time>
   <time name="diis">    7.96    7.96</time>
   <time name="orth">    0.99    0.99</time>
   <time name="total">   11.03   11.00</time>
   <energy>
    <i name="e_fr_energy">   -715.58678937 </i>
    <i name="e_wo_entrp">   -715.58678937 </i>
    <i name="e_0_energy">   -715.58678937 </i>
   </energy>
  </scstep>
  <scstep>
   <time name="diag">    1.78    1.78</time>
   <time name="diis">    7.61    7.61</time>
   <time name="orth">    0.98    0.98</time>
   <time name="total">   10.67   10.65</time>
   <energy>
    <i name="e_fr_energy">   -715.09784068 </i>
    <i name="e_wo_entrp">   -715.09784068 </i>
    <i name="e_0_energy">   -715.09784068 </i>
   </energy>
  </scstep>
  <scstep>
   <time name="diag">    1.77    1.77</time>
   <time name="diis">    9.61    9.61</time>
   <time name="orth">    0.99    0.99</time>
   <time name="total">   12.67   12.64</time>
   <energy>
    <i name="e_fr_energy">   -715.05004427 </i>
    <i name="e_wo_entrp">   -715.05004427 </i>
    <i name="e_0_energy">   -715.05004427 </i>
   </energy>
  </scstep>
  <scstep>
   <time name="diag">    1.78    1.78</time>
   <time name="diis">    8.80    8.80</time>
   <time name="orth">    0.99    0.99</time>
   <time name="total">   11.87   11.85</time>
   <energy>
    <i name="e_fr_energy">   -715.04978415 </i>
    <i name="e_wo_entrp">   -715.04978415 </i>
    <i name="e_0_energy">   -715.04978415 </i>
   </energy>
  </scstep>
  <scstep>
   <time name="diag">    1.79    1.79</time>
   <time name="diis">    8.96    8.96</time>
   <time name="orth">    1.00    1.00</time>
   <time name="total">   12.05   12.02</time>
   <energy>
    <i name="e_fr_energy">   -715.05007652 </i>
    <i name="e_wo_entrp">   -715.05007652 </i>
    <i name="e_0_energy">   -715.05007652 </i>
   </energy>
  </scstep>
  <scstep>
   <time name="diag">    1.80    1.80</time>
   <time name="diis">   10.04   10.04</time>
   <time name="orth">    0.99    0.99</time>
   <time name="total">   13.13   13.11</time>
   <energy>
    <i name="e_fr_energy">   -715.05065003 </i>
    <i name="e_wo_entrp">   -715.05065003 </i>
    <i name="e_0_energy">   -715.05065003 </i>
   </energy>
  </scstep>
  <scstep>
   <time name="diag">    1.79    1.79</time>
   <time name="diis">    8.52    8.52</time>
   <time name="orth">    0.99    0.99</time>
   <time name="total">   11.60   11.57</time>
   <energy>
    <i name="e_fr_energy">   -715.05071188 </i>
    <i name="e_wo_entrp">   -715.05071188 </i>
    <i name="e_0_energy">   -715.05071188 </i>
   </energy>
  </scstep>
  <scstep>
   <time name="diag">    1.80    1.80</time>
   <time name="diis">    9.17    9.18</time>
   <time name="orth">    1.00    1.00</time>
   <time name="total">   12.27   12.24</time>
   <energy>
    <i name="e_fr_energy">   -715.05076119 </i>
    <i name="e_wo_entrp">   -715.05076119 </i>
    <i name="e_0_energy">   -715.05076119 </i>
   </energy>
  </scstep>
  <scstep>
   <time name="diag">    1.79    1.79</time>
   <time name="diis">    6.74    6.74</time>
   <time name="orth">    1.00    1.00</time>
   <time name="total">    9.82    9.80</time>
   <energy>
    <i name="e_fr_energy">   -715.05077667 </i>
    <i name="e_wo_entrp">   -715.05077667 </i>
    <i name="e_0_energy">   -715.05077667 </i>
   </energy>
  </scstep>
  <scstep>
   <time name="diag">    1.79    1.78</time>
   <time name="diis">    5.76    5.76</time>
   <time name="orth">    1.00    1.00</time>
   <time name="total">    8.61    8.58</time>
   <energy>
    <i name="alphaZ">   5230.61148841 </i>
    <i name="ewald"> -87102.95780392 </i>
    <i name="hartreedc"> -34676.89297149 </i>
    <i name="XCdc">   4187.97222916 </i>
    <i name="pawpsdc"> 117241.79484765 </i>
    <i name="pawaedc">-133597.66838256 </i>
    <i name="eentropy">     -0.00000000 </i>
    <i name="bandstr">  -6270.02767710 </i>
    <i name="atom"> 134272.11748520 </i>
    <i name="e_fr_energy">   -715.05078466 </i>
    <i name="e_wo_entrp">   -715.05078466 </i>
    <i name="e_0_energy">   -715.05078466 </i>
   </energy>
  </scstep>
  <structure>
   <crystal>
    <varray name="basis" >
     <v>       0.00000000      12.50931764      -0.00491185 </v>
     <v>       9.32955747       0.00000000       0.00000000 </v>
     <v>       0.00000000      -2.81532783     -11.50859300 </v>
    </varray>
    <i name="volume">   1343.25544707 </i>
    <varray name="rec_basis" >
     <v>       0.00000000       0.07993273      -0.01955381 </v>
     <v>       0.10718622       0.00000000       0.00000000 </v>
     <v>       0.00000000      -0.00003412      -0.08688325 </v>
    </varray>
   </crystal>
   <varray name="positions" >
    <v>       0.65860450       0.00000000       0.15715583 </v>
    <v>       0.65860450       0.00000000       0.65715583 </v>
    <v>       0.65860450       0.33333333       0.15715583 </v>
    <v>       0.65860450       0.33333333       0.65715583 </v>
    <v>       0.65860450       0.66666667       0.15715583 </v>
    <v>       0.65860450       0.66666667       0.65715583 </v>
    <v>       0.84139550       0.16666667       0.34284417 </v>
    <v>       0.84139550       0.16666667       0.84284417 </v>
    <v>       0.84139550       0.50000000       0.34284417 </v>
    <v>       0.84139550       0.50000000       0.84284417 </v>
    <v>       0.84139550       0.83333333       0.34284417 </v>
    <v>       0.84139550       0.83333333       0.84284417 </v>
    <v>       0.59042016       0.16666667       0.39750047 </v>
    <v>       0.59042016       0.16666667       0.89750047 </v>
    <v>       0.59042016       0.50000000       0.39750047 </v>
    <v>       0.59042016       0.50000000       0.89750047 </v>
    <v>       0.59042016       0.83333333       0.39750047 </v>
    <v>       0.59042016       0.83333333       0.89750047 </v>
    <v>       0.90957984       0.00000000       0.10249953 </v>
    <v>       0.90957984       0.00000000       0.60249953 </v>
    <v>       0.90957984       0.33333333       0.10249953 </v>
    <v>       0.90957984       0.33333333       0.60249953 </v>
    <v>       0.90957984       0.66666667       0.10249953 </v>
    <v>       0.90957984       0.66666667       0.60249953 </v>
    <v>       0.15860450       0.16666667       0.15715583 </v>
    <v>       0.15860450       0.16666667       0.65715583 </v>
    <v>       0.15860450       0.50000000       0.15715583 </v>
    <v>       0.15860450       0.50000000       0.65715583 </v>
    <v>       0.15860450       0.83333333       0.15715583 </v>
    <v>       0.15860450       0.83333333       0.65715583 </v>
    <v>       0.34139550      -0.00000000       0.34284417 </v>
    <v>       0.34139550       0.00000000       0.84284417 </v>
    <v>       0.34139550       0.33333333       0.34284417 </v>
    <v>       0.34139550       0.33333333       0.84284417 </v>
    <v>       0.34139550       0.66666667       0.34284417 </v>
    <v>       0.34139550       0.66666667       0.84284417 </v>
    <v>       0.09042016       0.00000000       0.39750047 </v>
    <v>       0.09042016       0.00000000       0.89750047 </v>
    <v>       0.09042016       0.33333333       0.39750047 </v>
    <v>       0.09042016       0.33333333       0.89750047 </v>
    <v>       0.09042016       0.66666667       0.39750047 </v>
    <v>       0.09042016       0.66666667       0.89750047 </v>
    <v>       0.40957984       0.16666667       0.10249953 </v>
    <v>       0.40957984       0.16666667       0.60249953 </v>
    <v>       0.40957984       0.50000000       0.10249953 </v>
    <v>       0.40957984       0.50000000       0.60249953 </v>
    <v>       0.40957984       0.83333333       0.10249953 </v>
    <v>       0.40957984       0.83333333       0.60249953 </v>
    <v>       0.99646757       0.16666667       0.12847777 </v>
    <v>       0.99646757       0.16666667       0.62847777 </v>
    <v>       0.99646757       0.50000000       0.12847777 </v>
    <v>       0.99646757       0.50000000       0.62847777 </v>
    <v>       0.99646757       0.83333333       0.12847777 </v>
    <v>       0.99646757       0.83333333       0.62847777 </v>
    <v>       0.50353243       0.00000000       0.37152223 </v>
    <v>       0.50353243       0.00000000       0.87152223 </v>
    <v>       0.50353243       0.33333333       0.37152223 </v>
    <v>       0.50353243       0.33333333       0.87152223 </v>
    <v>       0.50353243       0.66666667       0.37152223 </v>
    <v>       0.50353243       0.66666667       0.87152223 </v>
    <v>       0.67326180       0.16666667       0.28156645 </v>
    <v>       0.67326180       0.16666667       0.78156645 </v>
    <v>       0.67326180       0.50000000       0.28156645 </v>
    <v>       0.67326180       0.50000000       0.78156645 </v>
    <v>       0.67326180       0.83333333       0.28156645 </v>
    <v>       0.67326180       0.83333333       0.78156645 </v>
    <v>       0.82673820       0.00000000       0.21843355 </v>
    <v>       0.82673820       0.00000000       0.71843355 </v>
    <v>       0.82673820       0.33333333       0.21843355 </v>
    <v>       0.82673820       0.33333333       0.71843355 </v>
    <v>       0.82673820       0.66666667       0.21843355 </v>
    <v>       0.82673820       0.66666667       0.71843355 </v>
    <v>       0.83483528       0.00000000       0.44550881 </v>
    <v>       0.83483528       0.00000000       0.94550881 </v>
    <v>       0.83483528       0.33333333       0.44550881 </v>
    <v>       0.83483528       0.33333333       0.94550881 </v>
    <v>       0.83483528       0.66666667       0.44550881 </v>
    <v>       0.83483528       0.66666667       0.94550881 </v>
    <v>       0.66516472       0.16666667       0.05449119 </v>
    <v>       0.66516472       0.16666667       0.55449119 </v>
    <v>       0.66516472       0.50000000       0.05449119 </v>
    <v>       0.66516472       0.50000000       0.55449119 </v>
    <v>       0.66516472       0.83333333       0.05449119 </v>
    <v>       0.66516472       0.83333333       0.55449119 </v>
    <v>       0.49646757       0.00000000       0.12847777 </v>
    <v>       0.49646757      -0.00000000       0.62847777 </v>
    <v>       0.49646757       0.33333333       0.12847777 </v>
    <v>       0.49646757       0.33333333       0.62847777 </v>
    <v>       0.49646757       0.66666667       0.12847777 </v>
    <v>       0.49646757       0.66666667       0.62847777 </v>
    <v>       0.00353243       0.16666667       0.37152223 </v>
    <v>       0.00353243       0.16666667       0.87152223 </v>
    <v>       0.00353243       0.50000000       0.37152223 </v>
    <v>       0.00353243       0.50000000       0.87152223 </v>
    <v>       0.00353243       0.83333333       0.37152223 </v>
    <v>       0.00353243       0.83333333       0.87152223 </v>
    <v>       0.17326180      -0.00000000       0.28156645 </v>
    <v>       0.17326180       0.00000000       0.78156645 </v>
    <v>       0.17326180       0.33333333       0.28156645 </v>
    <v>       0.17326180       0.33333333       0.78156645 </v>
    <v>       0.17326180       0.66666667       0.28156645 </v>
    <v>       0.17326180       0.66666667       0.78156645 </v>
    <v>       0.32673820       0.16666667       0.21843355 </v>
    <v>       0.32673820       0.16666667       0.71843355 </v>
    <v>       0.32673820       0.50000000       0.21843355 </v>
    <v>       0.32673820       0.50000000       0.71843355 </v>
    <v>       0.32673820       0.83333333       0.21843355 </v>
    <v>       0.32673820       0.83333333       0.71843355 </v>
    <v>       0.33483528       0.16666667       0.44550881 </v>
    <v>       0.33483528       0.16666667       0.94550881 </v>
    <v>       0.33483528       0.50000000       0.44550881 </v>
    <v>       0.33483528       0.50000000       0.94550881 </v>
    <v>       0.33483528       0.83333333       0.44550881 </v>
    <v>       0.33483528       0.83333333       0.94550881 </v>
    <v>       0.16516472      -0.00000000       0.05449119 </v>
    <v>       0.16516472       0.00000000       0.55449119 </v>
    <v>       0.16516472       0.33333333       0.05449119 </v>
    <v>       0.16516472       0.33333333       0.55449119 </v>
    <v>       0.16516472       0.66666667       0.05449119 </v>
    <v>       0.16516472       0.66666667       0.55449119 </v>
   </varray>
  </structure>
  <varray name="forces" >
   <v>      -0.00000000       0.02860070       0.08896431 </v>
   <v>       0.00000000       0.02860070       0.08896431 </v>
   <v>       0.00000000       0.02860070       0.08896431 </v>
   <v>      -0.00000000       0.02860070       0.08896431 </v>
   <v>       0.00000000       0.02860070       0.08896431 </v>
   <v>      -0.00000000       0.02860070       0.08896431 </v>
   <v>       0.00000000      -0.02860070      -0.08896431 </v>
   <v>       0.00000000      -0.02860070      -0.08896431 </v>
   <v>      -0.00000000      -0.02860070      -0.08896431 </v>
   <v>      -0.00000000      -0.02860070      -0.08896431 </v>
   <v>      -0.00000000      -0.02860070      -0.08896431 </v>
   <v>       0.00000000      -0.02860070      -0.08896431 </v>
   <v>       0.00000000      -0.12242282      -0.02750228 </v>
   <v>       0.00000000      -0.12242282      -0.02750228 </v>
   <v>      -0.00000000      -0.12242282      -0.02750228 </v>
   <v>       0.00000000      -0.12242282      -0.02750228 </v>
   <v>       0.00000000      -0.12242282      -0.02750228 </v>
   <v>      -0.00000000      -0.12242282      -0.02750228 </v>
   <v>       0.00000000       0.12242282       0.02750228 </v>
   <v>      -0.00000000       0.12242282       0.02750228 </v>
   <v>       0.00000000       0.12242282       0.02750228 </v>
   <v>       0.00000000       0.12242282       0.02750228 </v>
   <v>      -0.00000000       0.12242282       0.02750228 </v>
   <v>      -0.00000000       0.12242282       0.02750228 </v>
   <v>       0.00000000       0.02860070       0.08896431 </v>
   <v>       0.00000000       0.02860070       0.08896431 </v>
   <v>       0.00000000       0.02860070       0.08896431 </v>
   <v>       0.00000000       0.02860070       0.08896431 </v>
   <v>       0.00000000       0.02860070       0.08896431 </v>
   <v>      -0.00000000       0.02860070       0.08896431 </v>
   <v>      -0.00000000      -0.02860070      -0.08896431 </v>
   <v>      -0.00000000      -0.02860070      -0.08896431 </v>
   <v>      -0.00000000      -0.02860070      -0.08896431 </v>
   <v>      -0.00000000      -0.02860070      -0.08896431 </v>
   <v>       0.00000000      -0.02860070      -0.08896431 </v>
   <v>      -0.00000000      -0.02860070      -0.08896431 </v>
   <v>      -0.00000000      -0.12242282      -0.02750228 </v>
   <v>       0.00000000      -0.12242282      -0.02750228 </v>
   <v>      -0.00000000      -0.12242282      -0.02750228 </v>
   <v>       0.00000000      -0.12242282      -0.02750228 </v>
   <v>       0.00000000      -0.12242282      -0.02750228 </v>
   <v>      -0.00000000      -0.12242282      -0.02750228 </v>
   <v>       0.00000000       0.12242282       0.02750228 </v>
   <v>       0.00000000       0.12242282       0.02750228 </v>
   <v>       0.00000000       0.12242282       0.02750228 </v>
   <v>       0.00000000       0.12242282       0.02750228 </v>
   <v>       0.00000000       0.12242282       0.02750228 </v>
   <v>       0.00000000       0.12242282       0.02750228 </v>
   <v>       0.00000000      -0.21864941       0.08915930 </v>
   <v>       0.00000000      -0.21864941       0.08915930 </v>
   <v>      -0.00000000      -0.21864941       0.08915930 </v>
   <v>       0.00000000      -0.21864941       0.08915930 </v>
   <v>       0.00000000      -0.21864941       0.08915930 </v>
   <v>      -0.00000000      -0.21864941       0.08915930 </v>
   <v>       0.00000000       0.21864941      -0.08915930 </v>
   <v>       0.00000000       0.21864941      -0.08915930 </v>
   <v>      -0.00000000       0.21864941      -0.08915930 </v>
   <v>       0.00000000       0.21864941      -0.08915930 </v>
   <v>      -0.00000000       0.21864941      -0.08915930 </v>
   <v>       0.00000000       0.21864941      -0.08915930 </v>
   <v>      -0.00000000       0.03754506      -0.04318073 </v>
   <v>      -0.00000000       0.03754506      -0.04318073 </v>
   <v>      -0.00000000       0.03754506      -0.04318073 </v>
   <v>       0.00000000       0.03754506      -0.04318073 </v>
   <v>       0.00000000       0.03754506      -0.04318073 </v>
   <v>      -0.00000000       0.03754506      -0.04318073 </v>
   <v>       0.00000000      -0.03754506       0.04318073 </v>
   <v>       0.00000000      -0.03754506       0.04318073 </v>
   <v>      -0.00000000      -0.03754506       0.04318073 </v>
   <v>      -0.00000000      -0.03754506       0.04318073 </v>
   <v>       0.00000000      -0.03754506       0.04318073 </v>
   <v>       0.00000000      -0.03754506       0.04318073 </v>
   <v>       0.00000000       0.15960364      -0.02009694 </v>
   <v>       0.00000000       0.15960364      -0.02009694 </v>
   <v>      -0.00000000       0.15960364      -0.02009694 </v>
   <v>       0.00000000       0.15960364      -0.02009694 </v>
   <v>      -0.00000000       0.15960364      -0.02009694 </v>
   <v>       0.00000000       0.15960364      -0.02009694 </v>
   <v>       0.00000000      -0.15960364       0.02009694 </v>
   <v>       0.00000000      -0.15960364       0.02009694 </v>
   <v>      -0.00000000      -0.15960364       0.02009694 </v>
   <v>       0.00000000      -0.15960364       0.02009694 </v>
   <v>      -0.00000000      -0.15960364       0.02009694 </v>
   <v>       0.00000000      -0.15960364       0.02009694 </v>
   <v>       0.00000000      -0.21864941       0.08915930 </v>
   <v>      -0.00000000      -0.21864941       0.08915930 </v>
   <v>      -0.00000000      -0.21864941       0.08915930 </v>
   <v>       0.00000000      -0.21864941       0.08915930 </v>
   <v>       0.00000000      -0.21864941       0.08915930 </v>
   <v>       0.00000000      -0.21864941       0.08915930 </v>
   <v>      -0.00000000       0.21864941      -0.08915930 </v>
   <v>       0.00000000       0.21864941      -0.08915930 </v>
   <v>      -0.00000000       0.21864941      -0.08915930 </v>
   <v>       0.00000000       0.21864941      -0.08915930 </v>
   <v>       0.00000000       0.21864941      -0.08915930 </v>
   <v>      -0.00000000       0.21864941      -0.08915930 </v>
   <v>       0.00000000       0.03754506      -0.04318073 </v>
   <v>       0.00000000       0.03754506      -0.04318073 </v>
   <v>       0.00000000       0.03754506      -0.04318073 </v>
   <v>       0.00000000       0.03754506      -0.04318073 </v>
   <v>       0.00000000       0.03754506      -0.04318073 </v>
   <v>       0.00000000       0.03754506      -0.04318073 </v>
   <v>       0.00000000      -0.03754506       0.04318073 </v>
   <v>      -0.00000000      -0.03754506       0.04318073 </v>
   <v>       0.00000000      -0.03754506       0.04318073 </v>
   <v>       0.00000000      -0.03754506       0.04318073 </v>
   <v>      -0.00000000      -0.03754506       0.04318073 </v>
   <v>       0.00000000      -0.03754506       0.04318073 </v>
   <v>      -0.00000000       0.15960364      -0.02009694 </v>
   <v>       0.00000000       0.15960364      -0.02009694 </v>
   <v>       0.00000000       0.15960364      -0.02009694 </v>
   <v>      -0.00000000       0.15960364      -0.02009694 </v>
   <v>      -0.00000000       0.15960364      -0.02009694 </v>
   <v>       0.00000000       0.15960364      -0.02009694 </v>
   <v>       0.00000000      -0.15960364       0.02009694 </v>
   <v>      -0.00000000      -0.15960364       0.02009694 </v>
   <v>      -0.00000000      -0.15960364       0.02009694 </v>
   <v>       0.00000000      -0.15960364       0.02009694 </v>
   <v>       0.00000000      -0.15960364       0.02009694 </v>
   <v>       0.00000000      -0.15960364       0.02009694 </v>
  </varray>
  <varray name="stress" >
   <v>     -62.32363499       0.00000000       0.00000000 </v>
   <v>       0.00000000     -50.98838622       1.46253532 </v>
   <v>       0.00000000       1.46253129     -55.68077830 </v>
  </varray>
  <energy>
   <i name="e_fr_energy">   -715.05078466 </i>
   <i name="e_wo_entrp">   -715.05078466 </i>
   <i name="e_0_energy">   -715.05078466 </i>
  </energy>
  <time name="totalsc">  175.04  174.28</time>
 </calculation>
 <calculation>
  <scstep>
   <time name="dav">   25.85   25.85</time>
   <time name="total">   26.14   26.12</time>
   <energy>
    <i name="alphaZ">   5383.22438445 </i>
    <i name="ewald"> -87919.00711988 </i>
    <i name="hartreedc"> -35030.45885349 </i>
    <i name="XCdc">   4235.37535157 </i>
    <i name="pawpsdc"> 117241.85700440 </i>
    <i name="pawaedc">-133597.74489222 </i>
    <i name="eentropy">     -0.00000000 </i>
    <i name="bandstr">  -5307.45862516 </i>
    <i name="atom"> 134272.11748520 </i>
    <i name="e_fr_energy">   -722.09526513 </i>
    <i name="e_wo_entrp">   -722.09526513 </i>
    <i name="e_0_energy">   -722.09526513 </i>
   </energy>
  </scstep>
  <scstep>
   <time name="diag">    1.76    1.76</time>
   <time name="diis">    7.94    7.94</time>
   <time name="orth">    0.99    1.00</time>
   <time name="total">   10.99   10.97</time>
   <energy>
    <i name="e_fr_energy">   -716.95532577 </i>
    <i name="e_wo_entrp">   -716.95532577 </i>
    <i name="e_0_energy">   -716.95532577 </i>
   </energy>
  </scstep>
  <scstep>
   <time name="diag">    1.78    1.78</time>
   <time name="diis">    7.89    7.89</time>
   <time name="orth">    0.99    0.99</time>
   <time name="total">   10.97   10.94</time>
   <energy>
    <i name="e_fr_energy">   -715.87907740 </i>
    <i name="e_wo_entrp">   -715.87907740 </i>
    <i name="e_0_energy">   -715.87907740 </i>
   </energy>
  </scstep>
  <scstep>
   <time name="diag">    1.78    1.78</time>
   <time name="diis">    8.13    8.13</time>
   <time name="orth">    0.98    0.98</time>
   <time name="total">   11.19   11.16</time>
   <energy>
    <i name="e_fr_energy">   -715.75015544 </i>
    <i name="e_wo_entrp">   -715.75015544 </i>
    <i name="e_0_energy">   -715.75015544 </i>
   </energy>
  </scstep>
  <scstep>
   <time name="diag">    1.78    1.78</time>
   <time name="diis">    9.36    9.36</time>
   <time name="orth">    1.00    1.00</time>
   <time name="total">   12.44   12.41</time>
   <energy>
    <i name="e_fr_energy">   -715.74487133 </i>
    <i name="e_wo_entrp">   -715.74487133 </i>
    <i name="e_0_energy">   -715.74487133 </i>
   </energy>
  </scstep>
  <scstep>
   <time name="diag">    1.78    1.78</time>
   <time name="diis">    9.60    9.61</time>
   <time name="orth">    0.99    0.99</time>
   <time name="total">   12.68   12.65</time>
   <energy>
    <i name="e_fr_energy">   -715.74722234 </i>
    <i name="e_wo_entrp">   -715.74722234 </i>
[...]
       <r>    -9.8853     0.0000   144.0000 </r>
       <r>    -9.7762     0.0000   144.0000 </r>
       <r>    -9.6672     0.0000   144.0000 </r>
       <r>    -9.5581     0.0000   144.0000 </r>
       <r>    -9.4490     2.0098   144.2192 </r>
       <r>    -9.3399   198.8885   165.9128 </r>
       <r>    -9.2309   642.3175   235.9732 </r>
       <r>    -9.1218   889.1108   332.9523 </r>
       <r>    -9.0127   782.6427   418.3185 </r>
       <r>    -8.9037   830.1707   508.8688 </r>
       <r>    -8.7946   298.9161   541.4729 </r>
       <r>    -8.6855   148.3435   557.6534 </r>
       <r>    -8.5764   140.6892   572.9989 </r>
       <r>    -8.4674    98.8879   583.7851 </r>
       <r>    -8.3583   128.5601   597.8077 </r>
       <r>    -8.2492   147.2997   613.8743 </r>
       <r>    -8.1401    82.2190   622.8422 </r>
       <r>    -8.0311    10.4890   623.9863 </r>
       <r>    -7.9220     0.1253   624.0000 </r>
       <r>    -7.8129     0.0000   624.0000 </r>
       <r>    -7.7038     0.0000   624.0000 </r>
       <r>    -7.5948     0.0000   624.0000 </r>
       <r>    -7.4857     0.0000   624.0000 </r>
       <r>    -7.3766     0.0000   624.0000 </r>
       <r>    -7.2675     0.0000   624.0000 </r>
       <r>    -7.1585     0.0000   624.0000 </r>
       <r>    -7.0494     0.0000   624.0000 </r>
       <r>    -6.9403     0.0000   624.0000 </r>
       <r>    -6.8312     0.0000   624.0000 </r>
       <r>    -6.7222     0.0000   624.0000 </r>
       <r>    -6.6131     0.0000   624.0000 </r>
       <r>    -6.5040     0.0000   624.0000 </r>
       <r>    -6.3949     0.0000   624.0000 </r>
       <r>    -6.2859     0.0000   624.0000 </r>
       <r>    -6.1768     0.0000   624.0000 </r>
       <r>    -6.0677     0.0000   624.0000 </r>
       <r>    -5.9586     0.0000   624.0000 </r>
       <r>    -5.8496     0.0000   624.0000 </r>
       <r>    -5.7405     0.0000   624.0000 </r>
       <r>    -5.6314     0.0000   624.0000 </r>
       <r>    -5.5223     0.0000   624.0000 </r>
       <r>    -5.4133     0.0000   624.0000 </r>
       <r>    -5.3042     0.0000   624.0000 </r>
       <r>    -5.1951     0.0000   624.0000 </r>
       <r>    -5.0861     0.0000   624.0000 </r>
       <r>    -4.9770     0.0000   624.0000 </r>
       <r>    -4.8679     0.0000   624.0000 </r>
       <r>    -4.7588     0.0000   624.0000 </r>
       <r>    -4.6498     0.0000   624.0000 </r>
       <r>    -4.5407     0.0000   624.0000 </r>
       <r>    -4.4316     0.0000   624.0000 </r>
       <r>    -4.3225     0.0000   624.0000 </r>
       <r>    -4.2135     0.0000   624.0000 </r>
       <r>    -4.1044     0.0000   624.0000 </r>
       <r>    -3.9953     0.0000   624.0000 </r>
       <r>    -3.8862     0.0000   624.0000 </r>
       <r>    -3.7772     0.0000   624.0000 </r>
       <r>    -3.6681     0.0000   624.0000 </r>
       <r>    -3.5590     0.0000   624.0000 </r>
       <r>    -3.4499     0.0068   624.0007 </r>
       <r>    -3.3409     4.0691   624.4446 </r>
       <r>    -3.2318     8.3788   625.3585 </r>
       <r>    -3.1227    24.0880   627.9859 </r>
       <r>    -3.0136    24.1460   630.6196 </r>
       <r>    -2.9046    45.6915   635.6034 </r>
       <r>    -2.7955    21.8515   637.9868 </r>
       <r>    -2.6864    65.0018   645.0768 </r>
       <r>    -2.5773    28.3134   648.1651 </r>
       <r>    -2.4683    64.9257   655.2468 </r>
       <r>    -2.3592    67.3319   662.5910 </r>
       <r>    -2.2501    45.7768   667.5841 </r>
       <r>    -2.1410    40.1791   671.9666 </r>
       <r>    -2.0320    69.9044   679.5914 </r>
       <r>    -1.9229    51.0734   685.1622 </r>
       <r>    -1.8138    18.7395   687.2061 </r>
       <r>    -1.7047    36.6826   691.2073 </r>
       <r>    -1.5957    22.3145   693.6412 </r>
       <r>    -1.4866    33.8644   697.3350 </r>
       <r>    -1.3775    27.3450   700.3176 </r>
       <r>    -1.2684    37.3686   704.3935 </r>
       <r>    -1.1594    42.7496   709.0564 </r>
       <r>    -1.0503    41.9999   713.6375 </r>
       <r>    -0.9412    33.3525   717.2754 </r>
       <r>    -0.8322    31.6089   720.7232 </r>
       <r>    -0.7231    40.3569   725.1251 </r>
       <r>    -0.6140    42.7900   729.7923 </r>
       <r>    -0.5049    51.3831   735.3969 </r>
       <r>    -0.3959    41.3692   739.9092 </r>
       <r>    -0.2868    34.3123   743.6518 </r>
       <r>    -0.1777    63.3455   750.5612 </r>
       <r>    -0.0686    71.7864   758.3912 </r>
       <r>     0.0404    88.5242   768.0470 </r>
       <r>     0.1495    53.6815   773.9022 </r>
       <r>     0.2586    89.4428   783.6581 </r>
       <r>     0.3677    61.4170   790.3572 </r>
       <r>     0.4767    44.3365   795.1931 </r>
       <r>     0.5858    66.6287   802.4606 </r>
       <r>     0.6949    84.8957   811.7206 </r>
       <r>     0.8040    83.8060   820.8616 </r>
       <r>     0.9130    83.6716   829.9881 </r>
       <r>     1.0221    87.1279   839.4915 </r>
       <r>     1.1312    62.9215   846.3546 </r>
       <r>     1.2403    68.8122   853.8602 </r>
       <r>     1.3493    72.0496   861.7190 </r>
       <r>     1.4584    77.9635   870.2228 </r>
       <r>     1.5675   106.3698   881.8250 </r>
       <r>     1.6766    81.6102   890.7266 </r>
       <r>     1.7856    69.4517   898.3020 </r>
       <r>     1.8947    37.0261   902.3406 </r>
       <r>     2.0038    68.5679   909.8196 </r>
       <r>     2.1129    99.4841   920.6707 </r>
       <r>     2.2219   104.3796   932.0559 </r>
       <r>     2.3310    88.2048   941.6768 </r>
       <r>     2.4401   112.1074   953.9048 </r>
       <r>     2.5492    90.8276   963.8118 </r>
       <r>     2.6582   128.9033   977.8718 </r>
       <r>     2.7673    98.0054   988.5617 </r>
       <r>     2.8764   161.2512  1006.1500 </r>
       <r>     2.9854   129.2865  1020.2519 </r>
       <r>     3.0945    86.1049  1029.6437 </r>
       <r>     3.2036    69.6052  1037.2358 </r>
       <r>     3.3127    51.8916  1042.8959 </r>
       <r>     3.4217    53.6517  1048.7479 </r>
       <r>     3.5308    63.5588  1055.6806 </r>
       <r>     3.6399     2.9282  1055.9999 </r>
       <r>     3.7490     0.0005  1056.0000 </r>
       <r>     3.8580     0.0000  1056.0000 </r>
       <r>     3.9671     0.0000  1056.0000 </r>
       <r>     4.0762     0.0000  1056.0000 </r>
       <r>     4.1853     0.0000  1056.0000 </r>
       <r>     4.2943     0.0000  1056.0000 </r>
       <r>     4.4034     0.0000  1056.0000 </r>
       <r>     4.5125     0.0000  1056.0000 </r>
       <r>     4.6216     0.0000  1056.0000 </r>
       <r>     4.7306     0.0000  1056.0000 </r>
       <r>     4.8397     0.0000  1056.0000 </r>
       <r>     4.9488     0.0000  1056.0000 </r>
       <r>     5.0579     0.0000  1056.0000 </r>
       <r>     5.1669     0.0000  1056.0000 </r>
       <r>     5.2760     0.0000  1056.0000 </r>
       <r>     5.3851     0.0000  1056.0000 </r>
       <r>     5.4942     0.0679  1056.0074 </r>
       <r>     5.6032     1.9597  1056.2212 </r>
       <r>     5.7123     0.2644  1056.2500 </r>
       <r>     5.8214     0.0000  1056.2500 </r>
       <r>     5.9305     0.0000  1056.2500 </r>
       <r>     6.0395     0.0000  1056.2500 </r>
       <r>     6.1486     0.0000  1056.2500 </r>
       <r>     6.2577     0.0000  1056.2500 </r>
       <r>     6.3668     0.1068  1056.2617 </r>
       <r>     6.4758     4.4639  1056.7485 </r>
       <r>     6.5849     4.4871  1057.2380 </r>
       <r>     6.6940     0.1175  1057.2508 </r>
       <r>     6.8030     2.8313  1057.5596 </r>
       <r>     6.9121     6.0632  1058.2210 </r>
       <r>     7.0212     0.2662  1058.2500 </r>
       <r>     7.1303     0.0002  1058.2500 </r>
       <r>     7.2393     1.5167  1058.4154 </r>
       <r>     7.3484    11.6002  1059.6807 </r>
       <r>     7.4575     3.3714  1060.0485 </r>
       <r>     7.5666     6.4329  1060.7501 </r>
       <r>     7.6756     6.4947  1061.4585 </r>
       <r>     7.7847     4.6193  1061.9624 </r>
       <r>     7.8938     4.3780  1062.4399 </r>
       <r>     8.0029    11.7627  1063.7229 </r>
       <r>     8.1119     8.7235  1064.6744 </r>
       <r>     8.2210     4.1321  1065.1251 </r>
       <r>     8.3301     3.9391  1065.5548 </r>
       <r>     8.4392    13.0872  1066.9823 </r>
       <r>     8.5482    15.9473  1068.7217 </r>
       <r>     8.6573    10.4233  1069.8586 </r>
       <r>     8.7664     7.5793  1070.6853 </r>
       <r>     8.8755    10.7703  1071.8601 </r>
       <r>     8.9845    26.9608  1074.8008 </r>
       <r>     9.0936    32.3361  1078.3279 </r>
       <r>     9.2027    28.5958  1081.4469 </r>
       <r>     9.3118    43.1046  1086.1485 </r>
       <r>     9.4208    57.6419  1092.4358 </r>
       <r>     9.5299    46.3370  1097.4900 </r>
       <r>     9.6390    28.0070  1100.5448 </r>
       <r>     9.7481    38.2762  1104.7197 </r>
       <r>     9.8571    32.9244  1108.3110 </r>
       <r>     9.9662    24.6001  1110.9942 </r>
       <r>    10.0753    50.7200  1116.5264 </r>
       <r>    10.1844    47.7550  1121.7353 </r>
       <r>    10.2934    19.8317  1123.8984 </r>
       <r>    10.4025    37.3178  1127.9688 </r>
       <r>    10.5116    31.5774  1131.4131 </r>
       <r>    10.6206    38.0667  1135.5652 </r>
       <r>    10.7297    36.3441  1139.5294 </r>
       <r>    10.8388    34.9380  1143.3403 </r>
       <r>    10.9479    42.9677  1148.0269 </r>
       <r>    11.0569    20.9305  1150.3099 </r>
       <r>    11.1660    43.1192  1155.0131 </r>
       <r>    11.2751    43.1677  1159.7216 </r>
       <r>    11.3842    23.6029  1162.2961 </r>
       <r>    11.4932     2.0626  1162.5210 </r>
       <r>    11.6023     9.7816  1163.5880 </r>
       <r>    11.7114    36.6549  1167.5861 </r>
       <r>    11.8205    26.4824  1170.4746 </r>
       <r>    11.9295    34.0768  1174.1915 </r>
       <r>    12.0386    40.7974  1178.6415 </r>
       <r>    12.1477    41.3937  1183.1565 </r>
       <r>    12.2568    41.4049  1187.6727 </r>
       <r>    12.3658    47.2949  1192.8313 </r>
       <r>    12.4749    37.8698  1196.9620 </r>
       <r>    12.5840    35.8306  1200.8702 </r>
       <r>    12.6931    34.0193  1204.5808 </r>
       <r>    12.8021    38.4791  1208.7779 </r>
       <r>    12.9112    47.6295  1213.9730 </r>
       <r>    13.0203    54.1029  1219.8743 </r>
       <r>    13.1294    48.9884  1225.2176 </r>
       <r>    13.2384    44.6964  1230.0929 </r>
       <r>    13.3475    37.5485  1234.1884 </r>
       <r>    13.4566    32.3265  1237.7144 </r>
       <r>    13.5657    30.4830  1241.0393 </r>
       <r>    13.6747    32.5927  1244.5944 </r>
       <r>    13.7838    27.9325  1247.6411 </r>
       <r>    13.8929    17.6046  1249.5613 </r>
       <r>    14.0020    34.7133  1253.3476 </r>
       <r>    14.1110    44.6450  1258.2173 </r>
       <r>    14.2201    43.6614  1262.9796 </r>
       <r>    14.3292    48.1920  1268.2361 </r>
       <r>    14.4383    18.6898  1270.2747 </r>
       <r>    14.5473    10.6479  1271.4361 </r>
       <r>    14.6564     5.1097  1271.9934 </r>
       <r>    14.7655     0.0602  1272.0000 </r>
       <r>    14.8745     0.0000  1272.0000 </r>
       <r>    14.9836     0.0000  1272.0000 </r>
       <r>    15.0927     0.0000  1272.0000 </r>
       <r>    15.2018     0.0000  1272.0000 </r>
       <r>    15.3108     0.0000  1272.0000 </r>
       <r>    15.4199     0.0000  1272.0000 </r>
       <r>    15.5290     0.0000  1272.0000 </r>
       <r>    15.6381     0.0000  1272.0000 </r>
       <r>    15.7471     0.0000  1272.0000 </r>
       <r>    15.8562     0.0000  1272.0000 </r>
       <r>    15.9653     0.0000  1272.0000 </r>
       <r>    16.0744     0.0000  1272.0000 </r>
      </set>
     </set>
    </array>
   </total>
  </dos>
 </calculation>
 <structure name="finalpos" >
  <crystal>
   <varray name="basis" >
    <v>       0.00000000      12.40097893      -0.00779670 </v>
    <v>       9.23666513       0.00000000       0.00000000 </v>
    <v>       0.00000000      -2.78825302     -11.39587601 </v>
   </varray>
   <i name="volume">   1305.52648202 </i>
   <varray name="rec_basis" >
    <v>       0.00000000       0.08062639      -0.01972703 </v>
    <v>       0.10826418       0.00000000       0.00000000 </v>
    <v>       0.00000000      -0.00005516      -0.08773755 </v>
   </varray>
  </crystal>
  <varray name="positions" >
   <v>       0.65858090       0.00000000       0.15694005 </v>
   <v>       0.65858090      -0.00000000       0.65694005 </v>
   <v>       0.65858090       0.33333333       0.15694005 </v>
   <v>       0.65858090       0.33333333       0.65694005 </v>
   <v>       0.65858090       0.66666667       0.15694005 </v>
   <v>       0.65858090       0.66666667       0.65694005 </v>
   <v>       0.84141910       0.16666667       0.34305995 </v>
   <v>       0.84141910       0.16666667       0.84305995 </v>
   <v>       0.84141910       0.50000000       0.34305995 </v>
   <v>       0.84141910       0.50000000       0.84305995 </v>
   <v>       0.84141910       0.83333333       0.34305995 </v>
   <v>       0.84141910       0.83333333       0.84305995 </v>
   <v>       0.59026218       0.16666667       0.39744629 </v>
   <v>       0.59026218       0.16666667       0.89744629 </v>
   <v>       0.59026218       0.50000000       0.39744629 </v>
   <v>       0.59026218       0.50000000       0.89744629 </v>
   <v>       0.59026218       0.83333333       0.39744629 </v>
   <v>       0.59026218       0.83333333       0.89744629 </v>
   <v>       0.90973782       0.00000000       0.10255371 </v>
   <v>       0.90973782       0.00000000       0.60255371 </v>
   <v>       0.90973782       0.33333333       0.10255371 </v>
   <v>       0.90973782       0.33333333       0.60255371 </v>
   <v>       0.90973782       0.66666667       0.10255371 </v>
   <v>       0.90973782       0.66666667       0.60255371 </v>
   <v>       0.15858090       0.16666667       0.15694005 </v>
   <v>       0.15858090       0.16666667       0.65694005 </v>
   <v>       0.15858090       0.50000000       0.15694005 </v>
   <v>       0.15858090       0.50000000       0.65694005 </v>
   <v>       0.15858090       0.83333333       0.15694005 </v>
   <v>       0.15858090       0.83333333       0.65694005 </v>
   <v>       0.34141910      -0.00000000       0.34305995 </v>
   <v>       0.34141910       0.00000000       0.84305995 </v>
   <v>       0.34141910       0.33333333       0.34305995 </v>
   <v>       0.34141910       0.33333333       0.84305995 </v>
   <v>       0.34141910       0.66666667       0.34305995 </v>
   <v>       0.34141910       0.66666667       0.84305995 </v>
   <v>       0.09026218      -0.00000000       0.39744629 </v>
   <v>       0.09026218       0.00000000       0.89744629 </v>
   <v>       0.09026218       0.33333333       0.39744629 </v>
   <v>       0.09026218       0.33333333       0.89744629 </v>
   <v>       0.09026218       0.66666667       0.39744629 </v>
   <v>       0.09026218       0.66666667       0.89744629 </v>
   <v>       0.40973782       0.16666667       0.10255371 </v>
   <v>       0.40973782       0.16666667       0.60255371 </v>
   <v>       0.40973782       0.50000000       0.10255371 </v>
   <v>       0.40973782       0.50000000       0.60255371 </v>
   <v>       0.40973782       0.83333333       0.10255371 </v>
   <v>       0.40973782       0.83333333       0.60255371 </v>
   <v>       0.99600389       0.16666667       0.12818852 </v>
   <v>       0.99600389       0.16666667       0.62818852 </v>
   <v>       0.99600389       0.50000000       0.12818852 </v>
   <v>       0.99600389       0.50000000       0.62818852 </v>
   <v>       0.99600389       0.83333333       0.12818852 </v>
   <v>       0.99600389       0.83333333       0.62818852 </v>
   <v>       0.50399611       0.00000000       0.37181148 </v>
   <v>       0.50399611       0.00000000       0.87181148 </v>
   <v>       0.50399611       0.33333333       0.37181148 </v>
   <v>       0.50399611       0.33333333       0.87181148 </v>
   <v>       0.50399611       0.66666667       0.37181148 </v>
   <v>       0.50399611       0.66666667       0.87181148 </v>
   <v>       0.67338949       0.16666667       0.28165981 </v>
   <v>       0.67338949       0.16666667       0.78165981 </v>
   <v>       0.67338949       0.50000000       0.28165981 </v>
   <v>       0.67338949       0.50000000       0.78165981 </v>
   <v>       0.67338949       0.83333333       0.28165981 </v>
   <v>       0.67338949       0.83333333       0.78165981 </v>
   <v>       0.82661051      -0.00000000       0.21834019 </v>
   <v>       0.82661051       0.00000000       0.71834019 </v>
   <v>       0.82661051       0.33333333       0.21834019 </v>
   <v>       0.82661051       0.33333333       0.71834019 </v>
   <v>       0.82661051       0.66666667       0.21834019 </v>
   <v>       0.82661051       0.66666667       0.71834019 </v>
   <v>       0.83526821       0.00000000       0.44556862 </v>
   <v>       0.83526821       0.00000000       0.94556862 </v>
   <v>       0.83526821       0.33333333       0.44556862 </v>
   <v>       0.83526821       0.33333333       0.94556862 </v>
   <v>       0.83526821       0.66666667       0.44556862 </v>
   <v>       0.83526821       0.66666667       0.94556862 </v>
   <v>       0.66473179       0.16666667       0.05443138 </v>
   <v>       0.66473179       0.16666667       0.55443138 </v>
   <v>       0.66473179       0.50000000       0.05443138 </v>
   <v>       0.66473179       0.50000000       0.55443138 </v>
   <v>       0.66473179       0.83333333       0.05443138 </v>
   <v>       0.66473179       0.83333333       0.55443138 </v>
   <v>       0.49600389       0.00000000       0.12818852 </v>
   <v>       0.49600389       0.00000000       0.62818852 </v>
   <v>       0.49600389       0.33333333       0.12818852 </v>
   <v>       0.49600389       0.33333333       0.62818852 </v>
   <v>       0.49600389       0.66666667       0.12818852 </v>
   <v>       0.49600389       0.66666667       0.62818852 </v>
   <v>       0.00399611       0.16666667       0.37181148 </v>
   <v>       0.00399611       0.16666667       0.87181148 </v>
   <v>       0.00399611       0.50000000       0.37181148 </v>
   <v>       0.00399611       0.50000000       0.87181148 </v>
   <v>       0.00399611       0.83333333       0.37181148 </v>
   <v>       0.00399611       0.83333333       0.87181148 </v>
   <v>       0.17338949       0.00000000       0.28165981 </v>
   <v>       0.17338949       0.00000000       0.78165981 </v>
   <v>       0.17338949       0.33333333       0.28165981 </v>
   <v>       0.17338949       0.33333333       0.78165981 </v>
   <v>       0.17338949       0.66666667       0.28165981 </v>
   <v>       0.17338949       0.66666667       0.78165981 </v>
   <v>       0.32661051       0.16666667       0.21834019 </v>
   <v>       0.32661051       0.16666667       0.71834019 </v>
   <v>       0.32661051       0.50000000       0.21834019 </v>
   <v>       0.32661051       0.50000000       0.71834019 </v>
   <v>       0.32661051       0.83333333       0.21834019 </v>
   <v>       0.32661051       0.83333333       0.71834019 </v>
   <v>       0.33526821       0.16666667       0.44556862 </v>
   <v>       0.33526821       0.16666667       0.94556862 </v>
   <v>       0.33526821       0.50000000       0.44556862 </v>
   <v>       0.33526821       0.50000000       0.94556862 </v>
   <v>       0.33526821       0.83333333       0.44556862 </v>
   <v>       0.33526821       0.83333333       0.94556862 </v>
   <v>       0.16473179      -0.00000000       0.05443138 </v>
   <v>       0.16473179      -0.00000000       0.55443138 </v>
   <v>       0.16473179       0.33333333       0.05443138 </v>
   <v>       0.16473179       0.33333333       0.55443138 </v>
   <v>       0.16473179       0.66666667       0.05443138 </v>
   <v>       0.16473179       0.66666667       0.55443138 </v>
  </varray>
 </structure>
</modeling>
