 running    4 mpi-ranks, on    1 nodes
 distrk:  each k-point on    1 cores,    4 groups
 distr:  one band on    1 cores,    1 groups
 OpenACC runtime initialized ...    4 GPUs detected
 vasp.6.4.2 20Jul23 (build Nov 12 2023 22:16:35) complex                         
 POSCAR found type information on POSCAR GaO N 
 POSCAR found :  3 types and     120 ions
 scaLAPACK will be used selectively (only on CPU)
 LDA part: xc-table for Pade appr. of Perdew
 POSCAR, INCAR and KPOINTS ok, starting setup
 FFT: planning ... GRIDC
 FFT: planning ... GRID_SOFT
 FFT: planning ... GRID
 WAVECAR not read
 entering main loop
       N       E                     dE             d eps       ncg     rms          rms(c)
DAV:   1     0.219501779093E+05    0.21950E+05   -0.32099E+05 10128   0.282E+03
DAV:   2     0.485463936200E+04   -0.17096E+05   -0.16111E+05 10128   0.815E+02
DAV:   3    -0.152323550487E+03   -0.50070E+04   -0.47107E+04 12888   0.320E+02
DAV:   4    -0.777796630736E+03   -0.62547E+03   -0.61200E+03 12480   0.121E+02
DAV:   5    -0.822356504054E+03   -0.44560E+02   -0.44229E+02 14648   0.348E+01    0.607E+01
RMM:   6    -0.709953741642E+03    0.11240E+03   -0.37927E+02 13093   0.235E+01    0.162E+01
RMM:   7    -0.713940715541E+03   -0.39870E+01   -0.66710E+01 13904   0.985E+00    0.132E+01
RMM:   8    -0.713437805268E+03    0.50291E+00   -0.77531E+00 13597   0.425E+00    0.780E+00
RMM:   9    -0.713619339375E+03   -0.18153E+00   -0.45202E+00 12509   0.390E+00    0.463E+00
RMM:  10    -0.713275222632E+03    0.34412E+00   -0.76400E-01 15506   0.153E+00    0.265E+00
RMM:  11    -0.713180608191E+03    0.94614E-01   -0.89523E-01 11706   0.933E-01    0.720E-01
RMM:  12    -0.713202666879E+03   -0.22059E-01   -0.18829E-01 15531   0.459E-01    0.637E-01
RMM:  13    -0.713199763659E+03    0.29032E-02   -0.29915E-02 12674   0.253E-01    0.105E-01
RMM:  14    -0.713200443912E+03   -0.68025E-03   -0.68331E-03 15487   0.103E-01    0.105E-01
RMM:  15    -0.713200428206E+03    0.15706E-04   -0.16207E-03 13492   0.426E-02    0.371E-02
RMM:  16    -0.713200502963E+03   -0.74757E-04   -0.78606E-04 11976   0.286E-02    0.252E-02
RMM:  17    -0.713200512377E+03   -0.94137E-05   -0.19488E-04 10383   0.161E-02    0.926E-03
RMM:  18    -0.713200518223E+03   -0.58461E-05   -0.83993E-05  9182   0.930E-03
   1 F= -.71320052E+03 E0= -.71318298E+03  d E =-.713201E+03
 curvature:   0.00 expect dE= 0.000E+00 dE for cont linesearch  0.000E+00
 trial: gam= 0.00000 g(F)=  0.176E+00 g(S)=  0.000E+00 ort = 0.000E+00 (trialstep = 0.100E+01)
 search vector abs. value=  0.176E+00
 bond charge predicted
       N       E                     dE             d eps       ncg     rms          rms(c)
DAV:   1    -0.713105178138E+03    0.95334E-01   -0.41720E+01 10880   0.906E+00    0.126E+00
RMM:   2    -0.713279770465E+03   -0.17459E+00   -0.17491E+00 13865   0.253E+00    0.141E+00
RMM:   3    -0.713288802092E+03   -0.90316E-02   -0.32505E-01 15437   0.924E-01    0.598E-01
RMM:   4    -0.713288356139E+03    0.44595E-03   -0.38624E-02 15564   0.311E-01    0.379E-01
RMM:   5    -0.713286054173E+03    0.23020E-02   -0.84296E-03 15360   0.126E-01    0.257E-01
RMM:   6    -0.713284234019E+03    0.18202E-02   -0.89450E-03 12633   0.110E-01    0.790E-02
RMM:   7    -0.713284198968E+03    0.35051E-04   -0.10600E-03 14796   0.482E-02    0.435E-02
RMM:   8    -0.713284180730E+03    0.18238E-04   -0.23266E-04 11118   0.184E-02    0.164E-02
RMM:   9    -0.713284184453E+03   -0.37234E-05   -0.63991E-05  9696   0.108E-02
   2 F= -.71328418E+03 E0= -.71326655E+03  d E =-.836662E-01
 trial-energy change:   -0.083666  1 .order   -0.083832   -0.176093    0.008428
 step:   0.9543(harm=  0.9543)  dis= 0.02487  next Energy=  -713.284543 (dE=-0.840E-01)
 bond charge predicted
       N       E                     dE             d eps       ncg     rms          rms(c)
DAV:   1    -0.713283991102E+03    0.18963E-03   -0.87090E-02 11200   0.420E-01    0.613E-02
RMM:   2    -0.713284358906E+03   -0.36780E-03   -0.35185E-03 13506   0.117E-01    0.829E-02
RMM:   3    -0.713284354875E+03    0.40313E-05   -0.70427E-04 14835   0.439E-02    0.257E-02
RMM:   4    -0.713284355186E+03   -0.31082E-06   -0.86293E-05 11043   0.158E-02
   3 F= -.71328436E+03 E0= -.71326673E+03  d E =-.838370E-01
 curvature:  -0.48 expect dE=-0.377E-01 dE for cont linesearch -0.429E-05
 trial: gam= 0.44164 g(F)=  0.790E-01 g(S)=  0.000E+00 ort = 0.126E-02 (trialstep = 0.991E+00)
 search vector abs. value=  0.114E+00
 bond charge predicted
       N       E                     dE             d eps       ncg     rms          rms(c)
DAV:   1    -0.713228094512E+03    0.56260E-01   -0.26573E+01 10992   0.736E+00    0.112E+00
RMM:   2    -0.713331793017E+03   -0.10370E+00   -0.97182E-01 13418   0.196E+00    0.143E+00
RMM:   3    -0.713332720141E+03   -0.92712E-03   -0.22251E-01 15238   0.769E-01    0.450E-01
RMM:   4    -0.713333825378E+03   -0.11052E-02   -0.25670E-02 15495   0.258E-01    0.265E-01
RMM:   5    -0.713333090146E+03    0.73523E-03   -0.44469E-03 15378   0.977E-02    0.184E-01
RMM:   6    -0.713332365566E+03    0.72458E-03   -0.36304E-03 12745   0.750E-02    0.434E-02
RMM:   7    -0.713332392585E+03   -0.27019E-04   -0.53691E-04 14324   0.344E-02    0.265E-02
RMM:   8    -0.713332395401E+03   -0.28166E-05   -0.13641E-04 10179   0.144E-02    0.104E-02
RMM:   9    -0.713332397864E+03   -0.24625E-05   -0.34724E-05  8514   0.907E-03
   4 F= -.71333240E+03 E0= -.71331524E+03  d E =-.480427E-01
 trial-energy change:   -0.048043  1 .order   -0.047806   -0.078858   -0.016754
 step:   1.2507(harm=  1.2582)  dis= 0.02313  next Energy=  -713.334599 (dE=-0.502E-01)
 bond charge predicted
       N       E                     dE             d eps       ncg     rms          rms(c)
DAV:   1    -0.713327993142E+03    0.44023E-02   -0.18296E+00 11576   0.192E+00    0.303E-01
RMM:   2    -0.713335230591E+03   -0.72374E-02   -0.65128E-02 13312   0.506E-01    0.431E-01
RMM:   3    -0.713334904030E+03    0.32656E-03   -0.14882E-02 15236   0.198E-01    0.109E-01
RMM:   4    -0.713334989172E+03   -0.85142E-04   -0.17043E-03 15213   0.667E-02    0.645E-02
RMM:   5    -0.713334914478E+03    0.74694E-04   -0.36756E-04 13119   0.283E-02    0.328E-02
RMM:   6    -0.713334901298E+03    0.13180E-04   -0.16335E-04 10821   0.172E-02    0.112E-02
RMM:   7    -0.713334901845E+03   -0.54700E-06   -0.32970E-05  8718   0.105E-02
   5 F= -.71333490E+03 E0= -.71331790E+03  d E =-.505467E-01
 curvature:  -0.90 expect dE=-0.397E-01 dE for cont linesearch -0.837E-05
 trial: gam= 0.53082 g(F)=  0.439E-01 g(S)=  0.000E+00 ort = 0.103E-02 (trialstep = 0.104E+01)
 search vector abs. value=  0.773E-01
 bond charge predicted
       N       E                     dE             d eps       ncg     rms          rms(c)
DAV:   1    -0.713279589727E+03    0.55312E-01   -0.20601E+01 10648   0.644E+00    0.812E-01
RMM:   2    -0.713346232752E+03   -0.66643E-01   -0.69933E-01 13066   0.168E+00    0.524E-01
RMM:   3    -0.713360923555E+03   -0.14691E-01   -0.16296E-01 15326   0.664E-01    0.472E-01
RMM:   4    -0.713360280749E+03    0.64281E-03   -0.17437E-02 15490   0.217E-01    0.235E-01
RMM:   5    -0.713359765911E+03    0.51484E-03   -0.31170E-03 15468   0.829E-02    0.170E-01
RMM:   6    -0.713359176800E+03    0.58911E-03   -0.38174E-03 12437   0.765E-02    0.716E-02
RMM:   7    -0.713359127558E+03    0.49242E-04   -0.44890E-04 13537   0.325E-02    0.395E-02
RMM:   8    -0.713359111077E+03    0.16481E-04   -0.15148E-04 10175   0.153E-02    0.133E-02
RMM:   9    -0.713359111725E+03   -0.64792E-06   -0.31056E-05  8633   0.863E-03
   6 F= -.71335911E+03 E0= -.71334244E+03  d E =-.242099E-01
 trial-energy change:   -0.024210  1 .order   -0.024042   -0.046372   -0.001713
 step:   1.0819(harm=  1.0828)  dis= 0.01664  next Energy=  -713.359144 (dE=-0.242E-01)
 bond charge predicted
       N       E                     dE             d eps       ncg     rms          rms(c)
DAV:   1    -0.713359050365E+03    0.60712E-04   -0.29428E-02 11616   0.245E-01    0.290E-02
RMM:   2    -0.713359150117E+03   -0.99752E-04   -0.10498E-03 12946   0.666E-02    0.199E-02
RMM:   3    -0.713359172005E+03   -0.21888E-04   -0.25996E-04 13369   0.270E-02    0.178E-02
RMM:   4    -0.713359171353E+03    0.65202E-06   -0.32375E-05  7554   0.117E-02
   7 F= -.71335917E+03 E0= -.71334252E+03  d E =-.242695E-01
 curvature:  -0.94 expect dE=-0.198E-01 dE for cont linesearch -0.575E-07
 trial: gam= 0.49481 g(F)=  0.210E-01 g(S)=  0.000E+00 ort = 0.688E-04 (trialstep = 0.105E+01)
 search vector abs. value=  0.400E-01
 bond charge predicted
       N       E                     dE             d eps       ncg     rms          rms(c)
DAV:   1    -0.713330545445E+03    0.28627E-01   -0.10674E+01 10608   0.470E+00    0.546E-01
RMM:   2    -0.713364215920E+03   -0.33670E-01   -0.35689E-01 13088   0.122E+00    0.194E-01
RMM:   3    -0.713372237690E+03   -0.80218E-02   -0.84106E-02 15337   0.481E-01    0.219E-01
RMM:   4    -0.713372757245E+03   -0.51955E-03   -0.89702E-03 15465   0.155E-01    0.164E-01
RMM:   5    -0.713372505415E+03    0.25183E-03   -0.16238E-03 15376   0.594E-02    0.107E-01
RMM:   6    -0.713372330663E+03    0.17475E-03   -0.18564E-03 12419   0.537E-02    0.725E-02
RMM:   7    -0.713372267086E+03    0.63577E-04   -0.20994E-04 12192   0.228E-02    0.383E-02
RMM:   8    -0.713372249196E+03    0.17889E-04   -0.93159E-05  9602   0.122E-02    0.128E-02
RMM:   9    -0.713372248572E+03    0.62386E-06   -0.18845E-05  7782   0.735E-03
   8 F= -.71337225E+03 E0= -.71335566E+03  d E =-.130772E-01
 trial-energy change:   -0.013077  1 .order   -0.012660   -0.022115   -0.003205
 step:   1.2053(harm=  1.2287)  dis= 0.01216  next Energy=  -713.372486 (dE=-0.133E-01)
 bond charge predicted
       N       E                     dE             d eps       ncg     rms          rms(c)
DAV:   1    -0.713371694763E+03    0.55443E-03   -0.23289E-01 11616   0.695E-01    0.778E-02
RMM:   2    -0.713372432073E+03   -0.73731E-03   -0.78184E-03 13031   0.179E-01    0.284E-02
RMM:   3    -0.713372605741E+03   -0.17367E-03   -0.18653E-03 15298   0.713E-02    0.326E-02
RMM:   4    -0.713372617337E+03   -0.11597E-04   -0.19827E-04 12608   0.231E-02    0.254E-02
RMM:   5    -0.713372611497E+03    0.58407E-05   -0.45573E-05  9216   0.135E-02
   9 F= -.71337261E+03 E0= -.71335604E+03  d E =-.134401E-01
 curvature:  -1.15 expect dE=-0.160E-01 dE for cont linesearch -0.148E-04
 trial: gam= 0.64983 g(F)=  0.140E-01 g(S)=  0.000E+00 ort = 0.719E-03 (trialstep = 0.108E+01)
 search vector abs. value=  0.318E-01
 bond charge predicted
       N       E                     dE             d eps       ncg     rms          rms(c)
DAV:   1    -0.713347999570E+03    0.24618E-01   -0.91991E+00 10496   0.426E+00    0.517E-01
RMM:   2    -0.713374539660E+03   -0.26540E-01   -0.28227E-01 12587   0.107E+00    0.167E-01
RMM:   3    -0.713381702607E+03   -0.71629E-02   -0.74337E-02 15157   0.445E-01    0.214E-01
RMM:   4    -0.713382159741E+03   -0.45713E-03   -0.77879E-03 15288   0.142E-01    0.153E-01
RMM:   5    -0.713381917766E+03    0.24198E-03   -0.13677E-03 15392   0.540E-02    0.932E-02
RMM:   6    -0.713381822441E+03    0.95325E-04   -0.15714E-03 12246   0.485E-02    0.715E-02
RMM:   7    -0.713381759064E+03    0.63377E-04   -0.16903E-04 10788   0.204E-02    0.352E-02
RMM:   8    -0.713381745733E+03    0.13331E-04   -0.83946E-05  9446   0.116E-02    0.106E-02
RMM:   9    -0.713381745477E+03    0.25560E-06   -0.16844E-05  7335   0.719E-03
  10 F= -.71338175E+03 E0= -.71336540E+03  d E =-.913398E-02
 trial-energy change:   -0.009134  1 .order   -0.008800   -0.015606   -0.001993
 step:   1.2174(harm=  1.2399)  dis= 0.00859  next Energy=  -713.381871 (dE=-0.926E-02)
 bond charge predicted
       N       E                     dE             d eps       ncg     rms          rms(c)
DAV:   1    -0.713381414465E+03    0.33127E-03   -0.14650E-01 11520   0.539E-01    0.620E-02
RMM:   2    -0.713381841696E+03   -0.42723E-03   -0.45383E-03 12569   0.134E-01    0.208E-02
RMM:   3    -0.713381954061E+03   -0.11237E-03   -0.11846E-03 15061   0.558E-02    0.283E-02
RMM:   4    -0.713381960942E+03   -0.68808E-05   -0.12627E-04 12042   0.181E-02    0.205E-02
RMM:   5    -0.713381956478E+03    0.44636E-05   -0.26894E-05  8117   0.990E-03
  11 F= -.71338196E+03 E0= -.71336564E+03  d E =-.934498E-02
 curvature:  -1.34 expect dE=-0.960E-02 dE for cont linesearch -0.152E-04
 trial: gam= 0.49463 g(F)=  0.717E-02 g(S)=  0.000E+00 ort = 0.601E-03 (trialstep = 0.111E+01)
 search vector abs. value=  0.155E-01
 bond charge predicted
       N       E                     dE             d eps       ncg     rms          rms(c)
DAV:   1    -0.713367948697E+03    0.14012E-01   -0.47659E+00 10512   0.308E+00    0.367E-01
RMM:   2    -0.713382520829E+03   -0.14572E-01   -0.15472E-01 12878   0.780E-01    0.109E-01
RMM:   3    -0.713385780098E+03   -0.32593E-02   -0.35292E-02 15255   0.309E-01    0.111E-01
RMM:   4    -0.713385964889E+03   -0.18479E-03   -0.36530E-03 15275   0.991E-02    0.834E-02
RMM:   5    -0.713385850038E+03    0.11485E-03   -0.99274E-04 14674   0.447E-02    0.458E-02
RMM:   6    -0.713385864806E+03   -0.14768E-04   -0.23608E-04 11503   0.196E-02    0.382E-02
RMM:   7    -0.713385850817E+03    0.13989E-04   -0.52014E-05  9476   0.114E-02    0.192E-02
RMM:   8    -0.713385847685E+03    0.31314E-05   -0.32577E-05  8782   0.774E-03
  12 F= -.71338585E+03 E0= -.71336950E+03  d E =-.389121E-02
 trial-energy change:   -0.003891  1 .order   -0.003733   -0.008280    0.000814
 step:   1.0182(harm=  1.0095)  dis= 0.00509  next Energy=  -713.385881 (dE=-0.392E-02)
 bond charge predicted
       N       E                     dE             d eps       ncg     rms          rms(c)
DAV:   1    -0.713385742705E+03    0.10811E-03   -0.31556E-02 10664   0.251E-01    0.321E-02
RMM:   2    -0.713385838846E+03   -0.96141E-04   -0.10195E-03 12745   0.637E-02    0.948E-03
RMM:   3    -0.713385859957E+03   -0.21111E-04   -0.23212E-04 13095   0.257E-02    0.846E-03
RMM:   4    -0.713385861218E+03   -0.12614E-05   -0.27106E-05  7229   0.106E-02
  13 F= -.71338586E+03 E0= -.71336952E+03  d E =-.390474E-02
 curvature:  -1.04 expect dE=-0.259E-02 dE for cont linesearch -0.130E-04
 trial: gam= 0.36419 g(F)=  0.248E-02 g(S)=  0.000E+00 ort = 0.440E-03 (trialstep = 0.109E+01)
 search vector abs. value=  0.486E-02
 bond charge predicted
       N       E                     dE             d eps       ncg     rms          rms(c)
DAV:   1    -0.713381653328E+03    0.42066E-02   -0.13856E+00 10648   0.172E+00    0.187E-01
RMM:   2    -0.713386175475E+03   -0.45221E-02   -0.47577E-02 13299   0.446E-01    0.699E-02
RMM:   3    -0.713387179165E+03   -0.10037E-02   -0.10375E-02 15222   0.172E-01    0.981E-02
RMM:   4    -0.713387200945E+03   -0.21780E-04   -0.11741E-03 15249   0.574E-02    0.592E-02
RMM:   5    -0.713387128112E+03    0.72832E-04   -0.25936E-04 12959   0.244E-02    0.199E-02
RMM:   6    -0.713387128628E+03   -0.51599E-06   -0.14600E-04 10432   0.163E-02    0.209E-02
RMM:   7    -0.713387124288E+03    0.43407E-05   -0.26299E-05  8500   0.963E-03
  14 F= -.71338712E+03 E0= -.71337078E+03  d E =-.126307E-02
 trial-energy change:   -0.001263  1 .order   -0.001237   -0.002879    0.000406
 step:   0.9559(harm=  0.9559)  dis= 0.00224  next Energy=  -713.387123 (dE=-0.126E-02)
 bond charge predicted
       N       E                     dE             d eps       ncg     rms          rms(c)
DAV:   1    -0.713387048076E+03    0.80553E-04   -0.20604E-02 10904   0.209E-01    0.221E-02
RMM:   2    -0.713387114293E+03   -0.66217E-04   -0.69499E-04 13174   0.561E-02    0.897E-03
RMM:   3    -0.713387129320E+03   -0.15028E-04   -0.16291E-04 12834   0.222E-02    0.123E-02
RMM:   4    -0.713387129754E+03   -0.43310E-06   -0.22800E-05  6384   0.107E-02
  15 F= -.71338713E+03 E0= -.71337078E+03  d E =-.126854E-02
 curvature:  -0.88 expect dE=-0.740E-03 dE for cont linesearch -0.145E-04
 ZBRENT: interpolating
 opt :   1.0141  next Energy=  -713.387138 (dE=-0.128E-02)
 bond charge predicted
       N       E                     dE             d eps       ncg     rms          rms(c)
DAV:   1    -0.713387115978E+03    0.13343E-04   -0.39394E-03 11680   0.919E-02    0.107E-02
RMM:   2    -0.713387130738E+03   -0.14760E-04   -0.15328E-04 11452   0.238E-02    0.328E-03
RMM:   3    -0.713387132587E+03   -0.18490E-05   -0.28420E-05  6929   0.100E-02
  16 F= -.71338713E+03 E0= -.71337078E+03  d E =-.127137E-02
 curvature:  -0.50 expect dE=-0.475E-03 dE for cont linesearch -0.488E-05
 ZBRENT: interpolating
 opt :   0.9887  next Energy=  -713.387135 (dE=-0.127E-02)
 bond charge predicted
       N       E                     dE             d eps       ncg     rms          rms(c)
DAV:   1    -0.713387128321E+03    0.24168E-05   -0.71530E-04 10544   0.393E-02    0.627E-03
RMM:   2    -0.713387130947E+03   -0.26260E-05   -0.28382E-05  7308   0.109E-02
  17 F= -.71338713E+03 E0= -.71337078E+03  d E =-.126973E-02
 curvature:  -0.28 expect dE=-0.255E-03 dE for cont linesearch -0.517E-05
 ZBRENT: interpolating
 opt :   1.0034  next Energy=  -713.387134 (dE=-0.127E-02)
 bond charge predicted
       N       E                     dE             d eps       ncg     rms          rms(c)
DAV:   1    -0.713387132097E+03   -0.37765E-05   -0.22001E-04 10888   0.226E-02    0.329E-03
RMM:   2    -0.713387133212E+03   -0.11146E-05   -0.11361E-05  5635   0.756E-03
  18 F= -.71338713E+03 E0= -.71337078E+03  d E =-.127199E-02
 curvature:  -0.06 expect dE=-0.591E-04 dE for cont linesearch -0.337E-06
 trial: gam= 0.43282 g(F)=  0.929E-03 g(S)=  0.000E+00 ort =-0.161E-03 (trialstep = 0.107E+01)
 search vector abs. value=  0.170E-02
 bond charge predicted
       N       E                     dE             d eps       ncg     rms          rms(c)
DAV:   1    -0.713385856754E+03    0.12753E-02   -0.47343E-01 10456   0.994E-01    0.113E-01
RMM:   2    -0.713387341902E+03   -0.14851E-02   -0.15616E-02 13011   0.256E-01    0.517E-02
RMM:   3    -0.713387699529E+03   -0.35763E-03   -0.37285E-03 15257   0.102E-01    0.648E-02
RMM:   4    -0.713387688894E+03    0.10634E-04   -0.39414E-04 13826   0.336E-02    0.372E-02
RMM:   5    -0.713387678623E+03    0.10271E-04   -0.81344E-05 11057   0.166E-02    0.259E-02
RMM:   6    -0.713387667500E+03    0.11124E-04   -0.11302E-04 10479   0.147E-02    0.153E-02
RMM:   7    -0.713387664636E+03    0.28640E-05   -0.13559E-05  6292   0.723E-03
  19 F= -.71338766E+03 E0= -.71337136E+03  d E =-.531424E-03
 trial-energy change:   -0.000531  1 .order   -0.000483   -0.000922   -0.000044
 step:   1.1130(harm=  1.1267)  dis= 0.00152  next Energy=  -713.387665 (dE=-0.532E-03)
 bond charge predicted
       N       E                     dE             d eps       ncg     rms          rms(c)
DAV:   1    -0.713387661900E+03    0.56001E-05   -0.70509E-04 10959   0.393E-02    0.514E-03
RMM:   2    -0.713387664711E+03   -0.28111E-05   -0.30546E-05  6657   0.117E-02
  20 F= -.71338766E+03 E0= -.71337136E+03  d E =-.531499E-03
 curvature:  -1.04 expect dE=-0.395E-03 dE for cont linesearch -0.470E-05
 ZBRENT: interpolating
 opt :   1.0858  next Energy=  -713.387665 (dE=-0.532E-03)
 bond charge predicted
       N       E                     dE             d eps       ncg     rms          rms(c)
DAV:   1    -0.713387663276E+03   -0.13767E-05   -0.28926E-04 11124   0.251E-02    0.415E-03
RMM:   2    -0.713387664599E+03   -0.13223E-05   -0.13938E-05  5798   0.799E-03
  21 F= -.71338766E+03 E0= -.71337136E+03  d E =-.531387E-03
 curvature:  -0.06 expect dE=-0.217E-04 dE for cont linesearch -0.745E-06
 ZBRENT: interpolating
 opt :   1.1030  next Energy=  -713.387665 (dE=-0.532E-03)
 bond charge predicted
       N       E                     dE             d eps       ncg     rms          rms(c)
DAV:   1    -0.713387664389E+03   -0.11126E-05   -0.10358E-04  9150   0.168E-02    0.226E-03
RMM:   2    -0.713387665473E+03   -0.10836E-05   -0.10682E-05  5524   0.723E-03
  22 F= -.71338767E+03 E0= -.71337136E+03  d E =-.532261E-03
 curvature:  -0.03 expect dE=-0.131E-04 dE for cont linesearch -0.756E-07
 trial: gam= 0.39340 g(F)=  0.387E-03 g(S)=  0.000E+00 ort =-0.616E-04 (trialstep = 0.108E+01)
 search vector abs. value=  0.602E-03
 bond charge predicted
       N       E                     dE             d eps       ncg     rms          rms(c)
DAV:   1    -0.713387232222E+03    0.43217E-03   -0.16535E-01 10628   0.599E-01    0.650E-02
RMM:   2    -0.713387772570E+03   -0.54035E-03   -0.57389E-03 13243   0.159E-01    0.236E-02
RMM:   3    -0.713387895310E+03   -0.12274E-03   -0.13446E-03 15271   0.619E-02    0.236E-02
RMM:   4    -0.713387904092E+03   -0.87817E-05   -0.14783E-04 12429   0.207E-02    0.201E-02
RMM:   5    -0.713387896500E+03    0.75917E-05   -0.49073E-05  9820   0.138E-02
  23 F= -.71338790E+03 E0= -.71337161E+03  d E =-.231027E-03
 trial-energy change:   -0.000231  1 .order   -0.000204   -0.000392   -0.000017
 step:   1.1275(harm=  1.1275)  dis= 0.00107  next Energy=  -713.387870 (dE=-0.205E-03)
 bond charge predicted
       N       E                     dE             d eps       ncg     rms          rms(c)
DAV:   1    -0.713387896045E+03    0.80470E-05   -0.31421E-04 13792   0.323E-02    0.114E-02
RMM:   2    -0.713387897580E+03   -0.15357E-05   -0.17633E-05  6149   0.827E-03
  24 F= -.71338790E+03 E0= -.71337161E+03  d E =-.232108E-03
 curvature:  -0.93 expect dE=-0.234E-03 dE for cont linesearch -0.460E-05
 ZBRENT: interpolating
 opt :   1.0899  next Energy=  -713.387897 (dE=-0.231E-03)
 bond charge predicted
       N       E                     dE             d eps       ncg     rms          rms(c)
DAV:   1    -0.713387895992E+03    0.52445E-07   -0.18975E-04 11283   0.221E-02    0.407E-03
RMM:   2    -0.713387897019E+03   -0.10271E-05   -0.95947E-06  5598   0.701E-03
  25 F= -.71338790E+03 E0= -.71337160E+03  d E =-.231547E-03
 curvature:  -0.02 expect dE=-0.406E-05 dE for cont linesearch -0.746E-07
 ZBRENT: bisectioning
 opt :   1.1087  next Energy=  -713.387899 (dE=-0.233E-03)
 bond charge predicted
       N       E                     dE             d eps       ncg     rms          rms(c)
DAV:   1    -0.713387896520E+03   -0.52797E-06   -0.44883E-05  8872   0.110E-02    0.264E-03
RMM:   2    -0.713387896915E+03   -0.39474E-06   -0.43983E-06  5325   0.479E-03
  26 F= -.71338790E+03 E0= -.71337159E+03  d E =-.231442E-03
 curvature:  -0.35 expect dE=-0.843E-04 dE for cont linesearch -0.987E-06
 trial: gam= 0.73819 g(F)=  0.238E-03 g(S)=  0.000E+00 ort =-0.409E-04 (trialstep = 0.109E+01)
 search vector abs. value=  0.505E-03
 bond charge predicted
       N       E                     dE             d eps       ncg     rms          rms(c)
DAV:   1    -0.713387525166E+03    0.37135E-03   -0.13705E-01 10904   0.551E-01    0.580E-02
RMM:   2    -0.713387948911E+03   -0.42374E-03   -0.44306E-03 13091   0.142E-01    0.206E-02
RMM:   3    -0.713388058077E+03   -0.10917E-03   -0.11148E-03 15070   0.574E-02    0.230E-02
RMM:   4    -0.713388067610E+03   -0.95327E-05   -0.13270E-04 12495   0.199E-02    0.178E-02
RMM:   5    -0.713388065036E+03    0.25736E-05   -0.29269E-05  7954   0.115E-02
  27 F= -.71338807E+03 E0= -.71337177E+03  d E =-.168122E-03
 trial-energy change:   -0.000168  1 .order   -0.000136   -0.000225   -0.000047
 step:   1.3747(harm=  1.3747)  dis= 0.00143  next Energy=  -713.388039 (dE=-0.143E-03)
 bond charge predicted
       N       E                     dE             d eps       ncg     rms          rms(c)
DAV:   1    -0.713388041883E+03    0.25727E-04   -0.94108E-03 11720   0.145E-01    0.205E-02
RMM:   2    -0.713388069470E+03   -0.27587E-04   -0.30011E-04 12821   0.396E-02    0.790E-03
RMM:   3    -0.713388077512E+03   -0.80418E-05   -0.88015E-05 11582   0.166E-02
  28 F= -.71338808E+03 E0= -.71337178E+03  d E =-.180597E-03
 curvature:  -1.67 expect dE=-0.259E-03 dE for cont linesearch -0.106E-04
 ZBRENT: interpolating
 opt :   1.2114  next Energy=  -713.388068 (dE=-0.171E-03)
 bond charge predicted
       N       E                     dE             d eps       ncg     rms          rms(c)
DAV:   1    -0.713388057598E+03    0.11872E-04   -0.29909E-03 10998   0.820E-02    0.967E-03
RMM:   2    -0.713388068778E+03   -0.11180E-04   -0.11674E-04 11890   0.227E-02    0.368E-03
RMM:   3    -0.713388070526E+03   -0.17477E-05   -0.25970E-05  6663   0.103E-02
  29 F= -.71338807E+03 E0= -.71337179E+03  d E =-.173611E-03
 curvature:  -0.44 expect dE=-0.730E-04 dE for cont linesearch -0.165E-04
 ZBRENT: interpolating
 opt :   1.3273  next Energy=  -713.388079 (dE=-0.182E-03)
 bond charge predicted
       N       E                     dE             d eps       ncg     rms          rms(c)
DAV:   1    -0.713388069743E+03   -0.96555E-06   -0.14831E-03 10758   0.576E-02    0.752E-03
RMM:   2    -0.713388075899E+03   -0.61559E-05   -0.64375E-05  9635   0.159E-02
  30 F= -.71338808E+03 E0= -.71337178E+03  d E =-.178984E-03
 curvature:  -0.04 expect dE=-0.547E-05 dE for cont linesearch -0.432E-06
 ZBRENT: bisectioning
 opt :   1.2693  next Energy=  -713.388081 (dE=-0.184E-03)
 bond charge predicted
       N       E                     dE             d eps       ncg     rms          rms(c)
DAV:   1    -0.713388072666E+03   -0.29225E-05   -0.34690E-04 10410   0.282E-02    0.398E-03
RMM:   2    -0.713388074011E+03   -0.13454E-05   -0.14287E-05  5627   0.920E-03
  31 F= -.71338807E+03 E0= -.71337177E+03  d E =-.177096E-03
 curvature:  -0.44 expect dE=-0.699E-04 dE for cont linesearch -0.110E-04
 ZBRENT: interpolating
 opt :   1.3035  next Energy=  -713.388077 (dE=-0.180E-03)
 bond charge predicted
       N       E                     dE             d eps       ncg     rms          rms(c)
DAV:   1    -0.713388074924E+03   -0.22579E-05   -0.11653E-04 11040   0.171E-02    0.197E-03
RMM:   2    -0.713388075788E+03   -0.86445E-06   -0.86214E-06  5319   0.646E-03
  32 F= -.71338808E+03 E0= -.71337177E+03  d E =-.178873E-03
 curvature:  -0.04 expect dE=-0.513E-05 dE for cont linesearch -0.187E-11
 trial: gam= 0.45768 g(F)=  0.139E-03 g(S)=  0.000E+00 ort = 0.160E-06 (trialstep = 0.113E+01)
 search vector abs. value=  0.245E-03
 bond charge predicted
       N       E                     dE             d eps       ncg     rms          rms(c)
DAV:   1    -0.713387893040E+03    0.18188E-03   -0.71512E-02 10918   0.401E-01    0.411E-02
RMM:   2    -0.713388128907E+03   -0.23587E-03   -0.24740E-03 13232   0.107E-01    0.148E-02
RMM:   3    -0.713388184489E+03   -0.55583E-04   -0.58781E-04 14892   0.420E-02    0.203E-02
RMM:   4    -0.713388188186E+03   -0.36970E-05   -0.73502E-05 11217   0.152E-02
  33 F= -.71338819E+03 E0= -.71337191E+03  d E =-.112398E-03
 trial-energy change:   -0.000112  1 .order   -0.000074   -0.000157    0.000009
 step:   1.0646(harm=  1.0646)  dis= 0.00054  next Energy=  -713.388150 (dE=-0.739E-04)
 bond charge predicted
       N       E                     dE             d eps       ncg     rms          rms(c)
DAV:   1    -0.713388181636E+03    0.28535E-05   -0.25064E-04 12688   0.269E-02    0.815E-03
RMM:   2    -0.713388182332E+03   -0.69611E-06   -0.15409E-05  5951   0.787E-03
  34 F= -.71338818E+03 E0= -.71337190E+03  d E =-.106544E-03
 curvature:  -0.94 expect dE=-0.791E-04 dE for cont linesearch -0.223E-04
 ZBRENT: interpolating
 opt :   1.1224  next Energy=  -713.388188 (dE=-0.112E-03)
 bond charge predicted
       N       E                     dE             d eps       ncg     rms          rms(c)
DAV:   1    -0.713388183990E+03   -0.23539E-05   -0.17001E-04 11806   0.220E-02    0.536E-03
RMM:   2    -0.713388185576E+03   -0.15863E-05   -0.11684E-05  5764   0.755E-03
  35 F= -.71338819E+03 E0= -.71337188E+03  d E =-.109788E-03
 curvature:  -0.00 expect dE=-0.751E-07 dE for cont linesearch -0.391E-09
 trial: gam= 0.50355 g(F)=  0.672E-04 g(S)=  0.000E+00 ort = 0.925E-05 (trialstep = 0.113E+01)
 search vector abs. value=  0.139E-03
 bond charge predicted
       N       E                     dE             d eps       ncg     rms          rms(c)
DAV:   1    -0.713388102222E+03    0.81768E-04   -0.39423E-02 11016   0.299E-01    0.297E-02
RMM:   2    -0.713388225569E+03   -0.12335E-03   -0.12875E-03 13027   0.781E-02    0.101E-02
RMM:   3    -0.713388256276E+03   -0.30707E-04   -0.32822E-04 14110   0.317E-02    0.951E-03
RMM:   4    -0.713388259376E+03   -0.31004E-05   -0.41812E-05  8226   0.129E-02
  36 F= -.71338826E+03 E0= -.71337198E+03  d E =-.737999E-04
 trial-energy change:   -0.000074  1 .order   -0.000043   -0.000081   -0.000005
 step:   1.1985(harm=  1.1985)  dis= 0.00048  next Energy=  -713.388229 (dE=-0.430E-04)
 bond charge predicted
       N       E                     dE             d eps       ncg     rms          rms(c)
DAV:   1    -0.713388261587E+03   -0.53116E-05   -0.18004E-04 12984   0.216E-02    0.539E-03
RMM:   2    -0.713388262468E+03   -0.88096E-06   -0.81156E-06  5920   0.616E-03
  37 F= -.71338826E+03 E0= -.71337197E+03  d E =-.768921E-04
 curvature:  -1.16 expect dE=-0.435E-04 dE for cont linesearch -0.858E-05
 ZBRENT: increasing intervall
 opt :   1.3405  next Energy=  -713.388271 (dE=-0.854E-04)
 bond charge predicted
       N       E                     dE             d eps       ncg     rms          rms(c)
DAV:   1    -0.713388264809E+03   -0.32214E-05   -0.62701E-04 11498   0.386E-02    0.445E-03
RMM:   2    -0.713388267107E+03   -0.22986E-05   -0.25193E-05  6852   0.115E-02
  38 F= -.71338827E+03 E0= -.71337199E+03  d E =-.815311E-04
 curvature:  -1.15 expect dE=-0.440E-04 dE for cont linesearch -0.151E-06
 trial: gam= 0.61429 g(F)=  0.384E-04 g(S)=  0.000E+00 ort = 0.428E-05 (trialstep = 0.117E+01)
 search vector abs. value=  0.959E-04
 bond charge predicted
       N       E                     dE             d eps       ncg     rms          rms(c)
DAV:   1    -0.713388200593E+03    0.64215E-04   -0.29276E-02 11096   0.258E-01    0.258E-02
RMM:   2    -0.713388293151E+03   -0.92557E-04   -0.95581E-04 13028   0.678E-02    0.146E-02
RMM:   3    -0.713388316401E+03   -0.23250E-04   -0.24716E-04 13329   0.276E-02    0.161E-02
RMM:   4    -0.713388316800E+03   -0.39969E-06   -0.34307E-05  7464   0.127E-02
  39 F= -.71338832E+03 E0= -.71337205E+03  d E =-.496932E-04
 trial-energy change:   -0.000050  1 .order   -0.000024   -0.000048    0.000000
 step:   1.1699(harm=  1.1699)  dis= 0.00044  next Energy=  -713.388291 (dE=-0.240E-04)
 bond charge predicted
       N       E                     dE             d eps       ncg     rms          rms(c)
DAV:   1    -0.713388315822E+03    0.57874E-06   -0.79964E-06  6911   0.987E-03    0.326E-03
RMM:   2    -0.713388316251E+03   -0.42941E-06   -0.61039E-06  5789   0.554E-03
  40 F= -.71338832E+03 E0= -.71337205E+03  d E =-.491442E-04
 curvature:  -1.37 expect dE=-0.419E-04 dE for cont linesearch -0.916E-05
 ZBRENT: interpolating
 opt :   1.1701  next Energy=  -713.388317 (dE=-0.497E-04)
 bond charge predicted
       N       E                     dE             d eps       ncg     rms          rms(c)
DAV:   1    -0.713388316320E+03   -0.49780E-06   -0.16921E-06  7064   0.779E-03    0.154E-03
RMM:   2    -0.713388316515E+03   -0.19559E-06   -0.17882E-06  5226   0.253E-03
  41 F= -.71338832E+03 E0= -.71337205E+03  d E =-.494082E-04
 curvature:  -0.00 expect dE=-0.106E-14 dE for cont linesearch -0.271E-15
 ZBRENT: interpolating
 opt :   1.1701  next Energy=  -713.388317 (dE=-0.497E-04)
 bond charge predicted
       N       E                     dE             d eps       ncg     rms          rms(c)
DAV:   1    -0.713388316519E+03   -0.19943E-06   -0.56080E-07  5592   0.338E-03    0.634E-04
RMM:   2    -0.713388316533E+03   -0.13846E-07   -0.11631E-07  2122   0.919E-04
  42 F= -.71338832E+03 E0= -.71337205E+03  d E =-.494259E-04
 curvature:  -0.00 expect dE=-0.274E-18 dE for cont linesearch -0.742E-19
 ZBRENT:  accuracy reached
 opt :   0.0000  next Energy=     0.000000 (dE= 0.713E+03)
 bond charge predicted
       N       E                     dE             d eps       ncg     rms          rms(c)
DAV:   1    -0.713388156843E+03    0.15968E-03   -0.29131E-02 11080   0.257E-01    0.253E-02
RMM:   2    -0.713388244819E+03   -0.87975E-04   -0.91639E-04 12972   0.658E-02    0.109E-02
RMM:   3    -0.713388267411E+03   -0.22592E-04   -0.23322E-04 13189   0.269E-02    0.148E-02
RMM:   4    -0.713388268104E+03   -0.69336E-06   -0.32480E-05  7134   0.123E-02
  43 F= -.71338827E+03 E0= -.71337200E+03  d E =-.996894E-06
 curvature:   0.00 expect dE= 0.000E+00 dE for cont linesearch  0.000E+00
 -----------------------------------------------------------------------------
|                                                                             |
|     EEEEEEE  RRRRRR   RRRRRR   OOOOOOO  RRRRRR      ###     ###     ###     |
|     E        R     R  R     R  O     O  R     R     ###     ###     ###     |
|     E        R     R  R     R  O     O  R     R     ###     ###     ###     |
|     EEEEE    RRRRRR   RRRRRR   O     O  RRRRRR       #       #       #      |
|     E        R   R    R   R    O     O  R   R                               |
|     E        R    R   R    R   O     O  R    R      ###     ###     ###     |
|     EEEEEEE  R     R  R     R  OOOOOOO  R     R     ###     ###     ###     |
|                                                                             |
|     ZBRENT: fatal error in bracketing                                       |
|      please rerun with smaller EDIFF, or copy CONTCAR                       |
|      to POSCAR and continue                                                 |
|                                                                             |
|       ---->  I REFUSE TO CONTINUE WITH THIS SICK JOB ... BYE!!! <----       |
|                                                                             |
 -----------------------------------------------------------------------------

Warning: ieee_invalid is signaling
Warning: ieee_divide_by_zero is signaling
Warning: ieee_underflow is signaling
Warning: ieee_inexact is signaling
    1
Warning: ieee_invalid is signaling
Warning: ieee_divide_by_zero is signaling
Warning: ieee_underflow is signaling
Warning: ieee_inexact is signaling
    1
Warning: ieee_invalid is signaling
Warning: ieee_divide_by_zero is signaling
Warning: ieee_underflow is signaling
Warning: ieee_inexact is signaling
    1
Warning: ieee_invalid is signaling
Warning: ieee_divide_by_zero is signaling
Warning: ieee_underflow is signaling
Warning: ieee_inexact is signaling
    1
--------------------------------------------------------------------------
Primary job  terminated normally, but 1 process returned
a non-zero exit code. Per user-direction, the job has been aborted.
--------------------------------------------------------------------------
--------------------------------------------------------------------------
mpirun detected that one or more processes exited with non-zero status, thus causing
the job to be terminated. The first process to do so was:

  Process name: [[28502,1],0]
  Exit code:    1
--------------------------------------------------------------------------
