<?xml version="1.0" encoding="ISO-8859-1"?>
<modeling>
 <generator>
  <i name="program" type="string">vasp </i>
  <i name="version" type="string">6.4.2  </i>
  <i name="subversion" type="string">20Jul23 (build Nov 12 2023 22:16:35) complex                          parallel </i>
  <i name="platform" type="string">LinuxNV </i>
  <i name="date" type="string">2025 03 22 </i>
  <i name="time" type="string">10:42:54 </i>
 </generator>
 <incar>
  <i type="int" name="ISTART">     0</i>
  <i type="string" name="PREC">Normal</i>
  <i type="string" name="ALGO">Fast</i>
  <i type="int" name="ISPIN">     1</i>
  <i type="int" name="ICHARG">     2</i>
  <i type="int" name="IBRION">     2</i>
  <i name="EDIFF">      0.00001000</i>
  <i name="EDIFFG">     -0.00500000</i>
  <i type="int" name="NSW">   300</i>
  <i type="int" name="ISIF">     2</i>
  <i name="ENCUT">    450.00000000</i>
  <i type="string" name="LREAL">Auto</i>
  <i type="logical" name="LPLANE"> T  </i>
  <i type="int" name="ISMEAR">     0</i>
  <i name="SIGMA">      0.05000000</i>
  <i type="logical" name="LWAVE"> F  </i>
  <i type="logical" name="LCHARG"> F  </i>
 </incar>
 <primitive_cell>
  <structure name="primitive_cell" >
   <crystal>
    <varray name="basis" >
     <v>       0.00000000      12.28047342       0.00000000 </v>
     <v>       9.14270205       0.00000000       0.00000000 </v>
     <v>       0.00000000      -2.76826177     -11.30069772 </v>
    </varray>
    <i name="volume">   1268.80515525 </i>
    <varray name="rec_basis" >
     <v>       0.00000000       0.08143009      -0.01994742 </v>
     <v>       0.10937686      -0.00000000       0.00000000 </v>
     <v>       0.00000000       0.00000000      -0.08849011 </v>
    </varray>
   </crystal>
   <varray name="positions" >
    <v>       0.65883830       0.00000000       0.15736517 </v>
    <v>       0.65883830       0.00000000       0.65736517 </v>
    <v>       0.65883830       0.33333333       0.15736517 </v>
    <v>       0.65883830       0.33333333       0.65736517 </v>
    <v>       0.65883830       0.66666667       0.15736517 </v>
    <v>       0.65883830       0.66666667       0.65736517 </v>
    <v>       0.84116170       0.16666667       0.34263483 </v>
    <v>       0.84116170       0.16666667       0.84263483 </v>
    <v>       0.84116170       0.50000000       0.34263483 </v>
    <v>       0.84116170       0.50000000       0.84263483 </v>
    <v>       0.84116170       0.83333333       0.34263483 </v>
    <v>       0.84116170       0.83333333       0.84263483 </v>
    <v>       0.59047440       0.16666667       0.39739300 </v>
    <v>       0.59047440       0.16666667       0.89739300 </v>
    <v>       0.59047440       0.50000000       0.39739300 </v>
    <v>       0.59047440       0.50000000       0.89739300 </v>
    <v>       0.59047440       0.83333333       0.39739300 </v>
    <v>       0.59047440       0.83333333       0.89739300 </v>
    <v>       0.90952560       0.00000000       0.10260700 </v>
    <v>       0.90952560       0.00000000       0.60260700 </v>
    <v>       0.90952560       0.33333333       0.10260700 </v>
    <v>       0.90952560       0.33333333       0.60260700 </v>
    <v>       0.90952560       0.66666667       0.10260700 </v>
    <v>       0.90952560       0.66666667       0.60260700 </v>
    <v>       0.15883830       0.16666667       0.15736517 </v>
    <v>       0.15883830       0.16666667       0.65736517 </v>
    <v>       0.15883830       0.50000000       0.15736517 </v>
    <v>       0.15883830       0.50000000       0.65736517 </v>
    <v>       0.15883830       0.83333333       0.15736517 </v>
    <v>       0.15883830       0.83333333       0.65736517 </v>
    <v>       0.34116170       0.00000000       0.34263483 </v>
    <v>       0.34116170       0.00000000       0.84263483 </v>
    <v>       0.34116170       0.33333333       0.34263483 </v>
    <v>       0.34116170       0.33333333       0.84263483 </v>
    <v>       0.34116170       0.66666667       0.34263483 </v>
    <v>       0.34116170       0.66666667       0.84263483 </v>
    <v>       0.09047440       0.00000000       0.39739300 </v>
    <v>       0.09047440       0.00000000       0.89739300 </v>
    <v>       0.09047440       0.33333333       0.39739300 </v>
    <v>       0.09047440       0.33333333       0.89739300 </v>
    <v>       0.09047440       0.66666667       0.39739300 </v>
    <v>       0.09047440       0.66666667       0.89739300 </v>
    <v>       0.40952560       0.16666667       0.10260700 </v>
    <v>       0.40952560       0.16666667       0.60260700 </v>
    <v>       0.40952560       0.50000000       0.10260700 </v>
    <v>       0.40952560       0.50000000       0.60260700 </v>
    <v>       0.40952560       0.83333333       0.10260700 </v>
    <v>       0.40952560       0.83333333       0.60260700 </v>
    <v>       0.99646913       0.16666667       0.12833205 </v>
    <v>       0.99646913       0.16666667       0.62833205 </v>
    <v>       0.99646913       0.50000000       0.12833205 </v>
    <v>       0.99646913       0.50000000       0.62833205 </v>
    <v>       0.99646913       0.83333333       0.12833205 </v>
    <v>       0.99646913       0.83333333       0.62833205 </v>
    <v>       0.50353087       0.00000000       0.37166795 </v>
    <v>       0.50353087       0.00000000       0.87166795 </v>
    <v>       0.50353087       0.33333333       0.37166795 </v>
    <v>       0.50353087       0.33333333       0.87166795 </v>
    <v>       0.50353087       0.66666667       0.37166795 </v>
    <v>       0.50353087       0.66666667       0.87166795 </v>
    <v>       0.67337106       0.16666667       0.28161508 </v>
    <v>       0.67337106       0.16666667       0.78161508 </v>
    <v>       0.67337106       0.50000000       0.28161508 </v>
    <v>       0.67337106       0.50000000       0.78161508 </v>
    <v>       0.67337106       0.83333333       0.28161508 </v>
    <v>       0.67337106       0.83333333       0.78161508 </v>
    <v>       0.82662894       0.00000000       0.21838492 </v>
    <v>       0.82662894       0.00000000       0.71838492 </v>
    <v>       0.82662894       0.33333333       0.21838492 </v>
    <v>       0.82662894       0.33333333       0.71838492 </v>
    <v>       0.82662894       0.66666667       0.21838492 </v>
    <v>       0.82662894       0.66666667       0.71838492 </v>
    <v>       0.83549502       0.00000000       0.44542296 </v>
    <v>       0.83549502       0.00000000       0.94542296 </v>
    <v>       0.83549502       0.33333333       0.44542296 </v>
    <v>       0.83549502       0.33333333       0.94542296 </v>
    <v>       0.83549502       0.66666667       0.44542296 </v>
    <v>       0.83549502       0.66666667       0.94542296 </v>
    <v>       0.66450498       0.16666667       0.05457704 </v>
    <v>       0.66450498       0.16666667       0.55457704 </v>
    <v>       0.66450498       0.50000000       0.05457704 </v>
    <v>       0.66450498       0.50000000       0.55457704 </v>
    <v>       0.66450498       0.83333333       0.05457704 </v>
    <v>       0.66450498       0.83333333       0.55457704 </v>
    <v>       0.49646913       0.00000000       0.12833205 </v>
    <v>       0.49646913       0.00000000       0.62833205 </v>
    <v>       0.49646913       0.33333333       0.12833205 </v>
    <v>       0.49646913       0.33333333       0.62833205 </v>
    <v>       0.49646913       0.66666667       0.12833205 </v>
    <v>       0.49646913       0.66666667       0.62833205 </v>
    <v>       0.00353087       0.16666667       0.37166795 </v>
    <v>       0.00353087       0.16666667       0.87166795 </v>
    <v>       0.00353087       0.50000000       0.37166795 </v>
    <v>       0.00353087       0.50000000       0.87166795 </v>
    <v>       0.00353087       0.83333333       0.37166795 </v>
    <v>       0.00353087       0.83333333       0.87166795 </v>
    <v>       0.17337106       0.00000000       0.78161508 </v>
    <v>       0.17337106       0.33333333       0.28161508 </v>
    <v>       0.17337106       0.33333333       0.78161508 </v>
    <v>       0.17337106       0.66666667       0.28161508 </v>
    <v>       0.17337106       0.66666667       0.78161508 </v>
    <v>       0.32662894       0.16666667       0.21838492 </v>
    <v>       0.32662894       0.16666667       0.71838492 </v>
    <v>       0.32662894       0.50000000       0.21838492 </v>
    <v>       0.32662894       0.50000000       0.71838492 </v>
    <v>       0.32662894       0.83333333       0.21838492 </v>
    <v>       0.32662894       0.83333333       0.71838492 </v>
    <v>       0.33549502       0.16666667       0.44542296 </v>
    <v>       0.33549502       0.16666667       0.94542296 </v>
    <v>       0.33549502       0.50000000       0.44542296 </v>
    <v>       0.33549502       0.50000000       0.94542296 </v>
    <v>       0.33549502       0.83333333       0.44542296 </v>
    <v>       0.33549502       0.83333333       0.94542296 </v>
    <v>       0.16450498       0.00000000       0.05457704 </v>
    <v>       0.16450498       0.00000000       0.55457704 </v>
    <v>       0.16450498       0.33333333       0.05457704 </v>
    <v>       0.16450498       0.33333333       0.55457704 </v>
    <v>       0.16450498       0.66666667       0.05457704 </v>
    <v>       0.16450498       0.66666667       0.55457704 </v>
    <v>       0.17337106       0.00000000       0.28161508 </v>
   </varray>
  </structure>
  <varray name="primitive_index" >
   <v type="int" >        1 </v>
   <v type="int" >        2 </v>
   <v type="int" >        3 </v>
   <v type="int" >        4 </v>
   <v type="int" >        5 </v>
   <v type="int" >        6 </v>
   <v type="int" >        7 </v>
   <v type="int" >        8 </v>
   <v type="int" >        9 </v>
   <v type="int" >       10 </v>
   <v type="int" >       11 </v>
   <v type="int" >       12 </v>
   <v type="int" >       13 </v>
   <v type="int" >       14 </v>
   <v type="int" >       15 </v>
   <v type="int" >       16 </v>
   <v type="int" >       17 </v>
   <v type="int" >       18 </v>
   <v type="int" >       19 </v>
   <v type="int" >       20 </v>
   <v type="int" >       21 </v>
   <v type="int" >       22 </v>
   <v type="int" >       23 </v>
   <v type="int" >       24 </v>
   <v type="int" >       25 </v>
   <v type="int" >       26 </v>
   <v type="int" >       27 </v>
   <v type="int" >       28 </v>
   <v type="int" >       29 </v>
   <v type="int" >       30 </v>
   <v type="int" >       31 </v>
   <v type="int" >       32 </v>
   <v type="int" >       33 </v>
   <v type="int" >       34 </v>
   <v type="int" >       35 </v>
   <v type="int" >       36 </v>
   <v type="int" >       37 </v>
   <v type="int" >       38 </v>
   <v type="int" >       39 </v>
   <v type="int" >       40 </v>
   <v type="int" >       41 </v>
   <v type="int" >       42 </v>
   <v type="int" >       43 </v>
   <v type="int" >       44 </v>
   <v type="int" >       45 </v>
   <v type="int" >       46 </v>
   <v type="int" >       47 </v>
   <v type="int" >       48 </v>
   <v type="int" >       49 </v>
   <v type="int" >       50 </v>
   <v type="int" >       51 </v>
   <v type="int" >       52 </v>
   <v type="int" >       53 </v>
   <v type="int" >       54 </v>
   <v type="int" >       55 </v>
   <v type="int" >       56 </v>
   <v type="int" >       57 </v>
   <v type="int" >       58 </v>
   <v type="int" >       59 </v>
   <v type="int" >       60 </v>
   <v type="int" >       61 </v>
   <v type="int" >       62 </v>
   <v type="int" >       63 </v>
   <v type="int" >       64 </v>
   <v type="int" >       65 </v>
   <v type="int" >       66 </v>
   <v type="int" >       67 </v>
   <v type="int" >       68 </v>
   <v type="int" >       69 </v>
   <v type="int" >       70 </v>
   <v type="int" >       71 </v>
   <v type="int" >       72 </v>
   <v type="int" >       73 </v>
   <v type="int" >       74 </v>
   <v type="int" >       75 </v>
   <v type="int" >       76 </v>
   <v type="int" >       77 </v>
   <v type="int" >       78 </v>
   <v type="int" >       79 </v>
   <v type="int" >       80 </v>
   <v type="int" >       81 </v>
   <v type="int" >       82 </v>
   <v type="int" >       83 </v>
   <v type="int" >       84 </v>
   <v type="int" >       85 </v>
   <v type="int" >       86 </v>
   <v type="int" >       87 </v>
   <v type="int" >       88 </v>
   <v type="int" >       89 </v>
   <v type="int" >       90 </v>
   <v type="int" >       91 </v>
   <v type="int" >       92 </v>
   <v type="int" >       93 </v>
   <v type="int" >       94 </v>
   <v type="int" >       95 </v>
   <v type="int" >       96 </v>
   <v type="int" >       97 </v>
   <v type="int" >       98 </v>
   <v type="int" >       99 </v>
   <v type="int" >      100 </v>
   <v type="int" >      101 </v>
   <v type="int" >      102 </v>
   <v type="int" >      103 </v>
   <v type="int" >      104 </v>
   <v type="int" >      105 </v>
   <v type="int" >      106 </v>
   <v type="int" >      107 </v>
   <v type="int" >      108 </v>
   <v type="int" >      109 </v>
   <v type="int" >      110 </v>
   <v type="int" >      111 </v>
   <v type="int" >      112 </v>
   <v type="int" >      113 </v>
   <v type="int" >      114 </v>
   <v type="int" >      115 </v>
   <v type="int" >      116 </v>
   <v type="int" >      117 </v>
   <v type="int" >      118 </v>
   <v type="int" >      119 </v>
   <v type="int" >      120 </v>
  </varray>
 </primitive_cell>
 <kpoints>
  <generation param="Gamma">
   <v type="int" name="divisions">       2        2        2 </v>
   <v name="usershift">      0.00000000       0.00000000       0.00000000 </v>
   <v name="genvec1">      0.50000000       0.00000000       0.00000000 </v>
   <v name="genvec2">      0.00000000       0.50000000       0.00000000 </v>
   <v name="genvec3">      0.00000000       0.00000000       0.50000000 </v>
   <v name="shift">      0.00000000       0.00000000       0.00000000 </v>
  </generation>
  <varray name="kpointlist" >
   <v>       0.00000000       0.00000000       0.00000000 </v>
   <v>       0.50000000       0.00000000       0.00000000 </v>
   <v>       0.00000000       0.50000000       0.00000000 </v>
   <v>       0.50000000       0.50000000       0.00000000 </v>
   <v>       0.00000000       0.00000000       0.50000000 </v>
   <v>       0.50000000       0.00000000       0.50000000 </v>
   <v>       0.00000000       0.50000000       0.50000000 </v>
   <v>       0.50000000       0.50000000       0.50000000 </v>
  </varray>
  <varray name="weights" >
   <v>       0.12500000 </v>
   <v>       0.12500000 </v>
   <v>       0.12500000 </v>
   <v>       0.12500000 </v>
   <v>       0.12500000 </v>
   <v>       0.12500000 </v>
   <v>       0.12500000 </v>
   <v>       0.12500000 </v>
  </varray>
 </kpoints>
 <parameters>
  <separator name="general" >
   <i type="string" name="SYSTEM">unknown system</i>
   <i type="logical" name="LCOMPAT"> F  </i>
  </separator>
  <separator name="electronic" >
   <i type="string" name="PREC">normal</i>
   <i name="ENMAX">    450.00000000</i>
   <i name="ENAUG">    627.11200000</i>
   <i name="EDIFF">      0.00001000</i>
   <i type="int" name="IALGO">    68</i>
   <i type="int" name="IWAVPR">    11</i>
   <i type="int" name="NBANDS">   633</i>
   <i type="int" name="NBANDSLOW">    -1</i>
   <i type="int" name="NBANDSHIGH">    -1</i>
   <i name="NELECT">   1055.00000000</i>
   <i type="int" name="TURBO">     0</i>
   <i type="int" name="IRESTART">     0</i>
   <i type="int" name="NREBOOT">     0</i>
   <i type="int" name="NMIN">     0</i>
   <i name="EREF">      0.00000000</i>
   <separator name="electronic smearing" >
    <i type="int" name="ISMEAR">     0</i>
    <i name="SIGMA">      0.05000000</i>
    <i name="KSPACING">      0.50000000</i>
    <i type="logical" name="KGAMMA"> T  </i>
    <i type="logical" name="KBLOWUP"> T  </i>
   </separator>
   <separator name="electronic projectors" >
    <i type="logical" name="LREAL"> T  </i>
    <v name="ROPT">     -0.00050000     -0.00050000     -0.00050000</v>
    <i type="int" name="LMAXPAW">  -100</i>
    <i type="int" name="LMAXMIX">     2</i>
    <i type="logical" name="NLSPLINE"> F  </i>
   </separator>
   <separator name="electronic startup" >
    <i type="int" name="ISTART">     0</i>
    <i type="int" name="ICHARG">     2</i>
    <i type="int" name="INIWAV">     1</i>
   </separator>
   <separator name="electronic spin" >
    <i type="int" name="ISPIN">     1</i>
    <i type="logical" name="LNONCOLLINEAR"> F  </i>
    <v name="MAGMOM">      1.00000000      1.00000000      1.00000000      1.00000000      1.00000000      1.00000000      1.00000000      1.00000000      1.00000000      1.00000000      1.00000000      1.00000000      1.00000000      1.00000000      1.00000000      1.00000000      1.00000000      1.00000000      1.00000000      1.00000000
      1.00000000      1.00000000      1.00000000      1.00000000      1.00000000      1.00000000      1.00000000      1.00000000      1.00000000      1.00000000      1.00000000      1.00000000      1.00000000      1.00000000      1.00000000      1.00000000      1.00000000      1.00000000      1.00000000      1.00000000
      1.00000000      1.00000000      1.00000000      1.00000000      1.00000000      1.00000000      1.00000000      1.00000000      1.00000000      1.00000000      1.00000000      1.00000000      1.00000000      1.00000000      1.00000000      1.00000000      1.00000000      1.00000000      1.00000000      1.00000000
      1.00000000      1.00000000      1.00000000      1.00000000      1.00000000      1.00000000      1.00000000      1.00000000      1.00000000      1.00000000      1.00000000      1.00000000      1.00000000      1.00000000      1.00000000      1.00000000      1.00000000      1.00000000      1.00000000      1.00000000
      1.00000000      1.00000000      1.00000000      1.00000000      1.00000000      1.00000000      1.00000000      1.00000000      1.00000000      1.00000000      1.00000000      1.00000000      1.00000000      1.00000000      1.00000000      1.00000000      1.00000000      1.00000000      1.00000000      1.00000000
      1.00000000      1.00000000      1.00000000      1.00000000      1.00000000      1.00000000      1.00000000      1.00000000      1.00000000      1.00000000      1.00000000      1.00000000      1.00000000      1.00000000      1.00000000      1.00000000      1.00000000      1.00000000      1.00000000      1.00000000
</v>
    <i name="NUPDOWN">     -1.00000000</i>
    <i type="logical" name="LSORBIT"> F  </i>
    <v name="SAXIS">      0.00000000      0.00000000      1.00000000</v>
    <i type="logical" name="LSPIRAL"> F  </i>
    <v name="QSPIRAL">      0.00000000      0.00000000      0.00000000</v>
    <i type="logical" name="LZEROZ"> F  </i>
   </separator>
   <separator name="electronic exchange-correlation" >
    <i type="logical" name="LASPH"> F  </i>
    <i type="logical" name="LMETAGGA"> F  </i>
   </separator>
   <separator name="electronic convergence" >
    <i type="int" name="NELM">    60</i>
    <i type="int" name="NELMDL">    -5</i>
    <i type="int" name="NELMIN">     2</i>
    <i name="ENINI">    450.00000000</i>
    <separator name="electronic convergence detail" >
     <i type="logical" name="LDIAG"> T  </i>
     <i type="logical" name="LSUBROT"> F  </i>
     <i name="WEIMIN">      0.00100000</i>
     <i name="EBREAK">      0.00000000</i>
     <i name="DEPER">      0.30000000</i>
     <i type="int" name="NRMM">     4</i>
     <i name="TIME">      0.40000000</i>
    </separator>
   </separator>
   <separator name="electronic mixer" >
    <i name="AMIX">      0.40000000</i>
    <i name="BMIX">      1.00000000</i>
    <i name="AMIN">      0.10000000</i>
    <i name="AMIX_MAG">      1.60000000</i>
    <i name="BMIX_MAG">      1.00000000</i>
    <separator name="electronic mixer details" >
     <i type="int" name="IMIX">     4</i>
     <i type="logical" name="MIXFIRST"> F  </i>
     <i type="int" name="MAXMIX">   -45</i>
     <i name="WC">    100.00000000</i>
     <i type="int" name="INIMIX">     1</i>
     <i type="int" name="MIXPRE">     1</i>
     <i type="int" name="MREMOVE">     5</i>
    </separator>
   </separator>
   <separator name="electronic dipolcorrection" >
    <i type="logical" name="LDIPOL"> F  </i>
    <i type="logical" name="LMONO"> F  </i>
    <i type="int" name="IDIPOL">     0</i>
    <i name="EPSILON">      1.00000000</i>
    <v name="DIPOL">   -100.00000000   -100.00000000   -100.00000000</v>
    <i name="EFIELD">      0.00000000</i>
   </separator>
  </separator>
  <separator name="grids" >
   <i type="int" name="NGX">    64</i>
   <i type="int" name="NGY">    48</i>
   <i type="int" name="NGZ">    60</i>
   <i type="int" name="NGXF">   128</i>
   <i type="int" name="NGYF">    96</i>
   <i type="int" name="NGZF">   120</i>
   <i type="logical" name="ADDGRID"> F  </i>
  </separator>
  <separator name="ionic" >
   <i type="int" name="NSW">   300</i>
   <i type="int" name="IBRION">     2</i>
   <i type="int" name="MDALGO">     0</i>
   <i type="int" name="ISIF">     2</i>
   <i name="PSTRESS">      0.00000000</i>
   <i name="EDIFFG">     -0.00500000</i>
   <i type="int" name="NFREE">     1</i>
   <i name="POTIM">      0.50000000</i>
   <i name="SMASS">     -3.00000000</i>
   <i name="SCALEE">      1.00000000</i>
  </separator>
  <separator name="ionic md" >
   <i name="TEBEG">      0.00010000</i>
   <i name="TEEND">      0.00010000</i>
   <i type="int" name="NBLOCK">     1</i>
   <i type="int" name="KBLOCK">   300</i>
   <i type="int" name="NPACO">   256</i>
   <i name="APACO">     10.00000000</i>
  </separator>
  <separator name="symmetry" >
   <i type="int" name="ISYM">     2</i>
   <i name="SYMPREC">      0.00001000</i>
  </separator>
  <separator name="dos" >
   <i type="int" name="LORBIT">     0</i>
   <v name="RWIGS">     -1.00000000     -1.00000000     -1.00000000</v>
   <i type="int" name="NEDOS">   301</i>
   <i name="EMIN">     10.00000000</i>
   <i name="EMAX">    -10.00000000</i>
   <i name="EFERMI">      0.00000000</i>
  </separator>
  <separator name="writing" >
   <i type="int" name="NWRITE">     2</i>
   <i type="logical" name="LWAVE"> F  </i>
   <i type="logical" name="LDOWNSAMPLE"> F  </i>
   <i type="logical" name="LCHARG"> F  </i>
   <i type="logical" name="LPARD"> F  </i>
   <i type="logical" name="LVTOT"> F  </i>
   <i type="logical" name="LVHAR"> F  </i>
   <i type="logical" name="LELF"> F  </i>
   <i type="logical" name="LOPTICS"> F  </i>
   <v name="STM">      0.00000000      0.00000000      0.00000000      0.00000000      0.00000000      0.00000000      0.00000000</v>
  </separator>
  <separator name="performance" >
   <i type="int" name="NPAR">     1</i>
   <i type="int" name="NSIM">     4</i>
   <i type="int" name="NBLK">    -1</i>
   <i type="logical" name="LPLANE"> T  </i>
   <i type="logical" name="LSCALAPACK"> T  </i>
   <i type="logical" name="LSCAAWARE"> F  </i>
   <i type="logical" name="LSCALU"> F  </i>
   <i type="logical" name="LASYNC"> F  </i>
   <i type="logical" name="LORBITALREAL"> F  </i>
  </separator>
  <separator name="miscellaneous" >
   <i type="int" name="IDIOT">     3</i>
   <i type="int" name="PHON_NSTRUCT">    -1</i>
   <i type="logical" name="LMUSIC"> F  </i>
   <v name="POMASS">     69.72300000     16.00000000     14.00100000</v>
   <v name="DARWINR">      0.00000000      0.00000000      0.00000000</v>
   <v name="DARWINV">      1.00000000      1.00000000      1.00000000</v>
   <i type="logical" name="LCORR"> T  </i>
  </separator>
  <i type="logical" name="GGA_COMPAT"> T  </i>
  <i type="logical" name="LBERRY"> F  </i>
  <i type="int" name="ICORELEVEL">     0</i>
  <i type="logical" name="LDAU"> F  </i>
  <i type="int" name="I_CONSTRAINED_M">     0</i>
  <separator name="electronic exchange-correlation" >
   <i type="string" name="GGA">--</i>
   <i type="int" name="VOSKOWN">     0</i>
   <i type="logical" name="LHFCALC"> F  </i>
   <i type="string" name="PRECFOCK"></i>
   <i type="logical" name="LSYMGRAD"> F  </i>
   <i type="logical" name="LHFONE"> F  </i>
   <i type="logical" name="LRHFCALC"> F  </i>
   <i type="logical" name="LTHOMAS"> F  </i>
   <i type="logical" name="LMODELHF"> F  </i>
   <i type="logical" name="LFOCKACE"> F  </i>
   <i name="ENCUT4O">     -1.00000000</i>
   <i type="int" name="EXXOEP">     0</i>
   <i type="int" name="FOURORBIT">     0</i>
   <i name="AEXX">      0.00000000</i>
   <i name="HFALPHA">      0.00000000</i>
   <i name="MCALPHA">      0.00000000</i>
   <i name="ALDAX">      1.00000000</i>
   <i name="AGGAX">      1.00000000</i>
   <i name="ALDAC">      1.00000000</i>
   <i name="AGGAC">      1.00000000</i>
   <i type="int" name="NKREDX">     1</i>
   <i type="int" name="NKREDY">     1</i>
   <i type="int" name="NKREDZ">     1</i>
   <i type="logical" name="SHIFTRED"> F  </i>
   <i type="logical" name="ODDONLY"> F  </i>
   <i type="logical" name="EVENONLY"> F  </i>
   <i type="int" name="LMAXFOCK">     0</i>
   <i type="int" name="NMAXFOCKAE">     0</i>
   <i type="logical" name="LFOCKAEDFT"> F  </i>
   <i name="HFSCREEN">      0.00000000</i>
   <i name="HFSCREENC">      0.00000000</i>
   <i type="int" name="NBANDSGWLOW">     0</i>
  </separator>
  <separator name="vdW DFT" >
   <i type="logical" name="LUSE_VDW"> F  </i>
   <i type="int" name="IVDW_NL">     1</i>
   <i type="logical" name="LSPIN_VDW"> F  </i>
   <i name="Zab_VDW">     -0.84910000</i>
   <i name="PARAM1">      0.12340000</i>
   <i name="PARAM2">      1.00000000</i>
   <i name="PARAM3">      0.00000000</i>
  </separator>
  <separator name="model GW" >
   <i type="int" name="MODEL_GW">     0</i>
   <i name="MODEL_EPS0">      6.34402578</i>
   <i name="MODEL_ALPHA">      1.00000000</i>
  </separator>
  <separator name="linear response parameters" >
   <i type="logical" name="LEPSILON"> F  </i>
   <i type="logical" name="LRPA"> F  </i>
   <i type="logical" name="LNABLA"> F  </i>
   <i type="logical" name="LVEL"> F  </i>
   <i name="CSHIFT">      0.10000000</i>
   <i name="OMEGAMAX">     -1.00000000</i>
   <i name="DEG_THRESHOLD">      0.00200000</i>
   <i name="RTIME">     -0.10000000</i>
   <i name="WPLASMAI">      0.00000000</i>
   <v name="DFIELD">      0.00000000      0.00000000      0.00000000</v>
   <v name="WPLASMA">      0.00000000      0.00000000      0.00000000      0.00000000      0.00000000      0.00000000      0.00000000      0.00000000      0.00000000</v>
  </separator>
  <separator name="orbital magnetization" >
   <i type="logical" name="NUCIND"> F  </i>
   <v name="MAGPOS">      0.00000000      0.00000000      0.00000000</v>
   <i type="logical" name="LNICSALL"> T  </i>
   <i type="logical" name="ORBITALMAG"> F  </i>
   <i type="logical" name="LMAGBLOCH"> F  </i>
   <i type="logical" name="LCHIMAG"> F  </i>
   <i type="logical" name="LGAUGE"> T  </i>
   <i type="int" name="MAGATOM">     0</i>
   <v name="MAGDIPOL">      0.00000000      0.00000000      0.00000000</v>
   <v name="AVECCONST">      0.00000000      0.00000000      0.00000000</v>
  </separator>
  <separator name="response functions" >
   <i type="logical" name="LALL_IN_ONE"> F  </i>
   <i type="int" name="IALL_IN_ONE">    -1</i>
   <i type="int" name="NBANDS_WAVE">    -1</i>
   <i type="logical" name="LFINITE_TEMPERATURE"> F  </i>
   <i type="logical" name="LADDER"> F  </i>
   <i type="logical" name="LRPAFORCE"> F  </i>
   <i type="logical" name="LFXC"> F  </i>
   <i type="logical" name="LHARTREE"> T  </i>
   <i type="int" name="IBSE">     0</i>
   <v type="int" name="KPOINT">    -1     0     0     0</v>
   <i type="logical" name="LTCTC"> F  </i>
   <i type="logical" name="LTCTE"> F  </i>
   <i type="logical" name="LTETE"> F  </i>
   <i type="logical" name="LTRIPLET"> F  </i>
   <i type="logical" name="LFXCEPS"> F  </i>
   <i type="logical" name="LFXHEG"> F  </i>
   <i type="int" name="NATURALO">     2</i>
   <i type="logical" name="LHOLEGF"> F  </i>
   <i type="logical" name="L2ORDER"> F  </i>
   <i type="logical" name="LDMP1"> F  </i>
   <i type="logical" name="LMP2LT"> F  </i>
   <i type="logical" name="LSMP2LT"> F  </i>
   <i type="logical" name="LGWLF"> F  </i>
   <i name="ENCUTGW">     -1.60000002</i>
   <i name="ENCUTGWSOFT">     -1.60000002</i>
   <i name="ENCUTLF">     -1.00000000</i>
   <i type="logical" name="LESF_SPLINES"> F  </i>
   <i type="int" name="LMAXMP2">    -1</i>
   <i name="SCISSOR">      0.00000000</i>
   <i type="int" name="NOMEGA">     0</i>
   <i type="int" name="NOMEGAR">     0</i>
   <i type="int" name="NBANDSGW">    -1</i>
   <i type="int" name="NBANDSO">    -1</i>
   <i type="int" name="NBANDSV">    -1</i>
   <i type="int" name="NELMGW">     1</i>
   <i type="int" name="NELMHF">     1</i>
   <i type="int" name="DIM">     3</i>
   <i type="int" name="IESPILON">     4</i>
   <i type="int" name="ANTIRES">     0</i>
   <i name="OMEGAMAX">    -30.00000000</i>
   <i name="OMEGAMIN">    -30.00000000</i>
   <i name="OMEGATL">   -200.00000000</i>
   <i type="int" name="OMEGAGRID">     0</i>
   <i name="CSHIFT">     -0.10000000</i>
   <i type="logical" name="LSELFENERGY"> F  </i>
   <i type="logical" name="LSPECTRAL"> F  </i>
   <i type="logical" name="LSPECTRALGW"> F  </i>
   <i type="logical" name="LSINGLES"> F  </i>
   <i type="logical" name="LFERMIGW"> F  </i>
   <i type="logical" name="ODDONLYGW"> F  </i>
   <i type="logical" name="EVENONLYGW"> F  </i>
   <i type="int" name="NKREDLFX">     1</i>
   <i type="int" name="NKREDLFY">     1</i>
   <i type="int" name="NKREDLFZ">     1</i>
   <i type="int" name="MAXMEM">  2800</i>
   <i type="int" name="TELESCOPE">     0</i>
   <i type="int" name="NTAUPAR">    -1</i>
   <i type="int" name="NOMEGAPAR">    -1</i>
   <i name="DAMP_NEWTON">      0.80000001</i>
   <i name="LAMBDA">      1.00000000</i>
  </separator>
  <separator name="External order field" >
   <i name="OFIELD_KAPPA">      0.00000000</i>
   <v name="OFIELD_K">      0.00000000      0.00000000      0.00000000</v>
   <i name="OFIELD_Q6_NEAR">      0.00000000</i>
   <i name="OFIELD_Q6_FAR">      0.00000000</i>
   <i name="OFIELD_A">      0.00000000</i>
  </separator>
  <separator name="optional k-points parameters" >
   <i type="int" name="KPOINTS_OPT_MODE">     1</i>
   <i type="logical" name="LKPOINTS_OPT"> F  </i>
  </separator>
 </parameters>
 <atominfo>
  <atoms>     120 </atoms>
  <types>       3 </types>
  <array name="atoms" >
   <dimension dim="1">ion</dimension>
   <field type="string">element</field>
   <field type="int">atomtype</field>
   <set>
    <rc><c>Ga</c><c>   1</c></rc>
    <rc><c>Ga</c><c>   1</c></rc>
    <rc><c>Ga</c><c>   1</c></rc>
    <rc><c>Ga</c><c>   1</c></rc>
    <rc><c>Ga</c><c>   1</c></rc>
    <rc><c>Ga</c><c>   1</c></rc>
    <rc><c>Ga</c><c>   1</c></rc>
    <rc><c>Ga</c><c>   1</c></rc>
    <rc><c>Ga</c><c>   1</c></rc>
    <rc><c>Ga</c><c>   1</c></rc>
    <rc><c>Ga</c><c>   1</c></rc>
    <rc><c>Ga</c><c>   1</c></rc>
    <rc><c>Ga</c><c>   1</c></rc>
    <rc><c>Ga</c><c>   1</c></rc>
    <rc><c>Ga</c><c>   1</c></rc>
    <rc><c>Ga</c><c>   1</c></rc>
    <rc><c>Ga</c><c>   1</c></rc>
    <rc><c>Ga</c><c>   1</c></rc>
    <rc><c>Ga</c><c>   1</c></rc>
    <rc><c>Ga</c><c>   1</c></rc>
    <rc><c>Ga</c><c>   1</c></rc>
    <rc><c>Ga</c><c>   1</c></rc>
    <rc><c>Ga</c><c>   1</c></rc>
    <rc><c>Ga</c><c>   1</c></rc>
    <rc><c>Ga</c><c>   1</c></rc>
    <rc><c>Ga</c><c>   1</c></rc>
    <rc><c>Ga</c><c>   1</c></rc>
    <rc><c>Ga</c><c>   1</c></rc>
    <rc><c>Ga</c><c>   1</c></rc>
    <rc><c>Ga</c><c>   1</c></rc>
    <rc><c>Ga</c><c>   1</c></rc>
    <rc><c>Ga</c><c>   1</c></rc>
    <rc><c>Ga</c><c>   1</c></rc>
    <rc><c>Ga</c><c>   1</c></rc>
    <rc><c>Ga</c><c>   1</c></rc>
    <rc><c>Ga</c><c>   1</c></rc>
    <rc><c>Ga</c><c>   1</c></rc>
    <rc><c>Ga</c><c>   1</c></rc>
    <rc><c>Ga</c><c>   1</c></rc>
    <rc><c>Ga</c><c>   1</c></rc>
    <rc><c>Ga</c><c>   1</c></rc>
    <rc><c>Ga</c><c>   1</c></rc>
    <rc><c>Ga</c><c>   1</c></rc>
    <rc><c>Ga</c><c>   1</c></rc>
    <rc><c>Ga</c><c>   1</c></rc>
    <rc><c>Ga</c><c>   1</c></rc>
    <rc><c>Ga</c><c>   1</c></rc>
    <rc><c>Ga</c><c>   1</c></rc>
    <rc><c>O </c><c>   2</c></rc>
    <rc><c>O </c><c>   2</c></rc>
    <rc><c>O </c><c>   2</c></rc>
    <rc><c>O </c><c>   2</c></rc>
    <rc><c>O </c><c>   2</c></rc>
    <rc><c>O </c><c>   2</c></rc>
    <rc><c>O </c><c>   2</c></rc>
    <rc><c>O </c><c>   2</c></rc>
    <rc><c>O </c><c>   2</c></rc>
    <rc><c>O </c><c>   2</c></rc>
    <rc><c>O </c><c>   2</c></rc>
    <rc><c>O </c><c>   2</c></rc>
    <rc><c>O </c><c>   2</c></rc>
    <rc><c>O </c><c>   2</c></rc>
    <rc><c>O </c><c>   2</c></rc>
    <rc><c>O </c><c>   2</c></rc>
    <rc><c>O </c><c>   2</c></rc>
    <rc><c>O </c><c>   2</c></rc>
    <rc><c>O </c><c>   2</c></rc>
    <rc><c>O </c><c>   2</c></rc>
    <rc><c>O </c><c>   2</c></rc>
    <rc><c>O </c><c>   2</c></rc>
    <rc><c>O </c><c>   2</c></rc>
    <rc><c>O </c><c>   2</c></rc>
    <rc><c>O </c><c>   2</c></rc>
    <rc><c>O </c><c>   2</c></rc>
    <rc><c>O </c><c>   2</c></rc>
    <rc><c>O </c><c>   2</c></rc>
    <rc><c>O </c><c>   2</c></rc>
    <rc><c>O </c><c>   2</c></rc>
    <rc><c>O </c><c>   2</c></rc>
    <rc><c>O </c><c>   2</c></rc>
    <rc><c>O </c><c>   2</c></rc>
    <rc><c>O </c><c>   2</c></rc>
    <rc><c>O </c><c>   2</c></rc>
    <rc><c>O </c><c>   2</c></rc>
    <rc><c>O </c><c>   2</c></rc>
    <rc><c>O </c><c>   2</c></rc>
    <rc><c>O </c><c>   2</c></rc>
    <rc><c>O </c><c>   2</c></rc>
    <rc><c>O </c><c>   2</c></rc>
    <rc><c>O </c><c>   2</c></rc>
    <rc><c>O </c><c>   2</c></rc>
    <rc><c>O </c><c>   2</c></rc>
    <rc><c>O </c><c>   2</c></rc>
    <rc><c>O </c><c>   2</c></rc>
    <rc><c>O </c><c>   2</c></rc>
    <rc><c>O </c><c>   2</c></rc>
    <rc><c>O </c><c>   2</c></rc>
    <rc><c>O </c><c>   2</c></rc>
    <rc><c>O </c><c>   2</c></rc>
    <rc><c>O </c><c>   2</c></rc>
    <rc><c>O </c><c>   2</c></rc>
    <rc><c>O </c><c>   2</c></rc>
    <rc><c>O </c><c>   2</c></rc>
    <rc><c>O </c><c>   2</c></rc>
    <rc><c>O </c><c>   2</c></rc>
    <rc><c>O </c><c>   2</c></rc>
    <rc><c>O </c><c>   2</c></rc>
    <rc><c>O </c><c>   2</c></rc>
    <rc><c>O </c><c>   2</c></rc>
    <rc><c>O </c><c>   2</c></rc>
    <rc><c>O </c><c>   2</c></rc>
    <rc><c>O </c><c>   2</c></rc>
    <rc><c>O </c><c>   2</c></rc>
    <rc><c>O </c><c>   2</c></rc>
    <rc><c>O </c><c>   2</c></rc>
    <rc><c>O </c><c>   2</c></rc>
    <rc><c>O </c><c>   2</c></rc>
    <rc><c>O </c><c>   2</c></rc>
    <rc><c>O </c><c>   2</c></rc>
    <rc><c>N </c><c>   3</c></rc>
   </set>
  </array>
  <array name="atomtypes" >
   <dimension dim="1">type</dimension>
   <field type="int">atomspertype</field>
   <field type="string">element</field>
   <field>mass</field>
   <field>valence</field>
   <field type="string">pseudopotential</field>
   <set>
    <rc><c>  48</c><c>Ga</c><c>     69.72300000</c><c>     13.00000000</c><c>  PAW_PBE Ga_d 06Jul2010                </c></rc>
    <rc><c>  71</c><c>O </c><c>     16.00000000</c><c>      6.00000000</c><c>  PAW_PBE O 08Apr2002                   </c></rc>
    <rc><c>   1</c><c>N </c><c>     14.00100000</c><c>      5.00000000</c><c>  PAW_PBE N 08Apr2002                   </c></rc>
   </set>
  </array>
 </atominfo>
 <structure name="initialpos" >
  <crystal>
   <varray name="basis" >
    <v>       0.00000000      12.28047342       0.00000000 </v>
    <v>       9.14270205       0.00000000       0.00000000 </v>
    <v>       0.00000000      -2.76826177     -11.30069772 </v>
   </varray>
   <i name="volume">   1268.80515525 </i>
   <varray name="rec_basis" >
    <v>       0.00000000       0.08143009      -0.01994742 </v>
    <v>       0.10937686      -0.00000000       0.00000000 </v>
    <v>       0.00000000       0.00000000      -0.08849011 </v>
   </varray>
  </crystal>
  <varray name="positions" >
   <v>       0.65883830       0.00000000       0.15736517 </v>
   <v>       0.65883830       0.00000000       0.65736517 </v>
   <v>       0.65883830       0.33333333       0.15736517 </v>
   <v>       0.65883830       0.33333333       0.65736517 </v>
   <v>       0.65883830       0.66666667       0.15736517 </v>
   <v>       0.65883830       0.66666667       0.65736517 </v>
   <v>       0.84116170       0.16666667       0.34263483 </v>
   <v>       0.84116170       0.16666667       0.84263483 </v>
   <v>       0.84116170       0.50000000       0.34263483 </v>
   <v>       0.84116170       0.50000000       0.84263483 </v>
   <v>       0.84116170       0.83333333       0.34263483 </v>
   <v>       0.84116170       0.83333333       0.84263483 </v>
   <v>       0.59047440       0.16666667       0.39739300 </v>
   <v>       0.59047440       0.16666667       0.89739300 </v>
   <v>       0.59047440       0.50000000       0.39739300 </v>
   <v>       0.59047440       0.50000000       0.89739300 </v>
   <v>       0.59047440       0.83333333       0.39739300 </v>
   <v>       0.59047440       0.83333333       0.89739300 </v>
   <v>       0.90952560       0.00000000       0.10260700 </v>
   <v>       0.90952560       0.00000000       0.60260700 </v>
   <v>       0.90952560       0.33333333       0.10260700 </v>
   <v>       0.90952560       0.33333333       0.60260700 </v>
   <v>       0.90952560       0.66666667       0.10260700 </v>
   <v>       0.90952560       0.66666667       0.60260700 </v>
   <v>       0.15883830       0.16666667       0.15736517 </v>
   <v>       0.15883830       0.16666667       0.65736517 </v>
   <v>       0.15883830       0.50000000       0.15736517 </v>
   <v>       0.15883830       0.50000000       0.65736517 </v>
   <v>       0.15883830       0.83333333       0.15736517 </v>
   <v>       0.15883830       0.83333333       0.65736517 </v>
   <v>       0.34116170       0.00000000       0.34263483 </v>
   <v>       0.34116170       0.00000000       0.84263483 </v>
   <v>       0.34116170       0.33333333       0.34263483 </v>
   <v>       0.34116170       0.33333333       0.84263483 </v>
   <v>       0.34116170       0.66666667       0.34263483 </v>
   <v>       0.34116170       0.66666667       0.84263483 </v>
   <v>       0.09047440       0.00000000       0.39739300 </v>
   <v>       0.09047440       0.00000000       0.89739300 </v>
   <v>       0.09047440       0.33333333       0.39739300 </v>
   <v>       0.09047440       0.33333333       0.89739300 </v>
   <v>       0.09047440       0.66666667       0.39739300 </v>
   <v>       0.09047440       0.66666667       0.89739300 </v>
   <v>       0.40952560       0.16666667       0.10260700 </v>
   <v>       0.40952560       0.16666667       0.60260700 </v>
   <v>       0.40952560       0.50000000       0.10260700 </v>
   <v>       0.40952560       0.50000000       0.60260700 </v>
   <v>       0.40952560       0.83333333       0.10260700 </v>
   <v>       0.40952560       0.83333333       0.60260700 </v>
   <v>       0.99646913       0.16666667       0.12833205 </v>
   <v>       0.99646913       0.16666667       0.62833205 </v>
   <v>       0.99646913       0.50000000       0.12833205 </v>
   <v>       0.99646913       0.50000000       0.62833205 </v>
   <v>       0.99646913       0.83333333       0.12833205 </v>
   <v>       0.99646913       0.83333333       0.62833205 </v>
   <v>       0.50353087       0.00000000       0.37166795 </v>
   <v>       0.50353087       0.00000000       0.87166795 </v>
   <v>       0.50353087       0.33333333       0.37166795 </v>
   <v>       0.50353087       0.33333333       0.87166795 </v>
   <v>       0.50353087       0.66666667       0.37166795 </v>
   <v>       0.50353087       0.66666667       0.87166795 </v>
   <v>       0.67337106       0.16666667       0.28161508 </v>
   <v>       0.67337106       0.16666667       0.78161508 </v>
   <v>       0.67337106       0.50000000       0.28161508 </v>
   <v>       0.67337106       0.50000000       0.78161508 </v>
   <v>       0.67337106       0.83333333       0.28161508 </v>
   <v>       0.67337106       0.83333333       0.78161508 </v>
   <v>       0.82662894       0.00000000       0.21838492 </v>
   <v>       0.82662894       0.00000000       0.71838492 </v>
   <v>       0.82662894       0.33333333       0.21838492 </v>
   <v>       0.82662894       0.33333333       0.71838492 </v>
   <v>       0.82662894       0.66666667       0.21838492 </v>
   <v>       0.82662894       0.66666667       0.71838492 </v>
   <v>       0.83549502       0.00000000       0.44542296 </v>
   <v>       0.83549502       0.00000000       0.94542296 </v>
   <v>       0.83549502       0.33333333       0.44542296 </v>
   <v>       0.83549502       0.33333333       0.94542296 </v>
   <v>       0.83549502       0.66666667       0.44542296 </v>
   <v>       0.83549502       0.66666667       0.94542296 </v>
   <v>       0.66450498       0.16666667       0.05457704 </v>
   <v>       0.66450498       0.16666667       0.55457704 </v>
   <v>       0.66450498       0.50000000       0.05457704 </v>
   <v>       0.66450498       0.50000000       0.55457704 </v>
   <v>       0.66450498       0.83333333       0.05457704 </v>
   <v>       0.66450498       0.83333333       0.55457704 </v>
   <v>       0.49646913       0.00000000       0.12833205 </v>
   <v>       0.49646913       0.00000000       0.62833205 </v>
   <v>       0.49646913       0.33333333       0.12833205 </v>
   <v>       0.49646913       0.33333333       0.62833205 </v>
   <v>       0.49646913       0.66666667       0.12833205 </v>
   <v>       0.49646913       0.66666667       0.62833205 </v>
   <v>       0.00353087       0.16666667       0.37166795 </v>
   <v>       0.00353087       0.16666667       0.87166795 </v>
   <v>       0.00353087       0.50000000       0.37166795 </v>
   <v>       0.00353087       0.50000000       0.87166795 </v>
   <v>       0.00353087       0.83333333       0.37166795 </v>
   <v>       0.00353087       0.83333333       0.87166795 </v>
   <v>       0.17337106       0.00000000       0.78161508 </v>
   <v>       0.17337106       0.33333333       0.28161508 </v>
   <v>       0.17337106       0.33333333       0.78161508 </v>
   <v>       0.17337106       0.66666667       0.28161508 </v>
   <v>       0.17337106       0.66666667       0.78161508 </v>
   <v>       0.32662894       0.16666667       0.21838492 </v>
   <v>       0.32662894       0.16666667       0.71838492 </v>
   <v>       0.32662894       0.50000000       0.21838492 </v>
   <v>       0.32662894       0.50000000       0.71838492 </v>
   <v>       0.32662894       0.83333333       0.21838492 </v>
   <v>       0.32662894       0.83333333       0.71838492 </v>
   <v>       0.33549502       0.16666667       0.44542296 </v>
   <v>       0.33549502       0.16666667       0.94542296 </v>
   <v>       0.33549502       0.50000000       0.44542296 </v>
   <v>       0.33549502       0.50000000       0.94542296 </v>
   <v>       0.33549502       0.83333333       0.44542296 </v>
   <v>       0.33549502       0.83333333       0.94542296 </v>
   <v>       0.16450498       0.00000000       0.05457704 </v>
   <v>       0.16450498       0.00000000       0.55457704 </v>
   <v>       0.16450498       0.33333333       0.05457704 </v>
   <v>       0.16450498       0.33333333       0.55457704 </v>
   <v>       0.16450498       0.66666667       0.05457704 </v>
   <v>       0.16450498       0.66666667       0.55457704 </v>
   <v>       0.17337106       0.00000000       0.28161508 </v>
  </varray>
 </structure>
 <calculation>
  <scstep>
   <time name="dav">    1.75    1.75</time>
   <time name="total">    1.87    1.87</time>
   <energy>
    <i name="alphaZ">   5530.94812622 </i>
    <i name="ewald"> -88613.97284171 </i>
    <i name="hartreedc"> -33363.67774128 </i>
    <i name="XCdc">   4139.96744941 </i>
    <i name="pawpsdc"> 101761.42039030 </i>
    <i name="pawaedc">-117900.86270521 </i>
    <i name="eentropy">     -0.00944185 </i>
    <i name="bandstr">  16292.06374896 </i>
    <i name="atom"> 134104.30092448 </i>
    <i name="e_fr_energy">  21950.17790932 </i>
    <i name="e_wo_entrp">  21950.18735117 </i>
    <i name="e_0_energy">  21950.18263024 </i>
   </energy>
  </scstep>
  <scstep>
   <time name="dav">    1.70    1.70</time>
   <time name="total">    1.70    1.71</time>
   <energy>
    <i name="e_fr_energy">   4854.63936200 </i>
    <i name="e_wo_entrp">   4854.65693980 </i>
    <i name="e_0_energy">   4854.64815090 </i>
   </energy>
  </scstep>
  <scstep>
   <time name="dav">    2.09    2.09</time>
   <time name="total">    2.09    2.09</time>
   <energy>
    <i name="e_fr_energy">   -152.32355049 </i>
    <i name="e_wo_entrp">   -152.31647027 </i>
    <i name="e_0_energy">   -152.32001038 </i>
   </energy>
  </scstep>
  <scstep>
   <time name="dav">    2.04    2.04</time>
   <time name="total">    2.04    2.04</time>
   <energy>
    <i name="e_fr_energy">   -777.79663074 </i>
    <i name="e_wo_entrp">   -777.76940147 </i>
    <i name="e_0_energy">   -777.78301610 </i>
   </energy>
  </scstep>
  <scstep>
   <time name="dav">    2.34    2.34</time>
   <time name="total">    2.61    2.61</time>
   <energy>
    <i name="e_fr_energy">   -822.35650405 </i>
    <i name="e_wo_entrp">   -822.32794406 </i>
    <i name="e_0_energy">   -822.34222405 </i>
   </energy>
  </scstep>
  <scstep>
   <time name="diag">    0.24    0.24</time>
   <time name="diis">    2.44    2.44</time>
   <time name="orth">    0.03    0.03</time>
   <time name="total">    3.09    3.09</time>
   <energy>
    <i name="e_fr_energy">   -709.95374164 </i>
    <i name="e_wo_entrp">   -709.92870358 </i>
    <i name="e_0_energy">   -709.94122261 </i>
   </energy>
  </scstep>
  <scstep>
   <time name="diag">    0.24    0.24</time>
   <time name="diis">    2.63    2.63</time>
   <time name="orth">    0.03    0.03</time>
   <time name="total">    3.28    3.28</time>
   <energy>
    <i name="e_fr_energy">   -713.94071554 </i>
    <i name="e_wo_entrp">   -713.92190436 </i>
    <i name="e_0_energy">   -713.93130995 </i>
   </energy>
  </scstep>
  <scstep>
   <time name="diag">    0.24    0.24</time>
   <time name="diis">    2.56    2.56</time>
   <time name="orth">    0.03    0.03</time>
   <time name="total">    3.23    3.23</time>
   <energy>
    <i name="e_fr_energy">   -713.43780527 </i>
    <i name="e_wo_entrp">   -713.41628455 </i>
    <i name="e_0_energy">   -713.42704491 </i>
   </energy>
  </scstep>
  <scstep>
   <time name="diag">    0.24    0.24</time>
   <time name="diis">    2.35    2.35</time>
   <time name="orth">    0.03    0.03</time>
   <time name="total">    3.01    3.01</time>
   <energy>
    <i name="e_fr_energy">   -713.61933937 </i>
    <i name="e_wo_entrp">   -713.59222067 </i>
    <i name="e_0_energy">   -713.60578002 </i>
   </energy>
  </scstep>
  <scstep>
   <time name="diag">    0.24    0.24</time>
   <time name="diis">    2.95    2.95</time>
   <time name="orth">    0.03    0.03</time>
   <time name="total">    3.61    3.61</time>
   <energy>
    <i name="e_fr_energy">   -713.27522263 </i>
    <i name="e_wo_entrp">   -713.23969145 </i>
    <i name="e_0_energy">   -713.25745704 </i>
   </energy>
  </scstep>
  <scstep>
   <time name="diag">    0.24    0.24</time>
   <time name="diis">    2.15    2.15</time>
   <time name="orth">    0.03    0.03</time>
   <time name="total">    2.82    2.82</time>
   <energy>
    <i name="e_fr_energy">   -713.18060819 </i>
    <i name="e_wo_entrp">   -713.14533733 </i>
    <i name="e_0_energy">   -713.16297276 </i>
   </energy>
  </scstep>
  <scstep>
   <time name="diag">    0.24    0.24</time>
   <time name="diis">    2.96    2.96</time>
   <time name="orth">    0.03    0.03</time>
   <time name="total">    3.62    3.62</time>
   <energy>
    <i name="e_fr_energy">   -713.20266688 </i>
    <i name="e_wo_entrp">   -713.16853789 </i>
    <i name="e_0_energy">   -713.18560238 </i>
   </energy>
  </scstep>
  <scstep>
   <time name="diag">    0.24    0.24</time>
   <time name="diis">    2.35    2.35</time>
   <time name="orth">    0.03    0.03</time>
   <time name="total">    3.02    3.02</time>
   <energy>
    <i name="e_fr_energy">   -713.19976366 </i>
    <i name="e_wo_entrp">   -713.16482411 </i>
    <i name="e_0_energy">   -713.18229388 </i>
   </energy>
  </scstep>
  <scstep>
   <time name="diag">    0.24    0.24</time>
   <time name="diis">    2.94    2.94</time>
   <time name="orth">    0.03    0.03</time>
   <time name="total">    3.61    3.61</time>
   <energy>
    <i name="e_fr_energy">   -713.20044391 </i>
    <i name="e_wo_entrp">   -713.16544665 </i>
    <i name="e_0_energy">   -713.18294528 </i>
   </energy>
  </scstep>
  <scstep>
   <time name="diag">    0.24    0.24</time>
   <time name="diis">    2.54    2.54</time>
   <time name="orth">    0.03    0.03</time>
   <time name="total">    3.22    3.22</time>
   <energy>
    <i name="e_fr_energy">   -713.20042821 </i>
    <i name="e_wo_entrp">   -713.16531526 </i>
    <i name="e_0_energy">   -713.18287174 </i>
   </energy>
  </scstep>
  <scstep>
   <time name="diag">    0.24    0.24</time>
   <time name="diis">    2.27    2.27</time>
   <time name="orth">    0.03    0.03</time>
   <time name="total">    2.95    2.95</time>
   <energy>
    <i name="e_fr_energy">   -713.20050296 </i>
    <i name="e_wo_entrp">   -713.16545902 </i>
    <i name="e_0_energy">   -713.18298099 </i>
   </energy>
  </scstep>
  <scstep>
   <time name="diag">    0.24    0.24</time>
   <time name="diis">    2.00    2.00</time>
   <time name="orth">    0.03    0.03</time>
   <time name="total">    2.67    2.67</time>
   <energy>
    <i name="e_fr_energy">   -713.20051238 </i>
    <i name="e_wo_entrp">   -713.16543464 </i>
    <i name="e_0_energy">   -713.18297351 </i>
   </energy>
  </scstep>
  <scstep>
   <time name="diag">    0.24    0.24</time>
   <time name="diis">    1.74    1.74</time>
   <time name="orth">    0.03    0.03</time>
   <time name="total">    2.13    2.13</time>
   <energy>
    <i name="alphaZ">   5530.94812622 </i>
    <i name="ewald"> -88613.97284171 </i>
    <i name="hartreedc"> -33832.09027432 </i>
    <i name="XCdc">   4200.12170536 </i>
    <i name="pawpsdc"> 119728.71029014 </i>
    <i name="pawaedc">-136125.00725859 </i>
    <i name="eentropy">     -0.03507631 </i>
    <i name="bandstr">  -5706.17611350 </i>
    <i name="atom"> 134104.30092448 </i>
    <i name="e_fr_energy">   -713.20051822 </i>
    <i name="e_wo_entrp">   -713.16544191 </i>
    <i name="e_0_energy">   -713.18298007 </i>
   </energy>
  </scstep>
  <structure>
   <crystal>
    <varray name="basis" >
     <v>       0.00000000      12.28047342       0.00000000 </v>
     <v>       9.14270205       0.00000000       0.00000000 </v>
     <v>       0.00000000      -2.76826177     -11.30069772 </v>
    </varray>
    <i name="volume">   1268.80515525 </i>
    <varray name="rec_basis" >
     <v>       0.00000000       0.08143009      -0.01994742 </v>
     <v>       0.10937686      -0.00000000       0.00000000 </v>
     <v>       0.00000000       0.00000000      -0.08849011 </v>
    </varray>
   </crystal>
   <varray name="positions" >
    <v>       0.65883830       0.00000000       0.15736517 </v>
    <v>       0.65883830       0.00000000       0.65736517 </v>
    <v>       0.65883830       0.33333333       0.15736517 </v>
    <v>       0.65883830       0.33333333       0.65736517 </v>
    <v>       0.65883830       0.66666667       0.15736517 </v>
    <v>       0.65883830       0.66666667       0.65736517 </v>
    <v>       0.84116170       0.16666667       0.34263483 </v>
    <v>       0.84116170       0.16666667       0.84263483 </v>
    <v>       0.84116170       0.50000000       0.34263483 </v>
    <v>       0.84116170       0.50000000       0.84263483 </v>
    <v>       0.84116170       0.83333333       0.34263483 </v>
    <v>       0.84116170       0.83333333       0.84263483 </v>
    <v>       0.59047440       0.16666667       0.39739300 </v>
    <v>       0.59047440       0.16666667       0.89739300 </v>
    <v>       0.59047440       0.50000000       0.39739300 </v>
    <v>       0.59047440       0.50000000       0.89739300 </v>
    <v>       0.59047440       0.83333333       0.39739300 </v>
    <v>       0.59047440       0.83333333       0.89739300 </v>
    <v>       0.90952560       0.00000000       0.10260700 </v>
    <v>       0.90952560       0.00000000       0.60260700 </v>
    <v>       0.90952560       0.33333333       0.10260700 </v>
    <v>       0.90952560       0.33333333       0.60260700 </v>
    <v>       0.90952560       0.66666667       0.10260700 </v>
    <v>       0.90952560       0.66666667       0.60260700 </v>
    <v>       0.15883830       0.16666667       0.15736517 </v>
    <v>       0.15883830       0.16666667       0.65736517 </v>
    <v>       0.15883830       0.50000000       0.15736517 </v>
    <v>       0.15883830       0.50000000       0.65736517 </v>
    <v>       0.15883830       0.83333333       0.15736517 </v>
    <v>       0.15883830       0.83333333       0.65736517 </v>
    <v>       0.34116170       0.00000000       0.34263483 </v>
    <v>       0.34116170       0.00000000       0.84263483 </v>
    <v>       0.34116170       0.33333333       0.34263483 </v>
    <v>       0.34116170       0.33333333       0.84263483 </v>
    <v>       0.34116170       0.66666667       0.34263483 </v>
    <v>       0.34116170       0.66666667       0.84263483 </v>
    <v>       0.09047440       0.00000000       0.39739300 </v>
    <v>       0.09047440       0.00000000       0.89739300 </v>
    <v>       0.09047440       0.33333333       0.39739300 </v>
    <v>       0.09047440       0.33333333       0.89739300 </v>
    <v>       0.09047440       0.66666667       0.39739300 </v>
    <v>       0.09047440       0.66666667       0.89739300 </v>
    <v>       0.40952560       0.16666667       0.10260700 </v>
    <v>       0.40952560       0.16666667       0.60260700 </v>
    <v>       0.40952560       0.50000000       0.10260700 </v>
    <v>       0.40952560       0.50000000       0.60260700 </v>
    <v>       0.40952560       0.83333333       0.10260700 </v>
    <v>       0.40952560       0.83333333       0.60260700 </v>
    <v>       0.99646913       0.16666667       0.12833205 </v>
    <v>       0.99646913       0.16666667       0.62833205 </v>
    <v>       0.99646913       0.50000000       0.12833205 </v>
    <v>       0.99646913       0.50000000       0.62833205 </v>
    <v>       0.99646913       0.83333333       0.12833205 </v>
    <v>       0.99646913       0.83333333       0.62833205 </v>
    <v>       0.50353087       0.00000000       0.37166795 </v>
    <v>       0.50353087       0.00000000       0.87166795 </v>
    <v>       0.50353087       0.33333333       0.37166795 </v>
    <v>       0.50353087       0.33333333       0.87166795 </v>
    <v>       0.50353087       0.66666667       0.37166795 </v>
    <v>       0.50353087       0.66666667       0.87166795 </v>
    <v>       0.67337106       0.16666667       0.28161508 </v>
    <v>       0.67337106       0.16666667       0.78161508 </v>
    <v>       0.67337106       0.50000000       0.28161508 </v>
    <v>       0.67337106       0.50000000       0.78161508 </v>
    <v>       0.67337106       0.83333333       0.28161508 </v>
    <v>       0.67337106       0.83333333       0.78161508 </v>
    <v>       0.82662894       0.00000000       0.21838492 </v>
    <v>       0.82662894       0.00000000       0.71838492 </v>
    <v>       0.82662894       0.33333333       0.21838492 </v>
    <v>       0.82662894       0.33333333       0.71838492 </v>
    <v>       0.82662894       0.66666667       0.21838492 </v>
    <v>       0.82662894       0.66666667       0.71838492 </v>
    <v>       0.83549502       0.00000000       0.44542296 </v>
    <v>       0.83549502       0.00000000       0.94542296 </v>
    <v>       0.83549502       0.33333333       0.44542296 </v>
    <v>       0.83549502       0.33333333       0.94542296 </v>
    <v>       0.83549502       0.66666667       0.44542296 </v>
    <v>       0.83549502       0.66666667       0.94542296 </v>
    <v>       0.66450498       0.16666667       0.05457704 </v>
    <v>       0.66450498       0.16666667       0.55457704 </v>
    <v>       0.66450498       0.50000000       0.05457704 </v>
    <v>       0.66450498       0.50000000       0.55457704 </v>
    <v>       0.66450498       0.83333333       0.05457704 </v>
    <v>       0.66450498       0.83333333       0.55457704 </v>
    <v>       0.49646913       0.00000000       0.12833205 </v>
    <v>       0.49646913       0.00000000       0.62833205 </v>
    <v>       0.49646913       0.33333333       0.12833205 </v>
    <v>       0.49646913       0.33333333       0.62833205 </v>
    <v>       0.49646913       0.66666667       0.12833205 </v>
    <v>       0.49646913       0.66666667       0.62833205 </v>
    <v>       0.00353087       0.16666667       0.37166795 </v>
    <v>       0.00353087       0.16666667       0.87166795 </v>
    <v>       0.00353087       0.50000000       0.37166795 </v>
    <v>       0.00353087       0.50000000       0.87166795 </v>
    <v>       0.00353087       0.83333333       0.37166795 </v>
    <v>       0.00353087       0.83333333       0.87166795 </v>
    <v>       0.17337106       0.00000000       0.78161508 </v>
    <v>       0.17337106       0.33333333       0.28161508 </v>
    <v>       0.17337106       0.33333333       0.78161508 </v>
    <v>       0.17337106       0.66666667       0.28161508 </v>
    <v>       0.17337106       0.66666667       0.78161508 </v>
    <v>       0.32662894       0.16666667       0.21838492 </v>
    <v>       0.32662894       0.16666667       0.71838492 </v>
    <v>       0.32662894       0.50000000       0.21838492 </v>
    <v>       0.32662894       0.50000000       0.71838492 </v>
    <v>       0.32662894       0.83333333       0.21838492 </v>
    <v>       0.32662894       0.83333333       0.71838492 </v>
    <v>       0.33549502       0.16666667       0.44542296 </v>
    <v>       0.33549502       0.16666667       0.94542296 </v>
    <v>       0.33549502       0.50000000       0.44542296 </v>
    <v>       0.33549502       0.50000000       0.94542296 </v>
    <v>       0.33549502       0.83333333       0.44542296 </v>
    <v>       0.33549502       0.83333333       0.94542296 </v>
    <v>       0.16450498       0.00000000       0.05457704 </v>
    <v>       0.16450498       0.00000000       0.55457704 </v>
    <v>       0.16450498       0.33333333       0.05457704 </v>
    <v>       0.16450498       0.33333333       0.55457704 </v>
    <v>       0.16450498       0.66666667       0.05457704 </v>
    <v>       0.16450498       0.66666667       0.55457704 </v>
    <v>       0.17337106       0.00000000       0.28161508 </v>
   </varray>
  </structure>
  <varray name="forces" >
   <v>      -0.00000000      -0.03919884       0.03247672 </v>
   <v>      -0.00000000      -0.02032021       0.04763879 </v>
   <v>      -0.00322450      -0.03628191       0.03277847 </v>
   <v>      -0.00019341      -0.01697303       0.05313642 </v>
   <v>       0.00322450      -0.03628191       0.03277847 </v>
   <v>       0.00019341      -0.01697303       0.05313642 </v>
   <v>      -0.00395794       0.17712436      -0.08780987 </v>
   <v>      -0.00262927       0.05150415      -0.03002963 </v>
   <v>      -0.00000000       0.07609969      -0.06750601 </v>
   <v>      -0.00000000       0.05508368      -0.02738237 </v>
   <v>       0.00395794       0.17712436      -0.08780987 </v>
   <v>       0.00262927       0.05150415      -0.03002963 </v>
   <v>       0.00078702       0.00063441      -0.00222897 </v>
   <v>      -0.00110704      -0.02139344      -0.04545398 </v>
   <v>      -0.00000000       0.00185469      -0.02030020 </v>
   <v>      -0.00000000      -0.02585679      -0.04574114 </v>
   <v>      -0.00078702       0.00063441      -0.00222897 </v>
   <v>       0.00110704      -0.02139344      -0.04545398 </v>
   <v>      -0.00000000       0.02200672      -0.06508684 </v>
   <v>      -0.00000000       0.05896254       0.07485036 </v>
   <v>       0.01586880      -0.01716021      -0.02416094 </v>
   <v>      -0.00923927       0.04658342       0.06499161 </v>
   <v>      -0.01586880      -0.01716021      -0.02416094 </v>
   <v>       0.00923927       0.04658342       0.06499161 </v>
   <v>      -0.33193175      -0.01086580      -0.36050869 </v>
   <v>      -0.06925866      -0.05036319       0.13503729 </v>
   <v>      -0.00000000      -0.05299550      -0.02139923 </v>
   <v>      -0.00000000      -0.04949516       0.09309706 </v>
   <v>       0.33193175      -0.01086580      -0.36050869 </v>
   <v>       0.06925866      -0.05036319       0.13503729 </v>
   <v>      -0.00000000      -0.26208150       0.22749241 </v>
   <v>      -0.00000000       0.02301642      -0.03516705 </v>
   <v>      -0.03385029       0.02285930       0.04664010 </v>
   <v>      -0.00342652       0.03551324      -0.03928314 </v>
   <v>       0.03385029       0.02285930       0.04664010 </v>
   <v>       0.00342652       0.03551324      -0.03928314 </v>
   <v>      -0.00000000       0.30241993       0.23230570 </v>
   <v>      -0.00000000       0.00955755       0.00523155 </v>
   <v>      -0.14123798      -0.08434636      -0.00794833 </v>
   <v>      -0.00886720      -0.00877059       0.01222314 </v>
   <v>       0.14123798      -0.08434636      -0.00794833 </v>
   <v>       0.00886720      -0.00877059       0.01222314 </v>
   <v>      -0.00502566      -0.02330080      -0.04415322 </v>
   <v>      -0.00653655      -0.03343461      -0.02264931 </v>
   <v>      -0.00000000       0.02217135       0.01123794 </v>
   <v>      -0.00000000      -0.02381042       0.03724926 </v>
   <v>       0.00502566      -0.02330080      -0.04415322 </v>
   <v>       0.00653655      -0.03343461      -0.02264931 </v>
   <v>       0.07324458      -0.16342140       0.12758565 </v>
   <v>       0.01245674      -0.03670418      -0.05614296 </v>
   <v>      -0.00000000      -0.00019871      -0.01352055 </v>
   <v>      -0.00000000      -0.01658395      -0.04618211 </v>
   <v>      -0.07324458      -0.16342140       0.12758565 </v>
   <v>      -0.01245674      -0.03670418      -0.05614296 </v>
   <v>      -0.00000000      -0.04180477       0.01942293 </v>
   <v>      -0.00000000       0.01222147       0.04218573 </v>
   <v>      -0.00413253       0.00078457       0.01832858 </v>
   <v>       0.00163292       0.01244549       0.03978668 </v>
   <v>       0.00413253       0.00078457       0.01832858 </v>
   <v>      -0.00163292       0.01244549       0.03978668 </v>
   <v>       0.00304814      -0.03133490       0.01696207 </v>
   <v>       0.00102966      -0.02148994       0.01987566 </v>
   <v>      -0.00000000      -0.03226171       0.01786403 </v>
   <v>      -0.00000000      -0.02346887       0.01831525 </v>
   <v>      -0.00304814      -0.03133490       0.01696207 </v>
   <v>      -0.00102966      -0.02148994       0.01987566 </v>
   <v>      -0.00000000      -0.00850830       0.02119130 </v>
   <v>      -0.00000000      -0.00004867      -0.03649936 </v>
   <v>       0.01975158      -0.00147504       0.01318549 </v>
   <v>       0.00303526      -0.00064577      -0.03570821 </v>
   <v>      -0.01975158      -0.00147504       0.01318549 </v>
   <v>      -0.00303526      -0.00064577      -0.03570821 </v>
   <v>      -0.00000000      -0.21021713      -0.04460904 </v>
   <v>      -0.00000000      -0.16730374      -0.01848060 </v>
   <v>       0.02966085      -0.21097882      -0.04356183 </v>
   <v>       0.00007064      -0.17276807      -0.01445421 </v>
   <v>      -0.02966085      -0.21097882      -0.04356183 </v>
   <v>      -0.00007064      -0.17276807      -0.01445421 </v>
   <v>       0.00458131       0.17202713       0.04222029 </v>
   <v>      -0.00090413       0.15854884       0.01404629 </v>
   <v>      -0.00000000       0.17370169       0.04227382 </v>
   <v>      -0.00000000       0.15960693       0.00899242 </v>
   <v>      -0.00458131       0.17202713       0.04222029 </v>
   <v>       0.00090413       0.15854884       0.01404629 </v>
   <v>      -0.00000000       0.02449262      -0.02014689 </v>
   <v>      -0.00000000      -0.00986459      -0.03219382 </v>
   <v>       0.02384183       0.02408995      -0.02424716 </v>
   <v>      -0.00903712      -0.00548152      -0.03153998 </v>
   <v>      -0.02384183       0.02408995      -0.02424716 </v>
   <v>       0.00903712      -0.00548152      -0.03153998 </v>
   <v>       0.27383412      -0.37535047      -0.03563131 </v>
   <v>       0.01074429      -0.01347531       0.02698225 </v>
   <v>      -0.00000000       0.00521322       0.03846466 </v>
   <v>      -0.00000000       0.00930167       0.01871565 </v>
   <v>      -0.27383412      -0.37535047      -0.03563131 </v>
   <v>      -0.01074429      -0.01347531       0.02698225 </v>
   <v>      -0.00000000      -0.02408544      -0.02912366 </v>
   <v>       0.21734553       0.00201843      -0.00323285 </v>
   <v>       0.00301135      -0.02016779      -0.00436377 </v>
   <v>      -0.21734553       0.00201843      -0.00323285 </v>
   <v>      -0.00301135      -0.02016779      -0.00436377 </v>
   <v>       0.33790280       0.44309972       0.14909703 </v>
   <v>       0.00689303       0.05068114      -0.03052208 </v>
   <v>      -0.00000000       0.01762701      -0.00762900 </v>
   <v>      -0.00000000       0.03798979      -0.02626466 </v>
   <v>      -0.33790280       0.44309972       0.14909703 </v>
   <v>      -0.00689303       0.05068114      -0.03052208 </v>
   <v>       0.15524042      -0.06232171      -0.18582341 </v>
   <v>       0.00205958      -0.17127643      -0.00848245 </v>
   <v>      -0.00000000      -0.15700502      -0.03924612 </v>
   <v>      -0.00000000      -0.17517713      -0.02162522 </v>
   <v>      -0.15524042      -0.06232171      -0.18582341 </v>
   <v>      -0.00205958      -0.17127643      -0.00848245 </v>
   <v>      -0.00000000       0.26798155       0.54018336 </v>
   <v>      -0.00000000       0.09948184      -0.32848698 </v>
   <v>      -0.02134420       0.15919635       0.00331588 </v>
   <v>       0.02665317       0.18810851      -0.01357404 </v>
   <v>       0.02134420       0.15919635       0.00331588 </v>
   <v>      -0.02665317       0.18810851      -0.01357404 </v>
   <v>      -0.00000000       0.05062070       0.08803683 </v>
  </varray>
  <varray name="stress" >
   <v>      66.65586819       0.00000000       0.00000000 </v>
   <v>       0.00000000      62.52235956      -0.35577168 </v>
   <v>       0.00000000      -0.35577178      60.61199585 </v>
  </varray>
  <energy>
   <i name="e_fr_energy">   -713.20051822 </i>
   <i name="e_wo_entrp">   -713.16544191 </i>
   <i name="e_0_energy">   -713.18298007 </i>
  </energy>
  <time name="totalsc">   60.12   60.12</time>
 </calculation>
 <calculation>
  <scstep>
   <time name="dav">    1.85    1.85</time>
   <time name="total">    2.23    2.23</time>
   <energy>
    <i name="alphaZ">   5530.94812622 </i>
    <i name="ewald"> -88648.80693358 </i>
    <i name="hartreedc"> -33800.50795029 </i>
    <i name="XCdc">   4199.95501681 </i>
    <i name="pawpsdc"> 119728.39645500 </i>
    <i name="pawaedc">-136124.67353752 </i>
    <i name="eentropy">     -0.03298462 </i>
    <i name="bandstr">  -5702.68429463 </i>
    <i name="atom"> 134104.30092448 </i>
    <i name="e_fr_energy">   -713.10517814 </i>
    <i name="e_wo_entrp">   -713.07219352 </i>
    <i name="e_0_energy">   -713.08868583 </i>
   </energy>
  </scstep>
  <scstep>
   <time name="diag">    0.24    0.24</time>
   <time name="diis">    2.60    2.60</time>
   <time name="orth">    0.03    0.03</time>
   <time name="total">    3.26    3.26</time>
   <energy>
    <i name="e_fr_energy">   -713.27977047 </i>
    <i name="e_wo_entrp">   -713.25102548 </i>
    <i name="e_0_energy">   -713.26539797 </i>
   </energy>
  </scstep>
  <scstep>
   <time name="diag">    0.24    0.24</time>
   <time name="diis">    2.93    2.93</time>
   <time name="orth">    0.03    0.03</time>
   <time name="total">    3.59    3.59</time>
   <energy>
    <i name="e_fr_energy">   -713.28880209 </i>
    <i name="e_wo_entrp">   -713.25422247 </i>
    <i name="e_0_energy">   -713.27151228 </i>
   </energy>
  </scstep>
  <scstep>
   <time name="diag">    0.24    0.24</time>
   <time name="diis">    2.95    2.95</time>
   <time name="orth">    0.03    0.03</time>
   <time name="total">    3.61    3.61</time>
   <energy>
    <i name="e_fr_energy">   -713.28835614 </i>
    <i name="e_wo_entrp">   -713.25326136 </i>
    <i name="e_0_energy">   -713.27080875 </i>
   </energy>
  </scstep>
  <scstep>
   <time name="diag">    0.24    0.24</time>
   <time name="diis">    2.91    2.91</time>
   <time name="orth">    0.03    0.03</time>
   <time name="total">    3.57    3.57</time>
   <energy>
    <i name="e_fr_energy">   -713.28605417 </i>
    <i name="e_wo_entrp">   -713.25085368 </i>
    <i name="e_0_energy">   -713.26845393 </i>
   </energy>
  </scstep>
  <scstep>
   <time name="diag">    0.24    0.24</time>
   <time name="diis">    2.35    2.35</time>
   <time name="orth">    0.03    0.03</time>
   <time name="total">    3.02    3.02</time>
   <energy>
    <i name="e_fr_energy">   -713.28423402 </i>
    <i name="e_wo_entrp">   -713.24892242 </i>
    <i name="e_0_energy">   -713.26657822 </i>
   </energy>
  </scstep>
  <scstep>
   <time name="diag">    0.24    0.24</time>
   <time name="diis">    2.79    2.79</time>
   <time name="orth">    0.03    0.03</time>
   <time name="total">    3.45    3.45</time>
   <energy>
    <i name="e_fr_energy">   -713.28419897 </i>
    <i name="e_wo_entrp">   -713.24892547 </i>
    <i name="e_0_energy">   -713.26656222 </i>
   </energy>
  </scstep>
  <scstep>
   <time name="diag">    0.24    0.24</time>
   <time name="diis">    2.10    2.10</time>
   <time name="orth">    0.03    0.03</time>
   <time name="total">    2.77    2.77</time>
   <energy>
    <i name="e_fr_energy">   -713.28418073 </i>
    <i name="e_wo_entrp">   -713.24889733 </i>
    <i name="e_0_energy">   -713.26653903 </i>
   </energy>
  </scstep>
  <scstep>
   <time name="diag">    0.24    0.24</time>
   <time name="diis">    1.84    1.84</time>
   <time name="orth">    0.03    0.03</time>
   <time name="total">    2.22    2.22</time>
   <energy>
    <i name="alphaZ">   5530.94812622 </i>
    <i name="ewald"> -88648.80693358 </i>
    <i name="hartreedc"> -33797.84111650 </i>
    <i name="XCdc">   4199.85436921 </i>
    <i name="pawpsdc"> 119705.91875458 </i>
    <i name="pawaedc">-136101.71113741 </i>
    <i name="eentropy">     -0.03527094 </i>
    <i name="bandstr">  -5705.91190051 </i>
    <i name="atom"> 134104.30092448 </i>
    <i name="e_fr_energy">   -713.28418445 </i>
    <i name="e_wo_entrp">   -713.24891351 </i>
    <i name="e_0_energy">   -713.26654898 </i>
   </energy>
  </scstep>
  <structure>
   <crystal>
    <varray name="basis" >
     <v>       0.00000000      12.28047342       0.00000000 </v>
     <v>       9.14270205       0.00000000       0.00000000 </v>
     <v>       0.00000000      -2.76826177     -11.30069772 </v>
    </varray>
    <i name="volume">   1268.80515525 </i>
    <varray name="rec_basis" >
     <v>       0.00000000       0.08143009      -0.01994742 </v>
     <v>       0.10937686      -0.00000000       0.00000000 </v>
     <v>       0.00000000       0.00000000      -0.08849011 </v>
    </varray>
   </crystal>
   <varray name="positions" >
    <v>       0.65865306      -0.00000000       0.15722653 </v>
    <v>       0.65871263      -0.00000000       0.65716180 </v>
    <v>       0.65866423       0.33331632       0.15722524 </v>
    <v>       0.65872049       0.33333231       0.65713833 </v>
    <v>       0.65866423       0.66668368       0.15722524 </v>
    <v>       0.65872049       0.66666769       0.65713833 </v>
    <v>       0.84194202       0.16664578       0.34300969 </v>
    <v>       0.84139293       0.16665279       0.84276303 </v>
    <v>       0.84152561       0.50000000       0.34292301 </v>
    <v>       0.84140444       0.50000000       0.84275173 </v>
    <v>       0.84194202       0.83335422       0.34300969 </v>
    <v>       0.84139293       0.83334721       0.84276303 </v>
    <v>       0.59047904       0.16667082       0.39740252 </v>
    <v>       0.59043410       0.16666083       0.89758704 </v>
    <v>       0.59050122       0.50000000       0.39747966 </v>
    <v>       0.59041684       0.50000000       0.89758827 </v>
    <v>       0.59047904       0.83332918       0.39740252 </v>
    <v>       0.59043410       0.83333917       0.89758704 </v>
    <v>       0.90967469      -0.00000000       0.10288486 </v>
    <v>       0.90968520      -0.00000000       0.60228746 </v>
    <v>       0.90948144       0.33341707       0.10271014 </v>
    <v>       0.90964606       0.33328458       0.60232955 </v>
    <v>       0.90948144       0.66658293       0.10271014 </v>
    <v>       0.90964606       0.66671542       0.60232955 </v>
    <v>       0.15914254       0.16491519       0.15890418 </v>
    <v>       0.15851050       0.16630121       0.65678870 </v>
    <v>       0.15865071       0.50000000       0.15745652 </v>
    <v>       0.15855427       0.50000000       0.65696774 </v>
    <v>       0.15914254       0.83508481       0.15890418 </v>
    <v>       0.15851050       0.83369879       0.65678870 </v>
    <v>       0.33991322      -0.00000000       0.34166367 </v>
    <v>       0.34128596      -0.00000000       0.84278496 </v>
    <v>       0.34120662       0.33315472       0.34243572 </v>
    <v>       0.34133901       0.33331525       0.84280253 </v>
    <v>       0.34120662       0.66684528       0.34243572 </v>
    <v>       0.34133901       0.66668475       0.84280253 </v>
    <v>       0.09143888      -0.00000000       0.39640129 </v>
    <v>       0.09050691      -0.00000000       0.89737067 </v>
    <v>       0.09015070       0.33258807       0.39742693 </v>
    <v>       0.09042818       0.33328654       0.89734082 </v>
    <v>       0.09015070       0.66741193       0.39742693 </v>
    <v>       0.09042818       0.66671346       0.89734082 </v>
    <v>       0.40947655       0.16664015       0.10279549 </v>
    <v>       0.40941605       0.16663218       0.60270369 </v>
    <v>       0.40960188       0.50000000       0.10255903 </v>
    <v>       0.40939622       0.50000000       0.60244798 </v>
    <v>       0.40947655       0.83335985       0.10279549 </v>
    <v>       0.40941605       0.83336782       0.60270369 </v>
    <v>       0.99570437       0.16705315       0.12778738 </v>
    <v>       0.99637897       0.16673240       0.62857172 </v>
    <v>       0.99648136       0.50000000       0.12838976 </v>
    <v>       0.99644842       0.50000000       0.62852920 </v>
    <v>       0.99570437       0.83294685       0.12778738 </v>
    <v>       0.99637897       0.83326760       0.62857172 </v>
    <v>       0.50334795      -0.00000000       0.37158504 </v>
    <v>       0.50353828      -0.00000000       0.87148786 </v>
    <v>       0.50351631       0.33331153       0.37158971 </v>
    <v>       0.50354147       0.33334195       0.87149811 </v>
    <v>       0.50351631       0.66668847       0.37158971 </v>
    <v>       0.50354147       0.66665805       0.87149811 </v>
    <v>       0.67323165       0.16668275       0.28154267 </v>
    <v>       0.67326752       0.16667210       0.78153023 </v>
    <v>       0.67322714       0.50000000       0.28153882 </v>
    <v>       0.67326124       0.50000000       0.78153689 </v>
    <v>       0.67323165       0.83331725       0.28154267 </v>
    <v>       0.67326752       0.83332790       0.78153023 </v>
    <v>       0.82657512      -0.00000000       0.21829445 </v>
    <v>       0.82666387      -0.00000000       0.71854074 </v>
    <v>       0.82661045       0.33343756       0.21832863 </v>
    <v>       0.82666076       0.33334935       0.71853736 </v>
    <v>       0.82661045       0.66656244       0.21832863 </v>
    <v>       0.82666076       0.66665065       0.71853736 </v>
    <v>       0.83471213      -0.00000000       0.44561340 </v>
    <v>       0.83485557      -0.00000000       0.94550185 </v>
    <v>       0.83470813       0.33348984       0.44560893 </v>
    <v>       0.83483023       0.33333371       0.94548466 </v>
    <v>       0.83470813       0.66651016       0.44560893 </v>
    <v>       0.83483023       0.66666629       0.94548466 </v>
    <v>       0.66514014       0.16669084       0.05439680 </v>
    <v>       0.66511431       0.16666190       0.55451708 </v>
    <v>       0.66514667       0.50000000       0.05439657 </v>
    <v>       0.66512333       0.50000000       0.55453865 </v>
    <v>       0.66514014       0.83330916       0.05439680 </v>
    <v>       0.66511431       0.83333810       0.55451708 </v>
    <v>       0.49658473      -0.00000000       0.12841805 </v>
    <v>       0.49646136      -0.00000000       0.62846948 </v>
    <v>       0.49658710       0.33345914       0.12843556 </v>
    <v>       0.49647795       0.33328565       0.62846669 </v>
    <v>       0.49658710       0.66654086       0.12843556 </v>
    <v>       0.49647795       0.66671435       0.62846669 </v>
    <v>       0.00209063       0.16811159       0.37182006 </v>
    <v>       0.00345197       0.16672336       0.87155277 </v>
    <v>       0.00351433       0.50000000       0.37150375 </v>
    <v>       0.00354940       0.50000000       0.87158806 </v>
    <v>       0.00209063       0.83188841       0.37182006 </v>
    <v>       0.00345197       0.83327664       0.87155277 </v>
    <v>       0.17330447      -0.00000000       0.78173941 </v>
    <v>       0.17338211       0.33448019       0.28162888 </v>
    <v>       0.17329604       0.33334922       0.78163371 </v>
    <v>       0.17338211       0.66551981       0.28162888 </v>
    <v>       0.17329604       0.66665078       0.78163371 </v>
    <v>       0.32822613       0.16844965       0.21774843 </v>
    <v>       0.32685740       0.16670304       0.71851522 </v>
    <v>       0.32670552       0.50000000       0.21841749 </v>
    <v>       0.32680345       0.50000000       0.71849704 </v>
    <v>       0.32822613       0.83155035       0.21774843 </v>
    <v>       0.32685740       0.83329696       0.71851522 </v>
    <v>       0.33542902       0.16748581       0.44621624 </v>
    <v>       0.33483034       0.16667753       0.94545917 </v>
    <v>       0.33491601       0.50000000       0.44559050 </v>
    <v>       0.33482766       0.50000000       0.94551528 </v>
    <v>       0.33542902       0.83251419       0.44621624 </v>
    <v>       0.33483034       0.83332247       0.94545917 </v>
    <v>       0.16503789      -0.00000000       0.05227100 </v>
    <v>       0.16521189      -0.00000000       0.55597935 </v>
    <v>       0.16512718       0.33322071       0.05456288 </v>
    <v>       0.16525701       0.33347397       0.55463499 </v>
    <v>       0.16512718       0.66677929       0.05456288 </v>
    <v>       0.16525701       0.66652603       0.55463499 </v>
    <v>       0.17348520      -0.00000000       0.28123925 </v>
   </varray>
  </structure>
  <varray name="forces" >
   <v>      -0.00000000       0.01583776      -0.00984947 </v>
   <v>      -0.00000000       0.03432325      -0.02277388 </v>
   <v>       0.00475313       0.01778376      -0.00864114 </v>
   <v>       0.00731937       0.02566389      -0.01647797 </v>
   <v>      -0.00475313       0.01778376      -0.00864114 </v>
   <v>      -0.00731937       0.02566389      -0.01647797 </v>
   <v>       0.02749966      -0.21875417       0.03265466 </v>
   <v>      -0.00001284      -0.02521737      -0.00387589 </v>
   <v>      -0.00000000      -0.03632098       0.00915508 </v>
   <v>      -0.00000000      -0.02410186      -0.00059648 </v>
   <v>      -0.02749966      -0.21875417       0.03265466 </v>
[...]
   <v>       0.00000000      -0.00368494       0.00049400 </v>
   <v>      -0.00041697       0.00279626       0.00093651 </v>
   <v>       0.00068554      -0.00336133       0.00018644 </v>
   <v>      -0.00201943       0.00424118       0.00023543 </v>
   <v>       0.00029836      -0.00074256       0.00374012 </v>
   <v>       0.00000000       0.00503583       0.00308852 </v>
   <v>       0.00000000      -0.00098654       0.00179762 </v>
   <v>       0.00201943       0.00424118       0.00023543 </v>
   <v>      -0.00029836      -0.00074256       0.00374012 </v>
   <v>       0.00000000      -0.00027477       0.00161997 </v>
   <v>       0.00000000      -0.00087887      -0.00022088 </v>
   <v>      -0.00014165       0.00020190       0.00001502 </v>
   <v>      -0.00044827      -0.00166200      -0.00157344 </v>
   <v>       0.00014165       0.00020190       0.00001502 </v>
   <v>       0.00044827      -0.00166200      -0.00157344 </v>
   <v>       0.00000000      -0.00131822      -0.00122581 </v>
  </varray>
  <varray name="stress" >
   <v>      59.07724425       0.00000000       0.00000000 </v>
   <v>       0.00000000      53.55738005      -0.20743601 </v>
   <v>       0.00000000      -0.20743572      54.66341889 </v>
  </varray>
  <energy>
   <i name="e_fr_energy">   -713.38831653 </i>
   <i name="e_wo_entrp">   -713.35578630 </i>
   <i name="e_0_energy">   -713.37205142 </i>
  </energy>
  <time name="totalsc">   12.01   12.01</time>
 </calculation>
 <calculation>
  <scstep>
   <time name="dav">    1.88    1.88</time>
   <time name="total">    2.27    2.27</time>
   <energy>
    <i name="alphaZ">   5530.94812622 </i>
    <i name="ewald"> -88767.26476681 </i>
    <i name="hartreedc"> -33683.51303137 </i>
    <i name="XCdc">   4198.75966542 </i>
    <i name="pawpsdc"> 119525.83119224 </i>
    <i name="pawaedc">-135918.84572474 </i>
    <i name="eentropy">     -0.03257605 </i>
    <i name="bandstr">  -5703.57196624 </i>
    <i name="atom"> 134104.30092448 </i>
    <i name="e_fr_energy">   -713.38815684 </i>
    <i name="e_wo_entrp">   -713.35558079 </i>
    <i name="e_0_energy">   -713.37186882 </i>
   </energy>
  </scstep>
  <scstep>
   <time name="diag">    0.24    0.24</time>
   <time name="diis">    2.44    2.44</time>
   <time name="orth">    0.03    0.03</time>
   <time name="total">    3.10    3.10</time>
   <energy>
    <i name="e_fr_energy">   -713.38824482 </i>
    <i name="e_wo_entrp">   -713.35574056 </i>
    <i name="e_0_energy">   -713.37199269 </i>
   </energy>
  </scstep>
  <scstep>
   <time name="diag">    0.24    0.24</time>
   <time name="diis">    2.49    2.49</time>
   <time name="orth">    0.03    0.03</time>
   <time name="total">    3.15    3.15</time>
   <energy>
    <i name="e_fr_energy">   -713.38826741 </i>
    <i name="e_wo_entrp">   -713.35565485 </i>
    <i name="e_0_energy">   -713.37196113 </i>
   </energy>
  </scstep>
  <scstep>
   <time name="diag">    0.24    0.24</time>
   <time name="diis">    1.35    1.35</time>
   <time name="orth">    0.03    0.03</time>
   <time name="total">    1.74    1.74</time>
   <energy>
    <i name="alphaZ">   5530.94812622 </i>
    <i name="ewald"> -88767.26476681 </i>
    <i name="hartreedc"> -33683.49462724 </i>
    <i name="XCdc">   4198.75899074 </i>
    <i name="pawpsdc"> 119525.66709647 </i>
    <i name="pawaedc">-135918.67803961 </i>
    <i name="eentropy">     -0.03254572 </i>
    <i name="bandstr">  -5703.59342664 </i>
    <i name="atom"> 134104.30092448 </i>
    <i name="e_fr_energy">   -713.38826810 </i>
    <i name="e_wo_entrp">   -713.35572238 </i>
    <i name="e_0_energy">   -713.37199524 </i>
   </energy>
  </scstep>
  <structure>
   <crystal>
    <varray name="basis" >
     <v>       0.00000000      12.28047342       0.00000000 </v>
     <v>       9.14270205       0.00000000       0.00000000 </v>
     <v>       0.00000000      -2.76826177     -11.30069772 </v>
    </varray>
    <i name="volume">   1268.80515525 </i>
    <varray name="rec_basis" >
     <v>       0.00000000       0.08143009      -0.01994742 </v>
     <v>       0.10937686      -0.00000000       0.00000000 </v>
     <v>       0.00000000       0.00000000      -0.08849011 </v>
    </varray>
   </crystal>
   <varray name="positions" >
    <v>       0.65938285      -0.00000000       0.15662215 </v>
    <v>       0.65911962      -0.00000000       0.65654700 </v>
    <v>       0.65963724       0.33359506       0.15645021 </v>
    <v>       0.65906398       0.33334921       0.65670458 </v>
    <v>       0.65963724       0.66640494       0.15645021 </v>
    <v>       0.65906398       0.66665079       0.65670458 </v>
    <v>       0.84017902       0.16684560       0.34397652 </v>
    <v>       0.84075762       0.16670829       0.84327612 </v>
    <v>       0.84086382       0.50000000       0.34363802 </v>
    <v>       0.84117957       0.50000000       0.84334721 </v>
    <v>       0.84017902       0.83315440       0.34397652 </v>
    <v>       0.84075762       0.83329171       0.84327612 </v>
    <v>       0.59051483       0.16650035       0.39725616 </v>
    <v>       0.59104711       0.16670842       0.89758394 </v>
    <v>       0.59228261       0.50000000       0.39791943 </v>
    <v>       0.59113619       0.50000000       0.89770160 </v>
    <v>       0.59051483       0.83349965       0.39725616 </v>
    <v>       0.59104711       0.83329158       0.89758394 </v>
    <v>       0.90804966      -0.00000000       0.10239711 </v>
    <v>       0.90873916      -0.00000000       0.60206960 </v>
    <v>       0.90842386       0.33356031       0.10242185 </v>
    <v>       0.90856365       0.33346426       0.60229300 </v>
    <v>       0.90842386       0.66643969       0.10242185 </v>
    <v>       0.90856365       0.66653574       0.60229300 </v>
    <v>       0.16057511       0.16475826       0.15973423 </v>
    <v>       0.15834715       0.16645690       0.65597861 </v>
    <v>       0.15866432       0.50000000       0.15749095 </v>
    <v>       0.15867606       0.50000000       0.65689544 </v>
    <v>       0.16057511       0.83524174       0.15973423 </v>
    <v>       0.15834715       0.83354310       0.65597861 </v>
    <v>       0.33993024      -0.00000000       0.34119374 </v>
    <v>       0.34054783      -0.00000000       0.84294553 </v>
    <v>       0.34175377       0.33412821       0.34268939 </v>
    <v>       0.34065401       0.33352260       0.84307434 </v>
    <v>       0.34175377       0.66587179       0.34268939 </v>
    <v>       0.34065401       0.66647740       0.84307434 </v>
    <v>       0.09118388      -0.00000000       0.39466124 </v>
    <v>       0.09032695      -0.00000000       0.89664727 </v>
    <v>       0.09041581       0.33301387       0.39782506 </v>
    <v>       0.09144859       0.33297961       0.89868533 </v>
    <v>       0.09041581       0.66698613       0.39782506 </v>
    <v>       0.09144859       0.66702039       0.89868533 </v>
    <v>       0.41041717       0.16732021       0.10153683 </v>
    <v>       0.40910666       0.16667126       0.60290734 </v>
    <v>       0.40916294       0.50000000       0.10230156 </v>
    <v>       0.40888120       0.50000000       0.60239966 </v>
    <v>       0.41041717       0.83267979       0.10153683 </v>
    <v>       0.40910666       0.83332874       0.60290734 </v>
    <v>       0.99567360       0.16661032       0.12569079 </v>
    <v>       0.99583283       0.16683431       0.62779465 </v>
    <v>       0.99586642       0.50000000       0.12750364 </v>
    <v>       0.99611473       0.50000000       0.62746635 </v>
    <v>       0.99567360       0.83338968       0.12569079 </v>
    <v>       0.99583283       0.83316569       0.62779465 </v>
    <v>       0.50278459      -0.00000000       0.37224860 </v>
    <v>       0.50348428      -0.00000000       0.87248920 </v>
    <v>       0.50443967       0.33398319       0.37301332 </v>
    <v>       0.50348733       0.33338876       0.87258014 </v>
    <v>       0.50443967       0.66601681       0.37301332 </v>
    <v>       0.50348733       0.66661124       0.87258014 </v>
    <v>       0.67213252       0.16661603       0.28018413 </v>
    <v>       0.67241281       0.16667739       0.78036192 </v>
    <v>       0.67282193       0.50000000       0.28011746 </v>
    <v>       0.67252165       0.50000000       0.78052614 </v>
    <v>       0.67213252       0.83338397       0.28018413 </v>
    <v>       0.67241281       0.83332261       0.78036192 </v>
    <v>       0.82727544      -0.00000000       0.21993912 </v>
    <v>       0.82728726      -0.00000000       0.71946010 </v>
    <v>       0.82736012       0.33327939       0.21978370 </v>
    <v>       0.82733047       0.33338026       0.71968574 </v>
    <v>       0.82736012       0.66672061       0.21978370 </v>
    <v>       0.82733047       0.66661974       0.71968574 </v>
    <v>       0.83051558      -0.00000000       0.44605941 </v>
    <v>       0.83167300      -0.00000000       0.94560069 </v>
    <v>       0.83071370       0.33378587       0.44609963 </v>
    <v>       0.83189939       0.33339542       0.94569188 </v>
    <v>       0.83071370       0.66621413       0.44609963 </v>
    <v>       0.83189939       0.66660458       0.94569188 </v>
    <v>       0.66827966       0.16664946       0.05400088 </v>
    <v>       0.66719482       0.16658322       0.55403896 </v>
    <v>       0.66909055       0.50000000       0.05385438 </v>
    <v>       0.66810397       0.50000000       0.55471565 </v>
    <v>       0.66827966       0.83335054       0.05400088 </v>
    <v>       0.66719482       0.83341678       0.55403896 </v>
    <v>       0.49700780      -0.00000000       0.12639617 </v>
    <v>       0.49643972      -0.00000000       0.62808317 </v>
    <v>       0.49750473       0.33419718       0.12612424 </v>
    <v>       0.49643877       0.33336196       0.62801759 </v>
    <v>       0.49750473       0.66580282       0.12612424 </v>
    <v>       0.49643877       0.66663804       0.62801759 </v>
    <v>       0.00187245       0.16734422       0.37449295 </v>
    <v>       0.00324060       0.16680676       0.87274882 </v>
    <v>       0.00310360       0.50000000       0.37333454 </v>
    <v>       0.00405532       0.50000000       0.87338224 </v>
    <v>       0.00187245       0.83265578       0.37449295 </v>
    <v>       0.00324060       0.83319324       0.87274882 </v>
    <v>       0.17218116      -0.00000000       0.77998392 </v>
    <v>       0.17284291       0.33547994       0.28166266 </v>
    <v>       0.17233480       0.33308493       0.78078603 </v>
    <v>       0.17284291       0.66452006       0.28166266 </v>
    <v>       0.17233480       0.66691507       0.78078603 </v>
    <v>       0.33082581       0.17114515       0.21899759 </v>
    <v>       0.32704308       0.16648517       0.71926384 </v>
    <v>       0.32781513       0.50000000       0.21924885 </v>
    <v>       0.32728725       0.50000000       0.71956211 </v>
    <v>       0.33082581       0.82885485       0.21899759 </v>
    <v>       0.32704308       0.83351483       0.71926384 </v>
    <v>       0.33394512       0.16748279       0.44585901 </v>
    <v>       0.33240391       0.16676388       0.94538009 </v>
    <v>       0.33325877       0.50000000       0.44585954 </v>
    <v>       0.33168317       0.50000000       0.94583712 </v>
    <v>       0.33394512       0.83251721       0.44585901 </v>
    <v>       0.33240391       0.83323612       0.94538009 </v>
    <v>       0.17035119      -0.00000000       0.05194389 </v>
    <v>       0.16582191      -0.00000000       0.55364322 </v>
    <v>       0.16712591       0.33223431       0.05572788 </v>
    <v>       0.16773892       0.33344793       0.55442296 </v>
    <v>       0.16712591       0.66776569       0.05572788 </v>
    <v>       0.16773892       0.66655207       0.55442296 </v>
    <v>       0.17336967      -0.00000000       0.27836116 </v>
   </varray>
  </structure>
  <varray name="forces" >
   <v>       0.00000000       0.00328270       0.00387395 </v>
   <v>       0.00000000      -0.00154782      -0.00316536 </v>
   <v>      -0.00049884       0.00065792       0.00355069 </v>
   <v>      -0.00092955      -0.00181225      -0.00147092 </v>
   <v>       0.00049884       0.00065792       0.00355069 </v>
   <v>       0.00092955      -0.00181225      -0.00147092 </v>
   <v>      -0.00142831       0.00240887       0.00120101 </v>
   <v>       0.00272244      -0.00071428      -0.00406319 </v>
   <v>       0.00000000      -0.00070968      -0.00233965 </v>
   <v>       0.00000000       0.00063865      -0.00350724 </v>
   <v>       0.00142831       0.00240887       0.00120101 </v>
   <v>      -0.00272244      -0.00071428      -0.00406319 </v>
   <v>      -0.00249951       0.00220846      -0.00181009 </v>
   <v>      -0.00180664      -0.00646206       0.00106071 </v>
   <v>       0.00000000       0.00300031      -0.00210718 </v>
   <v>       0.00000000      -0.00015531      -0.00020833 </v>
   <v>       0.00249951       0.00220846      -0.00181009 </v>
   <v>       0.00180664      -0.00646206       0.00106071 </v>
   <v>       0.00000000       0.00658362      -0.00361191 </v>
   <v>       0.00000000      -0.00553847       0.00229302 </v>
   <v>       0.00177650       0.00391449      -0.00001581 </v>
   <v>      -0.00007573      -0.00382141      -0.00007119 </v>
   <v>      -0.00177650       0.00391449      -0.00001581 </v>
   <v>       0.00007573      -0.00382141      -0.00007119 </v>
   <v>       0.00042949       0.00486210      -0.00401769 </v>
   <v>       0.00057637      -0.00422098       0.00236456 </v>
   <v>       0.00000000       0.00505692      -0.00232463 </v>
   <v>       0.00000000      -0.00596705       0.00031089 </v>
   <v>      -0.00042949       0.00486210      -0.00401769 </v>
   <v>      -0.00057637      -0.00422098       0.00236456 </v>
   <v>       0.00000000       0.00406362       0.00482896 </v>
   <v>       0.00000000      -0.00099365       0.00556089 </v>
   <v>      -0.00082248       0.00564997       0.00007844 </v>
   <v>      -0.00200329      -0.00639395       0.00263096 </v>
   <v>       0.00082248       0.00564997       0.00007844 </v>
   <v>       0.00200329      -0.00639395       0.00263096 </v>
   <v>       0.00000000       0.00385689      -0.00084178 </v>
   <v>       0.00000000       0.00181217      -0.00228120 </v>
   <v>      -0.00052683       0.00373516       0.00021547 </v>
   <v>       0.00417709      -0.00036636      -0.00179120 </v>
   <v>       0.00052683       0.00373516       0.00021547 </v>
   <v>      -0.00417709      -0.00036636      -0.00179120 </v>
   <v>       0.00060496       0.00207340       0.00528493 </v>
   <v>       0.00159181      -0.00358013      -0.00201588 </v>
   <v>       0.00000000       0.00209905       0.00106172 </v>
   <v>       0.00000000      -0.00540737      -0.00067504 </v>
   <v>      -0.00060496       0.00207340       0.00528493 </v>
   <v>      -0.00159181      -0.00358013      -0.00201588 </v>
   <v>      -0.00125041      -0.00019849      -0.00425174 </v>
   <v>       0.00112383      -0.00583023       0.00114823 </v>
   <v>       0.00000000      -0.00126100      -0.00291468 </v>
   <v>       0.00000000      -0.00576901      -0.00140785 </v>
   <v>       0.00125041      -0.00019849      -0.00425174 </v>
   <v>      -0.00112383      -0.00583023       0.00114823 </v>
   <v>       0.00000000       0.00593003       0.00330631 </v>
   <v>       0.00000000       0.00010782       0.00164806 </v>
   <v>       0.00004656       0.00360913       0.00161370 </v>
   <v>      -0.00177955      -0.00199728       0.00088005 </v>
   <v>      -0.00004656       0.00360913       0.00161370 </v>
   <v>       0.00177955      -0.00199728       0.00088005 </v>
   <v>      -0.00024798      -0.00083823       0.00083206 </v>
   <v>       0.00144355       0.00203014      -0.00012066 </v>
   <v>       0.00000000      -0.00095281      -0.00039076 </v>
   <v>       0.00000000      -0.00062954      -0.00131452 </v>
   <v>       0.00024798      -0.00083823       0.00083206 </v>
   <v>      -0.00144355       0.00203014      -0.00012066 </v>
   <v>       0.00000000      -0.00037054       0.00069589 </v>
   <v>       0.00000000      -0.00078416      -0.00392259 </v>
   <v>      -0.00025448       0.00075354      -0.00136749 </v>
   <v>       0.00038228      -0.00102191      -0.00071442 </v>
   <v>       0.00025448       0.00075354      -0.00136749 </v>
   <v>      -0.00038228      -0.00102191      -0.00071442 </v>
   <v>       0.00000000      -0.00352984       0.00355798 </v>
   <v>       0.00000000       0.00155777      -0.00006176 </v>
   <v>       0.00008569      -0.00393616       0.00336967 </v>
   <v>      -0.00074433       0.00333465      -0.00042594 </v>
   <v>      -0.00008569      -0.00393616       0.00336967 </v>
   <v>       0.00074433       0.00333465      -0.00042594 </v>
   <v>       0.00110811      -0.00068541      -0.00152334 </v>
   <v>       0.00016961      -0.00087558      -0.00104023 </v>
   <v>       0.00000000       0.00007543      -0.00059001 </v>
   <v>       0.00000000      -0.00171705      -0.00384117 </v>
   <v>      -0.00110811      -0.00068541      -0.00152334 </v>
   <v>      -0.00016961      -0.00087558      -0.00104023 </v>
   <v>       0.00000000      -0.00100507       0.00802576 </v>
   <v>       0.00000000      -0.00178644      -0.00066295 </v>
   <v>       0.00038395       0.00046146       0.00146971 </v>
   <v>      -0.00241977      -0.00170136      -0.00096811 </v>
   <v>      -0.00038395       0.00046146       0.00146971 </v>
   <v>       0.00241977      -0.00170136      -0.00096811 </v>
   <v>       0.00067696      -0.00087542       0.00008552 </v>
   <v>      -0.00013226       0.00025866       0.00086449 </v>
   <v>       0.00000000       0.00034226       0.00019033 </v>
   <v>       0.00000000       0.00116958      -0.00304620 </v>
   <v>      -0.00067696      -0.00087542       0.00008552 </v>
   <v>       0.00013226       0.00025866       0.00086449 </v>
   <v>       0.00000000      -0.00184826      -0.00244089 </v>
   <v>      -0.00100757       0.00300173      -0.00368188 </v>
   <v>       0.00093536      -0.00296188       0.00158807 </v>
   <v>       0.00100757       0.00300173      -0.00368188 </v>
   <v>      -0.00093536      -0.00296188       0.00158807 </v>
   <v>       0.00003543       0.00197082       0.00045149 </v>
   <v>      -0.00069636      -0.00046885       0.00443415 </v>
   <v>       0.00000000       0.00233540      -0.00002206 </v>
   <v>       0.00000000      -0.00063454       0.00121531 </v>
   <v>      -0.00003543       0.00197082       0.00045149 </v>
   <v>       0.00069636      -0.00046885       0.00443415 </v>
   <v>       0.00008728       0.00495460       0.00077178 </v>
   <v>       0.00061673      -0.00110261       0.00012550 </v>
   <v>       0.00000000       0.00711423      -0.00348085 </v>
   <v>       0.00000000      -0.00153635       0.00078980 </v>
   <v>      -0.00008728       0.00495460       0.00077178 </v>
   <v>      -0.00061673      -0.00110261       0.00012550 </v>
   <v>       0.00000000      -0.00002292      -0.00248643 </v>
   <v>       0.00000000      -0.00137661       0.00171000 </v>
   <v>       0.00216300       0.00106079      -0.00200997 </v>
   <v>       0.00074782      -0.00251260       0.00022968 </v>
   <v>      -0.00216300       0.00106079      -0.00200997 </v>
   <v>      -0.00074782      -0.00251260       0.00022968 </v>
   <v>       0.00000000       0.00538013       0.00279385 </v>
  </varray>
  <varray name="stress" >
   <v>      59.06948949       0.00000000       0.00000000 </v>
   <v>       0.00000000      53.55865411      -0.21311507 </v>
   <v>       0.00000000      -0.21311374      54.64852951 </v>
  </varray>
  <energy>
   <i name="e_fr_energy">   -713.38826810 </i>
   <i name="e_wo_entrp">   -713.35572238 </i>
   <i name="e_0_energy">   -713.37199524 </i>
  </energy>
