 running    4 mpi-ranks, on    1 nodes
 distrk:  each k-point on    1 cores,    4 groups
 distr:  one band on    1 cores,    1 groups
 OpenACC runtime initialized ...    4 GPUs detected
 vasp.6.4.2 20Jul23 (build Nov 12 2023 22:16:35) complex                         
 POSCAR found type information on POSCAR GaO P 
 POSCAR found :  3 types and     120 ions
 scaLAPACK will be used selectively (only on CPU)
 LDA part: xc-table for Pade appr. of Perdew
 POSCAR, INCAR and KPOINTS ok, starting setup
 FFT: planning ... GRIDC
 FFT: planning ... GRID_SOFT
 FFT: planning ... GRID
 WAVECAR not read
 initial charge from wavefunction
 entering main loop
       N       E                     dE             d eps       ncg     rms          ort
DAV:   1    -0.187091038784E+05   -0.18709E+05   -0.54296E+05  5064   0.747E+03
DAV:   2    -0.630310848448E+05   -0.44322E+05   -0.42927E+05  5064   0.122E+03
DAV:   3    -0.677400671108E+05   -0.47090E+04   -0.42341E+04  5064   0.360E+02
DAV:   4    -0.683388053687E+05   -0.59874E+03   -0.51550E+03  5064   0.108E+02
DAV:   5    -0.381273828728E+05    0.30211E+05   -0.73245E+02  5064   0.548E+01
 gam= 0.000 g(H,U,f)=  0.715E+05 0.236E+05 0.165E+04 ort(H,U,f) = 0.000E+00 0.000E+00 0.000E+00
SDA:   6     0.225069708618E+05    0.60634E+05   -0.73245E+02  5064   0.968E+05 0.000E+00
 gam= 0.000 trial= 0.400  step= 0.311 mean= 0.400
 gam= 0.431 g(H,U,f)=  0.186E+05 0.156E+05 0.749E+04 ort(H,U,f) = 0.483E+04-0.121E+05-0.617E+04
CGA:   7     0.576531565797E+04   -0.16742E+05   -0.15045E+05  5064   0.417E+05-0.134E+05
 gam= 0.431 trial= 0.396  step= 0.220 mean= 0.396
 gam= 0.225 g(H,U,f)=  0.652E+04 0.260E+04 0.255E+03 ort(H,U,f) =-0.763E+03 0.271E+04 0.484E+03
CGA:   8     0.186901246288E+04   -0.38963E+04   -0.39621E+04  5064   0.938E+04 0.243E+04
 gam= 0.225 trial= 0.387  step= 0.234 mean= 0.387
 gam= 0.653 g(H,U,f)=  0.375E+04 0.230E+04 0.704E+02 ort(H,U,f) = 0.747E+03-0.391E+03-0.440E+02
CGA:   9     0.793765205133E+03   -0.10752E+04   -0.11629E+04  5064   0.612E+04 0.312E+03
 gam= 0.653 trial= 0.379  step= 0.214 mean= 0.379
 gam= 0.947 g(H,U,f)=  0.224E+04 0.337E+04 0.178E+03 ort(H,U,f) = 0.145E+03-0.157E+03 0.147E+02
CGA:  10     0.277288255978E+03   -0.51648E+03   -0.67737E+03  5064   0.579E+04 0.211E+01
 gam= 0.947 trial= 0.371  step= 0.217 mean= 0.371
 gam= 0.445 g(H,U,f)=  0.200E+04 0.560E+03 0.144E+02 ort(H,U,f) =-0.176E+03 0.414E+03 0.900E+01
CGA:  11    -0.151363888013E+03   -0.42865E+03   -0.62823E+03  5064   0.258E+04 0.247E+03
 gam= 0.445 trial= 0.363  step= 0.316 mean= 0.363
 gam= 0.276 g(H,U,f)=  0.632E+03 0.791E+02 0.451E+00 ort(H,U,f) = 0.148E+03 0.136E+03 0.472E+00
CGA:  12    -0.559411104035E+03   -0.40805E+03   -0.42518E+03  5064   0.711E+03 0.284E+03
 gam= 0.276 trial= 0.361  step= 0.461 mean= 0.361
 gam= 0.456 g(H,U,f)=  0.277E+03 0.458E+02 0.208E+01 ort(H,U,f) =-0.298E+02 0.556E+02 0.157E+01
CGA:  13    -0.743978928703E+03   -0.18457E+03   -0.18216E+03  5064   0.324E+03 0.273E+02
 gam= 0.456 trial= 0.366  step= 0.602 mean= 0.366
 gam= 0.519 g(H,U,f)=  0.142E+03 0.259E+02 0.442E+00 ort(H,U,f) =-0.369E+02 0.408E+02 0.872E+00
CGA:  14    -0.847829787852E+03   -0.10385E+03   -0.10138E+03  5064   0.168E+03 0.479E+01
 gam= 0.519 trial= 0.378  step= 0.596 mean= 0.378
 gam= 0.565 g(H,U,f)=  0.838E+02 0.105E+02 0.793E+00 ort(H,U,f) =-0.325E+02 0.204E+02 0.158E+01
CGA:  15    -0.896797728971E+03   -0.48968E+02   -0.50871E+02  5064   0.951E+02-0.104E+02
 gam= 0.565 trial= 0.389  step= 0.648 mean= 0.389
 gam= 0.523 g(H,U,f)=  0.448E+02 0.485E+01 0.932E-01 ort(H,U,f) =-0.180E+02 0.474E+01 0.340E+00
CGA:  16    -0.923521731525E+03   -0.26724E+02   -0.28888E+02  5064   0.498E+02-0.129E+02
 gam= 0.523 trial= 0.402  step= 0.581 mean= 0.402
 gam= 0.551 g(H,U,f)=  0.241E+02 0.331E+01 0.219E-01 ort(H,U,f) =-0.527E+01 0.232E+00 0.642E-01
CGA:  17    -0.935317563261E+03   -0.11796E+02   -0.12481E+02  5064   0.274E+02-0.497E+01
 gam= 0.551 trial= 0.411  step= 0.574 mean= 0.411
 gam= 0.525 g(H,U,f)=  0.122E+02 0.221E+01 0.178E-02 ort(H,U,f) =-0.111E+01 0.463E+00 0.570E-02
CGA:  18    -0.942331916448E+03   -0.70144E+01   -0.70776E+01  5064   0.144E+02-0.639E+00
 gam= 0.525 trial= 0.419  step= 0.538 mean= 0.419
 gam= 0.499 g(H,U,f)=  0.590E+01 0.127E+01 0.103E-01 ort(H,U,f) =-0.102E+01 0.950E+00 0.257E-01
CGA:  19    -0.946108547066E+03   -0.37766E+01   -0.37816E+01  5064   0.718E+01-0.429E-01
 gam= 0.499 trial= 0.425  step= 0.596 mean= 0.425
 gam= 0.557 g(H,U,f)=  0.346E+01 0.536E+00 0.332E-02 ort(H,U,f) =-0.684E+00 0.712E+00 0.114E-01
CGA:  20    -0.948244464633E+03   -0.21359E+01   -0.21333E+01  5064   0.400E+01 0.390E-01
 gam= 0.557 trial= 0.433  step= 0.570 mean= 0.433
 gam= 0.474 g(H,U,f)=  0.164E+01 0.254E+00 0.878E-03 ort(H,U,f) =-0.331E+00 0.359E+00 0.293E-02
CGA:  21    -0.949393892257E+03   -0.11494E+01   -0.11471E+01  5064   0.190E+01 0.310E-01
 gam= 0.474 trial= 0.440  step= 0.581 mean= 0.440
 gam= 0.530 g(H,U,f)=  0.902E+00 0.103E+00 0.625E-03 ort(H,U,f) =-0.134E+00 0.143E+00-0.232E-02
CGA:  22    -0.949949968664E+03   -0.55608E+00   -0.55565E+00  5064   0.101E+01 0.647E-02
 gam= 0.530 trial= 0.447  step= 0.553 mean= 0.447
 gam= 0.505 g(H,U,f)=  0.446E+00 0.596E-01 0.156E-02 ort(H,U,f) =-0.280E-01 0.342E-01-0.288E-02
CGA:  23    -0.950228790853E+03   -0.27882E+00   -0.27865E+00  5064   0.507E+00 0.332E-02
 gam= 0.505 trial= 0.452  step= 0.523 mean= 0.452
 gam= 0.484 g(H,U,f)=  0.207E+00 0.369E-01 0.163E-02 ort(H,U,f) =-0.201E-01 0.212E-01 0.880E-04
CGA:  24    -0.950361836856E+03   -0.13305E+00   -0.13300E+00  5064   0.245E+00 0.119E-02
 gam= 0.484 trial= 0.456  step= 0.541 mean= 0.456
 gam= 0.510 g(H,U,f)=  0.104E+00 0.205E-01 0.933E-03 ort(H,U,f) =-0.190E-01 0.177E-01 0.128E-02
CGA:  25    -0.950428407747E+03   -0.66571E-01   -0.66576E-01  5064   0.125E+00-0.612E-04
 gam= 0.510 trial= 0.460  step= 0.574 mean= 0.460
 gam= 0.503 g(H,U,f)=  0.521E-01 0.105E-01 0.298E-03 ort(H,U,f) =-0.137E-01 0.124E-01 0.830E-03
CGA:  26    -0.950464278466E+03   -0.35871E-01   -0.35895E-01  5064   0.629E-01-0.396E-03
 gam= 0.503 trial= 0.466  step= 0.591 mean= 0.466
 gam= 0.515 g(H,U,f)=  0.282E-01 0.413E-02 0.520E-04 ort(H,U,f) =-0.678E-02 0.632E-02 0.251E-03
CGA:  27    -0.950482801256E+03   -0.18523E-01   -0.18537E-01  5064   0.324E-01-0.209E-03
 gam= 0.515 trial= 0.472  step= 0.606 mean= 0.472
 gam= 0.519 g(H,U,f)=  0.148E-01 0.204E-02 0.626E-05 ort(H,U,f) =-0.200E-02 0.195E-02 0.164E-04
CGA:  28    -0.950492576009E+03   -0.97748E-02   -0.97771E-02  5064   0.168E-01-0.292E-04
 gam= 0.519 trial= 0.479  step= 0.585 mean= 0.479
 gam= 0.503 g(H,U,f)=  0.740E-02 0.105E-02 0.862E-05 ort(H,U,f) =-0.628E-03 0.683E-03-0.223E-04
CGA:  29    -0.950497486766E+03   -0.49108E-02   -0.49093E-02  5064   0.846E-02 0.325E-04
 gam= 0.503 trial= 0.484  step= 0.601 mean= 0.484
 gam= 0.529 g(H,U,f)=  0.381E-02 0.650E-03 0.113E-04 ort(H,U,f) =-0.181E-03 0.206E-03-0.850E-05
CGA:  30    -0.950500032714E+03   -0.25459E-02   -0.25451E-02  5064   0.447E-02 0.166E-04
 gam= 0.529 trial= 0.490  step= 0.611 mean= 0.490
 gam= 0.529 g(H,U,f)=  0.191E-02 0.449E-03 0.872E-05 ort(H,U,f) =-0.243E-03 0.241E-03 0.459E-05
CGA:  31    -0.950501403669E+03   -0.13710E-02   -0.13708E-02  5064   0.237E-02 0.319E-05
 gam= 0.529 trial= 0.496  step= 0.604 mean= 0.496
 gam= 0.521 g(H,U,f)=  0.102E-02 0.211E-03 0.425E-05 ort(H,U,f) =-0.225E-03 0.233E-03 0.744E-05
CGA:  32    -0.950502120563E+03   -0.71689E-03   -0.71602E-03  5064   0.123E-02 0.162E-04
 gam= 0.521 trial= 0.501  step= 0.615 mean= 0.501
 gam= 0.549 g(H,U,f)=  0.575E-03 0.102E-03 0.119E-05 ort(H,U,f) =-0.926E-04 0.115E-03 0.411E-05
CGA:  33    -0.950502503715E+03   -0.38315E-03   -0.38166E-03  5064   0.678E-03 0.265E-04
 gam= 0.549 trial= 0.507  step= 0.609 mean= 0.507
 gam= 0.532 g(H,U,f)=  0.316E-03 0.442E-04 0.156E-06 ort(H,U,f) =-0.323E-04 0.492E-04 0.836E-06
CGA:  34    -0.950502715522E+03   -0.21181E-03   -0.21090E-03  5064   0.360E-03 0.177E-04
 gam= 0.532 trial= 0.512  step= 0.589 mean= 0.512
 gam= 0.517 g(H,U,f)=  0.166E-03 0.201E-04 0.112E-06 ort(H,U,f) =-0.107E-04 0.124E-04-0.334E-06
CGA:  35    -0.950502824543E+03   -0.10902E-03   -0.10897E-03  5064   0.186E-03 0.135E-05
 gam= 0.517 trial= 0.516  step= 0.608 mean= 0.516
 gam= 0.529 g(H,U,f)=  0.853E-04 0.130E-04 0.192E-06 ort(H,U,f) =-0.976E-05 0.345E-05-0.262E-06
CGA:  36    -0.950502881054E+03   -0.56510E-04   -0.56812E-04  5064   0.986E-04-0.657E-05
 gam= 0.529 trial= 0.521  step= 0.616 mean= 0.521
 gam= 0.000 g(H,U,f)=  0.429E-04 0.734E-05 0.179E-06 ort(H,U,f) =-0.794E-05 0.350E-05 0.102E-07
SDA:  37    -0.950502910113E+03   -0.29060E-04   -0.29271E-04  5064   0.505E-04-0.443E-05
 gam= 0.000 trial= 0.525  step= 0.875 mean= 0.525
 gam= 0.347 g(H,U,f)=  0.141E-04 0.333E-05 0.797E-07 ort(H,U,f) =-0.210E-05 0.416E-05 0.119E-06
CGA:  38    -0.950502932558E+03   -0.22445E-04   -0.22066E-04  5064   0.175E-04 0.217E-05
 gam= 0.347 trial= 0.543  step= 0.933 mean= 0.543
 gam= 0.666 g(H,U,f)=  0.109E-04 0.704E-06 0.149E-07 ort(H,U,f) =-0.451E-05 0.218E-05 0.521E-07
CGA:  39    -0.950502940629E+03   -0.80713E-05   -0.85149E-05  5064   0.117E-04-0.228E-05
 gam= 0.666 trial= 0.562  step= 0.519 mean= 0.562
 final diagonalization
   1 F= -.95050294E+03 E0= -.95049413E+03  d E =-.176126E-01
 writing wavefunctions
Warning: ieee_invalid is signaling
Warning: ieee_divide_by_zero is signaling
Warning: ieee_underflow is signaling
Warning: ieee_inexact is signaling
FORTRAN STOP
Warning: ieee_invalid is signaling
Warning: ieee_divide_by_zero is signaling
Warning: ieee_underflow is signaling
Warning: ieee_inexact is signaling
FORTRAN STOP
Warning: ieee_invalid is signaling
Warning: ieee_divide_by_zero is signaling
Warning: ieee_underflow is signaling
Warning: ieee_inexact is signaling
FORTRAN STOP
Warning: ieee_invalid is signaling
Warning: ieee_divide_by_zero is signaling
Warning: ieee_underflow is signaling
Warning: ieee_inexact is signaling
FORTRAN STOP
