       N       E                     dE             d eps       ncg     rms          ort
DAV:   1    -0.187091038784E+05   -0.18709E+05   -0.54296E+05  5064   0.747E+03
DAV:   2    -0.630310848448E+05   -0.44322E+05   -0.42927E+05  5064   0.122E+03
DAV:   3    -0.677400671108E+05   -0.47090E+04   -0.42341E+04  5064   0.360E+02
DAV:   4    -0.683388053687E+05   -0.59874E+03   -0.51550E+03  5064   0.108E+02
DAV:   5    -0.381273828728E+05    0.30211E+05   -0.73245E+02  5064   0.548E+01
SDA:   6     0.225069708618E+05    0.60634E+05   -0.73245E+02  5064   0.968E+05 0.000E+00
CGA:   7     0.576531565797E+04   -0.16742E+05   -0.15045E+05  5064   0.417E+05-0.134E+05
CGA:   8     0.186901246288E+04   -0.38963E+04   -0.39621E+04  5064   0.938E+04 0.243E+04
CGA:   9     0.793765205133E+03   -0.10752E+04   -0.11629E+04  5064   0.612E+04 0.312E+03
CGA:  10     0.277288255978E+03   -0.51648E+03   -0.67737E+03  5064   0.579E+04 0.211E+01
CGA:  11    -0.151363888013E+03   -0.42865E+03   -0.62823E+03  5064   0.258E+04 0.247E+03
CGA:  12    -0.559411104035E+03   -0.40805E+03   -0.42518E+03  5064   0.711E+03 0.284E+03
CGA:  13    -0.743978928703E+03   -0.18457E+03   -0.18216E+03  5064   0.324E+03 0.273E+02
CGA:  14    -0.847829787852E+03   -0.10385E+03   -0.10138E+03  5064   0.168E+03 0.479E+01
CGA:  15    -0.896797728971E+03   -0.48968E+02   -0.50871E+02  5064   0.951E+02-0.104E+02
CGA:  16    -0.923521731525E+03   -0.26724E+02   -0.28888E+02  5064   0.498E+02-0.129E+02
CGA:  17    -0.935317563261E+03   -0.11796E+02   -0.12481E+02  5064   0.274E+02-0.497E+01
CGA:  18    -0.942331916448E+03   -0.70144E+01   -0.70776E+01  5064   0.144E+02-0.639E+00
CGA:  19    -0.946108547066E+03   -0.37766E+01   -0.37816E+01  5064   0.718E+01-0.429E-01
CGA:  20    -0.948244464633E+03   -0.21359E+01   -0.21333E+01  5064   0.400E+01 0.390E-01
CGA:  21    -0.949393892257E+03   -0.11494E+01   -0.11471E+01  5064   0.190E+01 0.310E-01
CGA:  22    -0.949949968664E+03   -0.55608E+00   -0.55565E+00  5064   0.101E+01 0.647E-02
CGA:  23    -0.950228790853E+03   -0.27882E+00   -0.27865E+00  5064   0.507E+00 0.332E-02
CGA:  24    -0.950361836856E+03   -0.13305E+00   -0.13300E+00  5064   0.245E+00 0.119E-02
CGA:  25    -0.950428407747E+03   -0.66571E-01   -0.66576E-01  5064   0.125E+00-0.612E-04
CGA:  26    -0.950464278466E+03   -0.35871E-01   -0.35895E-01  5064   0.629E-01-0.396E-03
CGA:  27    -0.950482801256E+03   -0.18523E-01   -0.18537E-01  5064   0.324E-01-0.209E-03
CGA:  28    -0.950492576009E+03   -0.97748E-02   -0.97771E-02  5064   0.168E-01-0.292E-04
CGA:  29    -0.950497486766E+03   -0.49108E-02   -0.49093E-02  5064   0.846E-02 0.325E-04
CGA:  30    -0.950500032714E+03   -0.25459E-02   -0.25451E-02  5064   0.447E-02 0.166E-04
CGA:  31    -0.950501403669E+03   -0.13710E-02   -0.13708E-02  5064   0.237E-02 0.319E-05
CGA:  32    -0.950502120563E+03   -0.71689E-03   -0.71602E-03  5064   0.123E-02 0.162E-04
CGA:  33    -0.950502503715E+03   -0.38315E-03   -0.38166E-03  5064   0.678E-03 0.265E-04
CGA:  34    -0.950502715522E+03   -0.21181E-03   -0.21090E-03  5064   0.360E-03 0.177E-04
CGA:  35    -0.950502824543E+03   -0.10902E-03   -0.10897E-03  5064   0.186E-03 0.135E-05
CGA:  36    -0.950502881054E+03   -0.56510E-04   -0.56812E-04  5064   0.986E-04-0.657E-05
SDA:  37    -0.950502910113E+03   -0.29060E-04   -0.29271E-04  5064   0.505E-04-0.443E-05
CGA:  38    -0.950502932558E+03   -0.22445E-04   -0.22066E-04  5064   0.175E-04 0.217E-05
CGA:  39    -0.950502940629E+03   -0.80713E-05   -0.85149E-05  5064   0.117E-04-0.228E-05
   1 F= -.95050294E+03 E0= -.95049413E+03  d E =-.176126E-01
