<?xml version="1.0" encoding="ISO-8859-1"?>
<modeling>
 <generator>
  <i name="program" type="string">vasp </i>
  <i name="version" type="string">6.4.2  </i>
  <i name="subversion" type="string">20Jul23 (build Nov 12 2023 22:16:35) complex                          parallel </i>
  <i name="platform" type="string">LinuxNV </i>
  <i name="date" type="string">2025 03 18 </i>
  <i name="time" type="string">16:52:29 </i>
 </generator>
 <incar>
  <i type="int" name="ISTART">     0</i>
  <i type="string" name="PREC">Normal</i>
  <i type="string" name="ALGO">All</i>
  <i type="int" name="ISPIN">     1</i>
  <i type="int" name="ICHARG">     0</i>
  <i type="int" name="NELM">   500</i>
  <i type="int" name="IBRION">    -1</i>
  <i name="EDIFF">      0.00001000</i>
  <i name="EDIFFG">     -0.00500000</i>
  <i type="int" name="NSW">     0</i>
  <i type="int" name="ISIF">     2</i>
  <i name="ENCUT">    450.00000000</i>
  <i type="string" name="LREAL">Auto</i>
  <i type="logical" name="LPLANE"> T  </i>
  <i name="TIME">      0.40000000</i>
  <i type="int" name="ISMEAR">     0</i>
  <i name="SIGMA">      0.05000000</i>
  <i type="logical" name="LWAVE"> T  </i>
  <i type="logical" name="LCHARG"> T  </i>
  <i name="HFSCREEN">      0.20000000</i>
  <i type="logical" name="LHFCALC"> T  </i>
  <i type="int" name="LMAXFOCK">     4</i>
  <i name="AEXX">      0.32000000</i>
  <i type="string" name="PRECFOCK">Fast</i>
 </incar>
 <primitive_cell>
  <structure name="primitive_cell" >
   <crystal>
    <varray name="basis" >
     <v>       0.00000000      12.28047342       0.00000000 </v>
     <v>       9.14270205       0.00000000       0.00000000 </v>
     <v>       0.00000000      -2.76826177     -11.30069772 </v>
    </varray>
    <i name="volume">   1268.80515525 </i>
    <varray name="rec_basis" >
     <v>       0.00000000       0.08143009      -0.01994742 </v>
     <v>       0.10937686      -0.00000000       0.00000000 </v>
     <v>       0.00000000       0.00000000      -0.08849011 </v>
    </varray>
   </crystal>
   <varray name="positions" >
    <v>       0.65891599       0.00000000       0.15597142 </v>
    <v>       0.65941879       0.00000000       0.65602134 </v>
    <v>       0.65874031       0.33392692       0.15628865 </v>
    <v>       0.65815433       0.33337633       0.65617085 </v>
    <v>       0.65874031       0.66607308       0.15628865 </v>
    <v>       0.65815433       0.66662367       0.65617085 </v>
    <v>       0.83675626       0.16799049       0.34270879 </v>
    <v>       0.83999728       0.16722953       0.84217595 </v>
    <v>       0.84009126       0.50000000       0.34270533 </v>
    <v>       0.84031631       0.50000000       0.84303102 </v>
    <v>       0.83675626       0.83200951       0.34270879 </v>
    <v>       0.83999728       0.83277047       0.84217595 </v>
    <v>       0.58984556       0.16715905       0.39779286 </v>
    <v>       0.59209111       0.16655609       0.89801136 </v>
    <v>       0.59075698       0.50000000       0.39789338 </v>
    <v>       0.59476716       0.50000000       0.89907114 </v>
    <v>       0.58984556       0.83284095       0.39779286 </v>
    <v>       0.59209111       0.83344391       0.89801136 </v>
    <v>       0.90607561       0.00000000       0.09956758 </v>
    <v>       0.90952406       0.00000000       0.60164915 </v>
    <v>       0.90776520       0.33292620       0.10264792 </v>
    <v>       0.90767538       0.33359622       0.60179729 </v>
    <v>       0.90776520       0.66707380       0.10264792 </v>
    <v>       0.90767538       0.66640378       0.60179729 </v>
    <v>       0.15874959       0.16633240       0.15250428 </v>
    <v>       0.16098052       0.17793969       0.66319163 </v>
    <v>       0.15726680       0.50000000       0.15895989 </v>
    <v>       0.15879605       0.50000000       0.65890840 </v>
    <v>       0.15874959       0.83366760       0.15250428 </v>
    <v>       0.16098052       0.82206031       0.66319163 </v>
    <v>       0.34121679       0.00000000       0.33983326 </v>
    <v>       0.34239687       0.00000000       0.84756535 </v>
    <v>       0.33994931       0.33454927       0.34337181 </v>
    <v>       0.34513905       0.33454584       0.84761066 </v>
    <v>       0.33994931       0.66545073       0.34337181 </v>
    <v>       0.34513905       0.66545416       0.84761066 </v>
    <v>       0.07582916       0.00000000       0.37229854 </v>
    <v>       0.08960343       0.00000000       0.89555877 </v>
    <v>       0.08994384       0.33305121       0.39910539 </v>
    <v>       0.08947637       0.33347483       0.89875841 </v>
    <v>       0.08994384       0.66694879       0.39910539 </v>
    <v>       0.08947637       0.66652517       0.89875841 </v>
    <v>       0.41042883       0.16685733       0.10425497 </v>
    <v>       0.40916244       0.16592797       0.60625163 </v>
    <v>       0.40923333       0.50000000       0.10471703 </v>
    <v>       0.40787874       0.50000000       0.60383110 </v>
    <v>       0.41042883       0.83314267       0.10425497 </v>
    <v>       0.40916244       0.83407203       0.60625163 </v>
    <v>       0.99522024       0.16584021       0.12380773 </v>
    <v>       0.99660115       0.16732300       0.62591100 </v>
    <v>       0.99513691       0.50000000       0.12744488 </v>
    <v>       0.99529911       0.50000000       0.62889730 </v>
    <v>       0.99522024       0.83415979       0.12380773 </v>
    <v>       0.99660115       0.83267700       0.62591100 </v>
    <v>       0.50341227       0.00000000       0.37233325 </v>
    <v>       0.50498067       0.00000000       0.87591909 </v>
    <v>       0.50265859       0.33377677       0.37270979 </v>
    <v>       0.50714925       0.33471456       0.87672357 </v>
    <v>       0.50265859       0.66622323       0.37270979 </v>
    <v>       0.50714925       0.66528544       0.87672357 </v>
    <v>       0.67097342       0.16664721       0.28027401 </v>
    <v>       0.67212086       0.16681280       0.77975146 </v>
    <v>       0.67159713       0.50000000       0.28064928 </v>
    <v>       0.67288074       0.50000000       0.77977663 </v>
    <v>       0.67097342       0.83335279       0.28027401 </v>
    <v>       0.67212086       0.83318720       0.77975146 </v>
    <v>       0.82638632       0.00000000       0.21845775 </v>
    <v>       0.82751851       0.00000000       0.71841648 </v>
    <v>       0.82548331       0.33436759       0.21875638 </v>
    <v>       0.82683624       0.33312436       0.71930764 </v>
    <v>       0.82548331       0.66563241       0.21875638 </v>
    <v>       0.82683624       0.66687564       0.71930764 </v>
    <v>       0.83202381       0.00000000       0.44529820 </v>
    <v>       0.82995320       0.00000000       0.94343832 </v>
    <v>       0.83013580       0.33412586       0.44577688 </v>
    <v>       0.83156958       0.33333106       0.94552224 </v>
    <v>       0.83013580       0.66587414       0.44577688 </v>
    <v>       0.83156958       0.66666894       0.94552224 </v>
    <v>       0.66859245       0.16675171       0.05470606 </v>
    <v>       0.66764664       0.16687549       0.55379212 </v>
    <v>       0.67010993       0.50000000       0.05538302 </v>
    <v>       0.66761655       0.50000000       0.55424629 </v>
    <v>       0.66859245       0.83324829       0.05470606 </v>
    <v>       0.66764664       0.83312451       0.55379212 </v>
    <v>       0.49711133       0.00000000       0.12889227 </v>
    <v>       0.49759388       0.00000000       0.62900314 </v>
    <v>       0.49685364       0.33397501       0.12877038 </v>
    <v>       0.49588871       0.33357174       0.62699336 </v>
    <v>       0.49685364       0.66602499       0.12877038 </v>
    <v>       0.49588871       0.66642826       0.62699336 </v>
    <v>       0.99644445       0.17186780       0.36345925 </v>
    <v>       0.00254589       0.16691926       0.87082813 </v>
    <v>       0.00232755       0.50000000       0.37261069 </v>
    <v>       0.00265565       0.50000000       0.87312937 </v>
    <v>       0.99644445       0.82813220       0.36345925 </v>
    <v>       0.00254589       0.83308074       0.87082813 </v>
    <v>       0.17068973       0.00000000       0.26811578 </v>
    <v>       0.17462898       0.00000000       0.78281167 </v>
    <v>       0.17184892       0.33196976       0.28146216 </v>
    <v>       0.17286256       0.33523501       0.78316474 </v>
    <v>       0.17184892       0.66803024       0.28146216 </v>
    <v>       0.17286256       0.66476499       0.78316474 </v>
    <v>       0.32765462       0.16767043       0.21987306 </v>
    <v>       0.33577026       0.17368311       0.73031576 </v>
    <v>       0.32613682       0.50000000       0.22008677 </v>
    <v>       0.32864501       0.50000000       0.72277515 </v>
    <v>       0.32765462       0.83232957       0.21987306 </v>
    <v>       0.33577026       0.82631689       0.73031576 </v>
    <v>       0.33574166       0.16571887       0.44602101 </v>
    <v>       0.33234681       0.16769077       0.94918498 </v>
    <v>       0.33235711       0.50000000       0.44650439 </v>
    <v>       0.33269503       0.50000000       0.94830456 </v>
    <v>       0.33574166       0.83428113       0.44602101 </v>
    <v>       0.33234681       0.83230923       0.94918498 </v>
    <v>       0.16894423       0.00000000       0.04980490 </v>
    <v>       0.16710892       0.33484262       0.05463649 </v>
    <v>       0.16804109       0.34059329       0.55482844 </v>
    <v>       0.16710892       0.66515738       0.05463649 </v>
    <v>       0.16804109       0.65940671       0.55482844 </v>
    <v>       0.20131132       0.00000000       0.54168000 </v>
   </varray>
  </structure>
  <varray name="primitive_index" >
   <v type="int" >        1 </v>
   <v type="int" >        2 </v>
   <v type="int" >        3 </v>
   <v type="int" >        4 </v>
   <v type="int" >        5 </v>
   <v type="int" >        6 </v>
   <v type="int" >        7 </v>
   <v type="int" >        8 </v>
   <v type="int" >        9 </v>
   <v type="int" >       10 </v>
   <v type="int" >       11 </v>
   <v type="int" >       12 </v>
   <v type="int" >       13 </v>
   <v type="int" >       14 </v>
   <v type="int" >       15 </v>
   <v type="int" >       16 </v>
   <v type="int" >       17 </v>
   <v type="int" >       18 </v>
   <v type="int" >       19 </v>
   <v type="int" >       20 </v>
   <v type="int" >       21 </v>
   <v type="int" >       22 </v>
   <v type="int" >       23 </v>
   <v type="int" >       24 </v>
   <v type="int" >       25 </v>
   <v type="int" >       26 </v>
   <v type="int" >       27 </v>
   <v type="int" >       28 </v>
   <v type="int" >       29 </v>
   <v type="int" >       30 </v>
   <v type="int" >       31 </v>
   <v type="int" >       32 </v>
   <v type="int" >       33 </v>
   <v type="int" >       34 </v>
   <v type="int" >       35 </v>
   <v type="int" >       36 </v>
   <v type="int" >       37 </v>
   <v type="int" >       38 </v>
   <v type="int" >       39 </v>
   <v type="int" >       40 </v>
   <v type="int" >       41 </v>
   <v type="int" >       42 </v>
   <v type="int" >       43 </v>
   <v type="int" >       44 </v>
   <v type="int" >       45 </v>
   <v type="int" >       46 </v>
   <v type="int" >       47 </v>
   <v type="int" >       48 </v>
   <v type="int" >       49 </v>
   <v type="int" >       50 </v>
   <v type="int" >       51 </v>
   <v type="int" >       52 </v>
   <v type="int" >       53 </v>
   <v type="int" >       54 </v>
   <v type="int" >       55 </v>
   <v type="int" >       56 </v>
   <v type="int" >       57 </v>
   <v type="int" >       58 </v>
   <v type="int" >       59 </v>
   <v type="int" >       60 </v>
   <v type="int" >       61 </v>
   <v type="int" >       62 </v>
   <v type="int" >       63 </v>
   <v type="int" >       64 </v>
   <v type="int" >       65 </v>
   <v type="int" >       66 </v>
   <v type="int" >       67 </v>
   <v type="int" >       68 </v>
   <v type="int" >       69 </v>
   <v type="int" >       70 </v>
   <v type="int" >       71 </v>
   <v type="int" >       72 </v>
   <v type="int" >       73 </v>
   <v type="int" >       74 </v>
   <v type="int" >       75 </v>
   <v type="int" >       76 </v>
   <v type="int" >       77 </v>
   <v type="int" >       78 </v>
   <v type="int" >       79 </v>
   <v type="int" >       80 </v>
   <v type="int" >       81 </v>
   <v type="int" >       82 </v>
   <v type="int" >       83 </v>
   <v type="int" >       84 </v>
   <v type="int" >       85 </v>
   <v type="int" >       86 </v>
   <v type="int" >       87 </v>
   <v type="int" >       88 </v>
   <v type="int" >       89 </v>
   <v type="int" >       90 </v>
   <v type="int" >       91 </v>
   <v type="int" >       92 </v>
   <v type="int" >       93 </v>
   <v type="int" >       94 </v>
   <v type="int" >       95 </v>
   <v type="int" >       96 </v>
   <v type="int" >       97 </v>
   <v type="int" >       98 </v>
   <v type="int" >       99 </v>
   <v type="int" >      100 </v>
   <v type="int" >      101 </v>
   <v type="int" >      102 </v>
   <v type="int" >      103 </v>
   <v type="int" >      104 </v>
   <v type="int" >      105 </v>
   <v type="int" >      106 </v>
   <v type="int" >      107 </v>
   <v type="int" >      108 </v>
   <v type="int" >      109 </v>
   <v type="int" >      110 </v>
   <v type="int" >      111 </v>
   <v type="int" >      112 </v>
   <v type="int" >      113 </v>
   <v type="int" >      114 </v>
   <v type="int" >      115 </v>
   <v type="int" >      116 </v>
   <v type="int" >      117 </v>
   <v type="int" >      118 </v>
   <v type="int" >      119 </v>
   <v type="int" >      120 </v>
  </varray>
 </primitive_cell>
 <kpoints>
  <generation param="Gamma">
   <v type="int" name="divisions">       2        2        2 </v>
   <v name="usershift">      0.00000000       0.00000000       0.00000000 </v>
   <v name="genvec1">      0.50000000       0.00000000       0.00000000 </v>
   <v name="genvec2">      0.00000000       0.50000000       0.00000000 </v>
   <v name="genvec3">      0.00000000       0.00000000       0.50000000 </v>
   <v name="shift">      0.00000000       0.00000000       0.00000000 </v>
  </generation>
  <varray name="kpointlist" >
   <v>       0.00000000       0.00000000       0.00000000 </v>
   <v>       0.50000000       0.00000000       0.00000000 </v>
   <v>       0.00000000       0.50000000       0.00000000 </v>
   <v>       0.50000000       0.50000000       0.00000000 </v>
   <v>       0.00000000       0.00000000       0.50000000 </v>
   <v>       0.50000000       0.00000000       0.50000000 </v>
   <v>       0.00000000       0.50000000       0.50000000 </v>
   <v>       0.50000000       0.50000000       0.50000000 </v>
  </varray>
  <varray name="weights" >
   <v>       0.12500000 </v>
   <v>       0.12500000 </v>
   <v>       0.12500000 </v>
   <v>       0.12500000 </v>
   <v>       0.12500000 </v>
   <v>       0.12500000 </v>
   <v>       0.12500000 </v>
   <v>       0.12500000 </v>
  </varray>
 </kpoints>
 <parameters>
  <separator name="general" >
   <i type="string" name="SYSTEM">unknown system</i>
   <i type="logical" name="LCOMPAT"> F  </i>
  </separator>
  <separator name="electronic" >
   <i type="string" name="PREC">normal</i>
   <i name="ENMAX">    450.00000000</i>
   <i name="ENAUG">    605.39200000</i>
   <i name="EDIFF">      0.00001000</i>
   <i type="int" name="IALGO">    58</i>
   <i type="int" name="IWAVPR">    10</i>
   <i type="int" name="NBANDS">   633</i>
   <i type="int" name="NBANDSLOW">    -1</i>
   <i type="int" name="NBANDSHIGH">    -1</i>
   <i name="NELECT">   1055.00000000</i>
   <i type="int" name="TURBO">     0</i>
   <i type="int" name="IRESTART">     0</i>
   <i type="int" name="NREBOOT">     0</i>
   <i type="int" name="NMIN">     0</i>
   <i name="EREF">      0.00000000</i>
   <separator name="electronic smearing" >
    <i type="int" name="ISMEAR">     0</i>
    <i name="SIGMA">      0.05000000</i>
    <i name="KSPACING">      0.50000000</i>
    <i type="logical" name="KGAMMA"> T  </i>
    <i type="logical" name="KBLOWUP"> T  </i>
   </separator>
   <separator name="electronic projectors" >
    <i type="logical" name="LREAL"> T  </i>
    <v name="ROPT">     -0.00050000     -0.00050000     -0.00050000</v>
    <i type="int" name="LMAXPAW">  -100</i>
    <i type="int" name="LMAXMIX">     2</i>
    <i type="logical" name="NLSPLINE"> F  </i>
   </separator>
   <separator name="electronic startup" >
    <i type="int" name="ISTART">     0</i>
    <i type="int" name="ICHARG">     0</i>
    <i type="int" name="INIWAV">     1</i>
   </separator>
   <separator name="electronic spin" >
    <i type="int" name="ISPIN">     1</i>
    <i type="logical" name="LNONCOLLINEAR"> F  </i>
    <v name="MAGMOM">      1.00000000      1.00000000      1.00000000      1.00000000      1.00000000      1.00000000      1.00000000      1.00000000      1.00000000      1.00000000      1.00000000      1.00000000      1.00000000      1.00000000      1.00000000      1.00000000      1.00000000      1.00000000      1.00000000      1.00000000
      1.00000000      1.00000000      1.00000000      1.00000000      1.00000000      1.00000000      1.00000000      1.00000000      1.00000000      1.00000000      1.00000000      1.00000000      1.00000000      1.00000000      1.00000000      1.00000000      1.00000000      1.00000000      1.00000000      1.00000000
      1.00000000      1.00000000      1.00000000      1.00000000      1.00000000      1.00000000      1.00000000      1.00000000      1.00000000      1.00000000      1.00000000      1.00000000      1.00000000      1.00000000      1.00000000      1.00000000      1.00000000      1.00000000      1.00000000      1.00000000
      1.00000000      1.00000000      1.00000000      1.00000000      1.00000000      1.00000000      1.00000000      1.00000000      1.00000000      1.00000000      1.00000000      1.00000000      1.00000000      1.00000000      1.00000000      1.00000000      1.00000000      1.00000000      1.00000000      1.00000000
      1.00000000      1.00000000      1.00000000      1.00000000      1.00000000      1.00000000      1.00000000      1.00000000      1.00000000      1.00000000      1.00000000      1.00000000      1.00000000      1.00000000      1.00000000      1.00000000      1.00000000      1.00000000      1.00000000      1.00000000
      1.00000000      1.00000000      1.00000000      1.00000000      1.00000000      1.00000000      1.00000000      1.00000000      1.00000000      1.00000000      1.00000000      1.00000000      1.00000000      1.00000000      1.00000000      1.00000000      1.00000000      1.00000000      1.00000000      1.00000000
</v>
    <i name="NUPDOWN">     -1.00000000</i>
    <i type="logical" name="LSORBIT"> F  </i>
    <v name="SAXIS">      0.00000000      0.00000000      1.00000000</v>
    <i type="logical" name="LSPIRAL"> F  </i>
    <v name="QSPIRAL">      0.00000000      0.00000000      0.00000000</v>
    <i type="logical" name="LZEROZ"> F  </i>
   </separator>
   <separator name="electronic exchange-correlation" >
    <i type="logical" name="LASPH"> F  </i>
    <i type="logical" name="LMETAGGA"> F  </i>
   </separator>
   <separator name="electronic convergence" >
    <i type="int" name="NELM">   500</i>
    <i type="int" name="NELMDL">    -5</i>
    <i type="int" name="NELMIN">     2</i>
    <i name="ENINI">    450.00000000</i>
    <separator name="electronic convergence detail" >
     <i type="logical" name="LDIAG"> T  </i>
     <i type="logical" name="LSUBROT"> F  </i>
     <i name="WEIMIN">      0.00000000</i>
     <i name="EBREAK">      0.00000000</i>
     <i name="DEPER">      0.30000000</i>
     <i type="int" name="NRMM">     4</i>
     <i name="TIME">      0.40000000</i>
    </separator>
   </separator>
   <separator name="electronic mixer" >
    <i name="AMIX">      0.40000000</i>
    <i name="BMIX">      1.00000000</i>
    <i name="AMIN">      0.10000000</i>
    <i name="AMIX_MAG">      1.60000000</i>
    <i name="BMIX_MAG">      1.00000000</i>
    <separator name="electronic mixer details" >
     <i type="int" name="IMIX">     4</i>
     <i type="logical" name="MIXFIRST"> F  </i>
     <i type="int" name="MAXMIX">   -45</i>
     <i name="WC">    100.00000000</i>
     <i type="int" name="INIMIX">     1</i>
     <i type="int" name="MIXPRE">     1</i>
     <i type="int" name="MREMOVE">     5</i>
    </separator>
   </separator>
   <separator name="electronic dipolcorrection" >
    <i type="logical" name="LDIPOL"> F  </i>
    <i type="logical" name="LMONO"> F  </i>
    <i type="int" name="IDIPOL">     0</i>
    <i name="EPSILON">      1.00000000</i>
    <v name="DIPOL">   -100.00000000   -100.00000000   -100.00000000</v>
    <i name="EFIELD">      0.00000000</i>
   </separator>
  </separator>
  <separator name="grids" >
   <i type="int" name="NGX">    64</i>
   <i type="int" name="NGY">    48</i>
   <i type="int" name="NGZ">    60</i>
   <i type="int" name="NGXF">   128</i>
   <i type="int" name="NGYF">    96</i>
   <i type="int" name="NGZF">   120</i>
   <i type="logical" name="ADDGRID"> F  </i>
  </separator>
  <separator name="ionic" >
   <i type="int" name="NSW">     0</i>
   <i type="int" name="IBRION">    -1</i>
   <i type="int" name="MDALGO">     0</i>
   <i type="int" name="ISIF">     2</i>
   <i name="PSTRESS">      0.00000000</i>
   <i name="EDIFFG">     -0.00500000</i>
   <i type="int" name="NFREE">     0</i>
   <i name="POTIM">      0.50000000</i>
   <i name="SMASS">     -3.00000000</i>
   <i name="SCALEE">      1.00000000</i>
  </separator>
  <separator name="ionic md" >
   <i name="TEBEG">      0.00010000</i>
   <i name="TEEND">      0.00010000</i>
   <i type="int" name="NBLOCK">     1</i>
   <i type="int" name="KBLOCK">     1</i>
   <i type="int" name="NPACO">   256</i>
   <i name="APACO">     10.00000000</i>
  </separator>
  <separator name="symmetry" >
   <i type="int" name="ISYM">     3</i>
   <i name="SYMPREC">      0.00001000</i>
  </separator>
  <separator name="dos" >
   <i type="int" name="LORBIT">     0</i>
   <v name="RWIGS">     -1.00000000     -1.00000000     -1.00000000</v>
   <i type="int" name="NEDOS">   301</i>
   <i name="EMIN">     10.00000000</i>
   <i name="EMAX">    -10.00000000</i>
   <i name="EFERMI">      0.00000000</i>
  </separator>
  <separator name="writing" >
   <i type="int" name="NWRITE">     2</i>
   <i type="logical" name="LWAVE"> T  </i>
   <i type="logical" name="LDOWNSAMPLE"> F  </i>
   <i type="logical" name="LCHARG"> T  </i>
   <i type="logical" name="LPARD"> F  </i>
   <i type="logical" name="LVTOT"> F  </i>
   <i type="logical" name="LVHAR"> F  </i>
   <i type="logical" name="LELF"> F  </i>
   <i type="logical" name="LOPTICS"> F  </i>
   <v name="STM">      0.00000000      0.00000000      0.00000000      0.00000000      0.00000000      0.00000000      0.00000000</v>
  </separator>
  <separator name="performance" >
   <i type="int" name="NPAR">     1</i>
   <i type="int" name="NSIM">     4</i>
   <i type="int" name="NBLK">    -1</i>
   <i type="logical" name="LPLANE"> T  </i>
   <i type="logical" name="LSCALAPACK"> T  </i>
   <i type="logical" name="LSCAAWARE"> F  </i>
   <i type="logical" name="LSCALU"> F  </i>
   <i type="logical" name="LASYNC"> F  </i>
   <i type="logical" name="LORBITALREAL"> F  </i>
  </separator>
  <separator name="miscellaneous" >
   <i type="int" name="IDIOT">     3</i>
   <i type="int" name="PHON_NSTRUCT">    -1</i>
   <i type="logical" name="LMUSIC"> F  </i>
   <v name="POMASS">     69.72300000     16.00000000     30.97400000</v>
   <v name="DARWINR">      0.00000000      0.00000000      0.00000000</v>
   <v name="DARWINV">      1.00000000      1.00000000      1.00000000</v>
   <i type="logical" name="LCORR"> T  </i>
  </separator>
  <i type="logical" name="GGA_COMPAT"> T  </i>
  <i type="logical" name="LBERRY"> F  </i>
  <i type="int" name="ICORELEVEL">     0</i>
  <i type="logical" name="LDAU"> F  </i>
  <i type="int" name="I_CONSTRAINED_M">     0</i>
  <separator name="electronic exchange-correlation" >
   <i type="string" name="GGA">--</i>
   <i type="int" name="VOSKOWN">     0</i>
   <i type="logical" name="LHFCALC"> T  </i>
   <i type="string" name="PRECFOCK">fast</i>
   <i type="logical" name="LSYMGRAD"> F  </i>
   <i type="logical" name="LHFONE"> F  </i>
   <i type="logical" name="LRHFCALC"> F  </i>
   <i type="logical" name="LTHOMAS"> F  </i>
   <i type="logical" name="LMODELHF"> F  </i>
   <i type="logical" name="LFOCKACE"> T  </i>
   <i name="ENCUT4O">     -1.00000000</i>
   <i type="int" name="EXXOEP">     0</i>
   <i type="int" name="FOURORBIT">     0</i>
   <i name="AEXX">      0.32000000</i>
   <i name="HFALPHA">     -1.00000000</i>
   <i name="MCALPHA">      0.00000000</i>
   <i name="ALDAX">      0.68000000</i>
   <i name="AGGAX">      0.68000000</i>
   <i name="ALDAC">      1.00000000</i>
   <i name="AGGAC">      1.00000000</i>
   <i type="int" name="NKREDX">     1</i>
   <i type="int" name="NKREDY">     1</i>
   <i type="int" name="NKREDZ">     1</i>
   <i type="logical" name="SHIFTRED"> F  </i>
   <i type="logical" name="ODDONLY"> F  </i>
   <i type="logical" name="EVENONLY"> F  </i>
   <i type="int" name="LMAXFOCK">     4</i>
   <i type="int" name="NMAXFOCKAE">     1</i>
   <i type="logical" name="LFOCKAEDFT"> F  </i>
   <i name="HFSCREEN">      0.20000000</i>
   <i name="HFSCREENC">      0.20000000</i>
   <i type="int" name="NBANDSGWLOW">     1</i>
  </separator>
  <separator name="vdW DFT" >
   <i type="logical" name="LUSE_VDW"> F  </i>
   <i type="int" name="IVDW_NL">     1</i>
   <i type="logical" name="LSPIN_VDW"> F  </i>
   <i name="Zab_VDW">     -0.84910000</i>
   <i name="PARAM1">      0.12340000</i>
   <i name="PARAM2">      1.00000000</i>
   <i name="PARAM3">      0.00000000</i>
  </separator>
  <separator name="model GW" >
   <i type="int" name="MODEL_GW">     0</i>
   <i name="MODEL_EPS0">      6.34402578</i>
   <i name="MODEL_ALPHA">      1.00000000</i>
  </separator>
  <separator name="linear response parameters" >
   <i type="logical" name="LEPSILON"> F  </i>
   <i type="logical" name="LRPA"> F  </i>
   <i type="logical" name="LNABLA"> F  </i>
   <i type="logical" name="LVEL"> F  </i>
   <i name="CSHIFT">      0.10000000</i>
   <i name="OMEGAMAX">     -1.00000000</i>
   <i name="DEG_THRESHOLD">      0.00200000</i>
   <i name="RTIME">     -0.10000000</i>
   <i name="WPLASMAI">      0.00000000</i>
   <v name="DFIELD">      0.00000000      0.00000000      0.00000000</v>
   <v name="WPLASMA">      0.00000000      0.00000000      0.00000000      0.00000000      0.00000000      0.00000000      0.00000000      0.00000000      0.00000000</v>
  </separator>
  <separator name="orbital magnetization" >
   <i type="logical" name="NUCIND"> F  </i>
   <v name="MAGPOS">      0.00000000      0.00000000      0.00000000</v>
   <i type="logical" name="LNICSALL"> T  </i>
   <i type="logical" name="ORBITALMAG"> F  </i>
   <i type="logical" name="LMAGBLOCH"> F  </i>
   <i type="logical" name="LCHIMAG"> F  </i>
   <i type="logical" name="LGAUGE"> T  </i>
   <i type="int" name="MAGATOM">     0</i>
   <v name="MAGDIPOL">      0.00000000      0.00000000      0.00000000</v>
   <v name="AVECCONST">      0.00000000      0.00000000      0.00000000</v>
  </separator>
  <separator name="response functions" >
   <i type="logical" name="LALL_IN_ONE"> F  </i>
   <i type="int" name="IALL_IN_ONE">    -1</i>
   <i type="int" name="NBANDS_WAVE">    -1</i>
   <i type="logical" name="LFINITE_TEMPERATURE"> F  </i>
   <i type="logical" name="LADDER"> F  </i>
   <i type="logical" name="LRPAFORCE"> F  </i>
   <i type="logical" name="LFXC"> F  </i>
   <i type="logical" name="LHARTREE"> T  </i>
   <i type="int" name="IBSE">     0</i>
   <v type="int" name="KPOINT">    -1     0     0     0</v>
   <i type="logical" name="LTCTC"> F  </i>
   <i type="logical" name="LTCTE"> F  </i>
   <i type="logical" name="LTETE"> F  </i>
   <i type="logical" name="LTRIPLET"> F  </i>
   <i type="logical" name="LFXCEPS"> F  </i>
   <i type="logical" name="LFXHEG"> F  </i>
   <i type="int" name="NATURALO">     2</i>
   <i type="logical" name="LHOLEGF"> F  </i>
   <i type="logical" name="L2ORDER"> F  </i>
   <i type="logical" name="LDMP1"> F  </i>
   <i type="logical" name="LMP2LT"> F  </i>
   <i type="logical" name="LSMP2LT"> F  </i>
   <i type="logical" name="LGWLF"> F  </i>
   <i name="ENCUTGW">     -1.60000002</i>
   <i name="ENCUTGWSOFT">     -1.60000002</i>
   <i name="ENCUTLF">     -1.00000000</i>
   <i type="logical" name="LESF_SPLINES"> F  </i>
   <i type="int" name="LMAXMP2">    -1</i>
   <i name="SCISSOR">      0.00000000</i>
   <i type="int" name="NOMEGA">     0</i>
   <i type="int" name="NOMEGAR">     0</i>
   <i type="int" name="NBANDSGW">    -1</i>
   <i type="int" name="NBANDSO">    -1</i>
   <i type="int" name="NBANDSV">    -1</i>
   <i type="int" name="NELMGW">     1</i>
   <i type="int" name="NELMHF">     1</i>
   <i type="int" name="DIM">     3</i>
   <i type="int" name="IESPILON">     4</i>
   <i type="int" name="ANTIRES">     0</i>
   <i name="OMEGAMAX">    -30.00000000</i>
   <i name="OMEGAMIN">    -30.00000000</i>
   <i name="OMEGATL">   -200.00000000</i>
   <i type="int" name="OMEGAGRID">     0</i>
   <i name="CSHIFT">     -0.10000000</i>
   <i type="logical" name="LSELFENERGY"> F  </i>
   <i type="logical" name="LSPECTRAL"> F  </i>
   <i type="logical" name="LSPECTRALGW"> F  </i>
   <i type="logical" name="LSINGLES"> F  </i>
   <i type="logical" name="LFERMIGW"> F  </i>
   <i type="logical" name="ODDONLYGW"> F  </i>
   <i type="logical" name="EVENONLYGW"> F  </i>
   <i type="int" name="NKREDLFX">     1</i>
   <i type="int" name="NKREDLFY">     1</i>
   <i type="int" name="NKREDLFZ">     1</i>
   <i type="int" name="MAXMEM">  2800</i>
   <i type="int" name="TELESCOPE">     0</i>
   <i type="int" name="NTAUPAR">    -1</i>
   <i type="int" name="NOMEGAPAR">    -1</i>
   <i name="DAMP_NEWTON">      0.80000001</i>
   <i name="LAMBDA">      1.00000000</i>
  </separator>
  <separator name="External order field" >
   <i name="OFIELD_KAPPA">      0.00000000</i>
   <v name="OFIELD_K">      0.00000000      0.00000000      0.00000000</v>
   <i name="OFIELD_Q6_NEAR">      0.00000000</i>
   <i name="OFIELD_Q6_FAR">      0.00000000</i>
   <i name="OFIELD_A">      0.00000000</i>
  </separator>
  <separator name="optional k-points parameters" >
   <i type="int" name="KPOINTS_OPT_MODE">     1</i>
   <i type="logical" name="LKPOINTS_OPT"> F  </i>
  </separator>
 </parameters>
 <atominfo>
  <atoms>     120 </atoms>
  <types>       3 </types>
  <array name="atoms" >
   <dimension dim="1">ion</dimension>
   <field type="string">element</field>
   <field type="int">atomtype</field>
   <set>
    <rc><c>Ga</c><c>   1</c></rc>
    <rc><c>Ga</c><c>   1</c></rc>
    <rc><c>Ga</c><c>   1</c></rc>
    <rc><c>Ga</c><c>   1</c></rc>
    <rc><c>Ga</c><c>   1</c></rc>
    <rc><c>Ga</c><c>   1</c></rc>
    <rc><c>Ga</c><c>   1</c></rc>
    <rc><c>Ga</c><c>   1</c></rc>
    <rc><c>Ga</c><c>   1</c></rc>
    <rc><c>Ga</c><c>   1</c></rc>
    <rc><c>Ga</c><c>   1</c></rc>
    <rc><c>Ga</c><c>   1</c></rc>
    <rc><c>Ga</c><c>   1</c></rc>
    <rc><c>Ga</c><c>   1</c></rc>
    <rc><c>Ga</c><c>   1</c></rc>
    <rc><c>Ga</c><c>   1</c></rc>
    <rc><c>Ga</c><c>   1</c></rc>
    <rc><c>Ga</c><c>   1</c></rc>
    <rc><c>Ga</c><c>   1</c></rc>
    <rc><c>Ga</c><c>   1</c></rc>
    <rc><c>Ga</c><c>   1</c></rc>
    <rc><c>Ga</c><c>   1</c></rc>
    <rc><c>Ga</c><c>   1</c></rc>
    <rc><c>Ga</c><c>   1</c></rc>
    <rc><c>Ga</c><c>   1</c></rc>
    <rc><c>Ga</c><c>   1</c></rc>
    <rc><c>Ga</c><c>   1</c></rc>
    <rc><c>Ga</c><c>   1</c></rc>
    <rc><c>Ga</c><c>   1</c></rc>
    <rc><c>Ga</c><c>   1</c></rc>
    <rc><c>Ga</c><c>   1</c></rc>
    <rc><c>Ga</c><c>   1</c></rc>
    <rc><c>Ga</c><c>   1</c></rc>
    <rc><c>Ga</c><c>   1</c></rc>
    <rc><c>Ga</c><c>   1</c></rc>
    <rc><c>Ga</c><c>   1</c></rc>
    <rc><c>Ga</c><c>   1</c></rc>
    <rc><c>Ga</c><c>   1</c></rc>
    <rc><c>Ga</c><c>   1</c></rc>
    <rc><c>Ga</c><c>   1</c></rc>
    <rc><c>Ga</c><c>   1</c></rc>
    <rc><c>Ga</c><c>   1</c></rc>
    <rc><c>Ga</c><c>   1</c></rc>
    <rc><c>Ga</c><c>   1</c></rc>
    <rc><c>Ga</c><c>   1</c></rc>
    <rc><c>Ga</c><c>   1</c></rc>
    <rc><c>Ga</c><c>   1</c></rc>
    <rc><c>Ga</c><c>   1</c></rc>
    <rc><c>O </c><c>   2</c></rc>
    <rc><c>O </c><c>   2</c></rc>
    <rc><c>O </c><c>   2</c></rc>
    <rc><c>O </c><c>   2</c></rc>
    <rc><c>O </c><c>   2</c></rc>
    <rc><c>O </c><c>   2</c></rc>
    <rc><c>O </c><c>   2</c></rc>
    <rc><c>O </c><c>   2</c></rc>
    <rc><c>O </c><c>   2</c></rc>
    <rc><c>O </c><c>   2</c></rc>
    <rc><c>O </c><c>   2</c></rc>
    <rc><c>O </c><c>   2</c></rc>
    <rc><c>O </c><c>   2</c></rc>
    <rc><c>O </c><c>   2</c></rc>
    <rc><c>O </c><c>   2</c></rc>
    <rc><c>O </c><c>   2</c></rc>
    <rc><c>O </c><c>   2</c></rc>
    <rc><c>O </c><c>   2</c></rc>
    <rc><c>O </c><c>   2</c></rc>
    <rc><c>O </c><c>   2</c></rc>
    <rc><c>O </c><c>   2</c></rc>
    <rc><c>O </c><c>   2</c></rc>
    <rc><c>O </c><c>   2</c></rc>
    <rc><c>O </c><c>   2</c></rc>
    <rc><c>O </c><c>   2</c></rc>
    <rc><c>O </c><c>   2</c></rc>
    <rc><c>O </c><c>   2</c></rc>
    <rc><c>O </c><c>   2</c></rc>
    <rc><c>O </c><c>   2</c></rc>
    <rc><c>O </c><c>   2</c></rc>
    <rc><c>O </c><c>   2</c></rc>
    <rc><c>O </c><c>   2</c></rc>
    <rc><c>O </c><c>   2</c></rc>
    <rc><c>O </c><c>   2</c></rc>
    <rc><c>O </c><c>   2</c></rc>
    <rc><c>O </c><c>   2</c></rc>
    <rc><c>O </c><c>   2</c></rc>
    <rc><c>O </c><c>   2</c></rc>
    <rc><c>O </c><c>   2</c></rc>
    <rc><c>O </c><c>   2</c></rc>
    <rc><c>O </c><c>   2</c></rc>
    <rc><c>O </c><c>   2</c></rc>
    <rc><c>O </c><c>   2</c></rc>
    <rc><c>O </c><c>   2</c></rc>
    <rc><c>O </c><c>   2</c></rc>
    <rc><c>O </c><c>   2</c></rc>
    <rc><c>O </c><c>   2</c></rc>
    <rc><c>O </c><c>   2</c></rc>
    <rc><c>O </c><c>   2</c></rc>
    <rc><c>O </c><c>   2</c></rc>
    <rc><c>O </c><c>   2</c></rc>
    <rc><c>O </c><c>   2</c></rc>
    <rc><c>O </c><c>   2</c></rc>
    <rc><c>O </c><c>   2</c></rc>
    <rc><c>O </c><c>   2</c></rc>
    <rc><c>O </c><c>   2</c></rc>
    <rc><c>O </c><c>   2</c></rc>
    <rc><c>O </c><c>   2</c></rc>
    <rc><c>O </c><c>   2</c></rc>
    <rc><c>O </c><c>   2</c></rc>
    <rc><c>O </c><c>   2</c></rc>
    <rc><c>O </c><c>   2</c></rc>
    <rc><c>O </c><c>   2</c></rc>
    <rc><c>O </c><c>   2</c></rc>
    <rc><c>O </c><c>   2</c></rc>
    <rc><c>O </c><c>   2</c></rc>
    <rc><c>O </c><c>   2</c></rc>
    <rc><c>O </c><c>   2</c></rc>
    <rc><c>O </c><c>   2</c></rc>
    <rc><c>O </c><c>   2</c></rc>
    <rc><c>O </c><c>   2</c></rc>
    <rc><c>P </c><c>   3</c></rc>
   </set>
  </array>
  <array name="atomtypes" >
   <dimension dim="1">type</dimension>
   <field type="int">atomspertype</field>
   <field type="string">element</field>
   <field>mass</field>
   <field>valence</field>
   <field type="string">pseudopotential</field>
   <set>
    <rc><c>  48</c><c>Ga</c><c>     69.72300000</c><c>     13.00000000</c><c>  PAW_PBE Ga_d 06Jul2010                </c></rc>
    <rc><c>  71</c><c>O </c><c>     16.00000000</c><c>      6.00000000</c><c>   PAW_PBE O 08Apr2002                  </c></rc>
    <rc><c>   1</c><c>P </c><c>     30.97400000</c><c>      5.00000000</c><c>  PAW_PBE P 06Sep2000                   </c></rc>
   </set>
  </array>
 </atominfo>
 <structure name="initialpos" >
  <crystal>
   <varray name="basis" >
    <v>       0.00000000      12.28047342       0.00000000 </v>
    <v>       9.14270205       0.00000000       0.00000000 </v>
    <v>       0.00000000      -2.76826177     -11.30069772 </v>
   </varray>
   <i name="volume">   1268.80515525 </i>
   <varray name="rec_basis" >
    <v>       0.00000000       0.08143009      -0.01994742 </v>
    <v>       0.10937686      -0.00000000       0.00000000 </v>
    <v>       0.00000000       0.00000000      -0.08849011 </v>
   </varray>
  </crystal>
  <varray name="positions" >
   <v>       0.65891599       0.00000000       0.15597142 </v>
   <v>       0.65941879       0.00000000       0.65602134 </v>
   <v>       0.65874031       0.33392692       0.15628865 </v>
   <v>       0.65815433       0.33337633       0.65617085 </v>
   <v>       0.65874031       0.66607308       0.15628865 </v>
   <v>       0.65815433       0.66662367       0.65617085 </v>
   <v>       0.83675626       0.16799049       0.34270879 </v>
   <v>       0.83999728       0.16722953       0.84217595 </v>
   <v>       0.84009126       0.50000000       0.34270533 </v>
   <v>       0.84031631       0.50000000       0.84303102 </v>
   <v>       0.83675626       0.83200951       0.34270879 </v>
   <v>       0.83999728       0.83277047       0.84217595 </v>
   <v>       0.58984556       0.16715905       0.39779286 </v>
   <v>       0.59209111       0.16655609       0.89801136 </v>
   <v>       0.59075698       0.50000000       0.39789338 </v>
   <v>       0.59476716       0.50000000       0.89907114 </v>
   <v>       0.58984556       0.83284095       0.39779286 </v>
   <v>       0.59209111       0.83344391       0.89801136 </v>
   <v>       0.90607561       0.00000000       0.09956758 </v>
   <v>       0.90952406       0.00000000       0.60164915 </v>
   <v>       0.90776520       0.33292620       0.10264792 </v>
   <v>       0.90767538       0.33359622       0.60179729 </v>
   <v>       0.90776520       0.66707380       0.10264792 </v>
   <v>       0.90767538       0.66640378       0.60179729 </v>
   <v>       0.15874959       0.16633240       0.15250428 </v>
   <v>       0.16098052       0.17793969       0.66319163 </v>
   <v>       0.15726680       0.50000000       0.15895989 </v>
   <v>       0.15879605       0.50000000       0.65890840 </v>
   <v>       0.15874959       0.83366760       0.15250428 </v>
   <v>       0.16098052       0.82206031       0.66319163 </v>
   <v>       0.34121679       0.00000000       0.33983326 </v>
   <v>       0.34239687       0.00000000       0.84756535 </v>
   <v>       0.33994931       0.33454927       0.34337181 </v>
   <v>       0.34513905       0.33454584       0.84761066 </v>
   <v>       0.33994931       0.66545073       0.34337181 </v>
   <v>       0.34513905       0.66545416       0.84761066 </v>
   <v>       0.07582916       0.00000000       0.37229854 </v>
   <v>       0.08960343       0.00000000       0.89555877 </v>
   <v>       0.08994384       0.33305121       0.39910539 </v>
   <v>       0.08947637       0.33347483       0.89875841 </v>
   <v>       0.08994384       0.66694879       0.39910539 </v>
   <v>       0.08947637       0.66652517       0.89875841 </v>
   <v>       0.41042883       0.16685733       0.10425497 </v>
   <v>       0.40916244       0.16592797       0.60625163 </v>
   <v>       0.40923333       0.50000000       0.10471703 </v>
   <v>       0.40787874       0.50000000       0.60383110 </v>
   <v>       0.41042883       0.83314267       0.10425497 </v>
   <v>       0.40916244       0.83407203       0.60625163 </v>
   <v>       0.99522024       0.16584021       0.12380773 </v>
   <v>       0.99660115       0.16732300       0.62591100 </v>
   <v>       0.99513691       0.50000000       0.12744488 </v>
   <v>       0.99529911       0.50000000       0.62889730 </v>
   <v>       0.99522024       0.83415979       0.12380773 </v>
   <v>       0.99660115       0.83267700       0.62591100 </v>
   <v>       0.50341227       0.00000000       0.37233325 </v>
   <v>       0.50498067       0.00000000       0.87591909 </v>
   <v>       0.50265859       0.33377677       0.37270979 </v>
   <v>       0.50714925       0.33471456       0.87672357 </v>
   <v>       0.50265859       0.66622323       0.37270979 </v>
   <v>       0.50714925       0.66528544       0.87672357 </v>
   <v>       0.67097342       0.16664721       0.28027401 </v>
   <v>       0.67212086       0.16681280       0.77975146 </v>
   <v>       0.67159713       0.50000000       0.28064928 </v>
   <v>       0.67288074       0.50000000       0.77977663 </v>
   <v>       0.67097342       0.83335279       0.28027401 </v>
   <v>       0.67212086       0.83318720       0.77975146 </v>
   <v>       0.82638632       0.00000000       0.21845775 </v>
   <v>       0.82751851       0.00000000       0.71841648 </v>
   <v>       0.82548331       0.33436759       0.21875638 </v>
   <v>       0.82683624       0.33312436       0.71930764 </v>
   <v>       0.82548331       0.66563241       0.21875638 </v>
   <v>       0.82683624       0.66687564       0.71930764 </v>
   <v>       0.83202381       0.00000000       0.44529820 </v>
   <v>       0.82995320       0.00000000       0.94343832 </v>
   <v>       0.83013580       0.33412586       0.44577688 </v>
   <v>       0.83156958       0.33333106       0.94552224 </v>
   <v>       0.83013580       0.66587414       0.44577688 </v>
   <v>       0.83156958       0.66666894       0.94552224 </v>
   <v>       0.66859245       0.16675171       0.05470606 </v>
   <v>       0.66764664       0.16687549       0.55379212 </v>
   <v>       0.67010993       0.50000000       0.05538302 </v>
   <v>       0.66761655       0.50000000       0.55424629 </v>
   <v>       0.66859245       0.83324829       0.05470606 </v>
   <v>       0.66764664       0.83312451       0.55379212 </v>
   <v>       0.49711133       0.00000000       0.12889227 </v>
   <v>       0.49759388       0.00000000       0.62900314 </v>
   <v>       0.49685364       0.33397501       0.12877038 </v>
   <v>       0.49588871       0.33357174       0.62699336 </v>
   <v>       0.49685364       0.66602499       0.12877038 </v>
   <v>       0.49588871       0.66642826       0.62699336 </v>
   <v>       0.99644445       0.17186780       0.36345925 </v>
   <v>       0.00254589       0.16691926       0.87082813 </v>
   <v>       0.00232755       0.50000000       0.37261069 </v>
   <v>       0.00265565       0.50000000       0.87312937 </v>
   <v>       0.99644445       0.82813220       0.36345925 </v>
   <v>       0.00254589       0.83308074       0.87082813 </v>
   <v>       0.17068973       0.00000000       0.26811578 </v>
   <v>       0.17462898       0.00000000       0.78281167 </v>
   <v>       0.17184892       0.33196976       0.28146216 </v>
   <v>       0.17286256       0.33523501       0.78316474 </v>
   <v>       0.17184892       0.66803024       0.28146216 </v>
   <v>       0.17286256       0.66476499       0.78316474 </v>
   <v>       0.32765462       0.16767043       0.21987306 </v>
   <v>       0.33577026       0.17368311       0.73031576 </v>
   <v>       0.32613682       0.50000000       0.22008677 </v>
   <v>       0.32864501       0.50000000       0.72277515 </v>
   <v>       0.32765462       0.83232957       0.21987306 </v>
   <v>       0.33577026       0.82631689       0.73031576 </v>
   <v>       0.33574166       0.16571887       0.44602101 </v>
   <v>       0.33234681       0.16769077       0.94918498 </v>
   <v>       0.33235711       0.50000000       0.44650439 </v>
   <v>       0.33269503       0.50000000       0.94830456 </v>
   <v>       0.33574166       0.83428113       0.44602101 </v>
   <v>       0.33234681       0.83230923       0.94918498 </v>
   <v>       0.16894423       0.00000000       0.04980490 </v>
   <v>       0.16710892       0.33484262       0.05463649 </v>
   <v>       0.16804109       0.34059329       0.55482844 </v>
   <v>       0.16710892       0.66515738       0.05463649 </v>
   <v>       0.16804109       0.65940671       0.55482844 </v>
   <v>       0.20131132       0.00000000       0.54168000 </v>
  </varray>
 </structure>
 <calculation>
  <scstep>
   <time name="total">    4.03    4.04</time>
   <energy>
    <i name="alphaZ">   5529.70323211 </i>
    <i name="ewald"> -88670.66536753 </i>
    <i name="hartreedc">  -2118.48667416 </i>
    <i name="XCdc">   2792.01919368 </i>
    <i name="pawpsdc"> 342745.65667386 </i>
    <i name="pawaedc">-372081.72695401 </i>
    <i name="eentropy">     -0.00625748 </i>
    <i name="bandstr"> -40552.53058481 </i>
    <i name="atom"> 133646.93285989 </i>
    <i name="e_fr_energy"> -18709.10387844 </i>
    <i name="e_wo_entrp"> -18709.09762096 </i>
    <i name="e_0_energy"> -18709.10074970 </i>
   </energy>
  </scstep>
  <scstep>
   <time name="total">    3.20    3.20</time>
   <energy>
    <i name="e_fr_energy"> -63031.08484477 </i>
    <i name="e_wo_entrp"> -63031.07016662 </i>
    <i name="e_0_energy"> -63031.07750569 </i>
   </energy>
  </scstep>
  <scstep>
   <time name="total">    3.35    3.35</time>
   <energy>
    <i name="e_fr_energy"> -67740.06711082 </i>
    <i name="e_wo_entrp"> -67740.02702480 </i>
    <i name="e_0_energy"> -67740.04706781 </i>
   </energy>
  </scstep>
  <scstep>
   <time name="total">    3.76    3.75</time>
   <energy>
    <i name="e_fr_energy"> -68338.80536874 </i>
    <i name="e_wo_entrp"> -68338.77141920 </i>
    <i name="e_0_energy"> -68338.78839397 </i>
   </energy>
  </scstep>
  <scstep>
   <time name="total">  236.97  236.92</time>
   <energy>
    <i name="e_fr_energy"> -38127.38287281 </i>
    <i name="e_wo_entrp"> -38127.36747216 </i>
    <i name="e_0_energy"> -38127.37517248 </i>
   </energy>
  </scstep>
  <scstep>
   <time name="total">  471.38  471.27</time>
   <energy>
    <i name="e_fr_energy">  22506.97086182 </i>
    <i name="e_wo_entrp">  22507.01371570 </i>
    <i name="e_0_energy">  22506.99228876 </i>
   </energy>
  </scstep>
  <scstep>
   <time name="total">  471.92  471.83</time>
   <energy>
    <i name="e_fr_energy">   5765.31565797 </i>
    <i name="e_wo_entrp">   5765.33598818 </i>
    <i name="e_0_energy">   5765.32582308 </i>
   </energy>
  </scstep>
  <scstep>
   <time name="total">  471.95  471.85</time>
   <energy>
    <i name="e_fr_energy">   1869.01246288 </i>
    <i name="e_wo_entrp">   1869.08950575 </i>
    <i name="e_0_energy">   1869.05098432 </i>
   </energy>
  </scstep>
  <scstep>
   <time name="total">  473.46  473.37</time>
   <energy>
    <i name="e_fr_energy">    793.76520513 </i>
    <i name="e_wo_entrp">    793.80693745 </i>
    <i name="e_0_energy">    793.78607129 </i>
   </energy>
  </scstep>
  <scstep>
   <time name="total">  471.95  471.86</time>
   <energy>
    <i name="e_fr_energy">    277.28825598 </i>
    <i name="e_wo_entrp">    277.30544139 </i>
    <i name="e_0_energy">    277.29684868 </i>
   </energy>
  </scstep>
  <scstep>
   <time name="total">  471.23  471.14</time>
   <energy>
    <i name="e_fr_energy">   -151.36388801 </i>
    <i name="e_wo_entrp">   -151.35477255 </i>
    <i name="e_0_energy">   -151.35933028 </i>
   </energy>
  </scstep>
  <scstep>
   <time name="total">  471.28  471.19</time>
   <energy>
    <i name="e_fr_energy">   -559.41110404 </i>
    <i name="e_wo_entrp">   -559.39659067 </i>
    <i name="e_0_energy">   -559.40384735 </i>
   </energy>
  </scstep>
  <scstep>
   <time name="total">  471.36  471.29</time>
   <energy>
    <i name="e_fr_energy">   -743.97892870 </i>
    <i name="e_wo_entrp">   -743.96836666 </i>
    <i name="e_0_energy">   -743.97364768 </i>
   </energy>
  </scstep>
  <scstep>
   <time name="total">  470.47  470.38</time>
   <energy>
    <i name="e_fr_energy">   -847.82978785 </i>
    <i name="e_wo_entrp">   -847.82360524 </i>
    <i name="e_0_energy">   -847.82669655 </i>
   </energy>
  </scstep>
  <scstep>
   <time name="total">  470.40  470.28</time>
   <energy>
    <i name="e_fr_energy">   -896.79772897 </i>
    <i name="e_wo_entrp">   -896.79280171 </i>
    <i name="e_0_energy">   -896.79526534 </i>
   </energy>
  </scstep>
  <scstep>
   <time name="total">  470.18  470.08</time>
   <energy>
    <i name="e_fr_energy">   -923.52173153 </i>
    <i name="e_wo_entrp">   -923.51850865 </i>
    <i name="e_0_energy">   -923.52012009 </i>
   </energy>
  </scstep>
  <scstep>
   <time name="total">  470.61  470.49</time>
   <energy>
    <i name="e_fr_energy">   -935.31756326 </i>
    <i name="e_wo_entrp">   -935.30774368 </i>
    <i name="e_0_energy">   -935.31265347 </i>
   </energy>
  </scstep>
  <scstep>
   <time name="total">  470.45  470.39</time>
   <energy>
    <i name="e_fr_energy">   -942.33191645 </i>
    <i name="e_wo_entrp">   -942.32061624 </i>
    <i name="e_0_energy">   -942.32626635 </i>
   </energy>
  </scstep>
  <scstep>
   <time name="total">  470.70  470.62</time>
   <energy>
    <i name="e_fr_energy">   -946.10854707 </i>
    <i name="e_wo_entrp">   -946.09189750 </i>
    <i name="e_0_energy">   -946.10022228 </i>
   </energy>
  </scstep>
  <scstep>
   <time name="total">  470.39  470.29</time>
   <energy>
    <i name="e_fr_energy">   -948.24446463 </i>
    <i name="e_wo_entrp">   -948.22749466 </i>
    <i name="e_0_energy">   -948.23597964 </i>
   </energy>
  </scstep>
  <scstep>
   <time name="total">  470.58  470.48</time>
   <energy>
    <i name="e_fr_energy">   -949.39389226 </i>
    <i name="e_wo_entrp">   -949.37530048 </i>
    <i name="e_0_energy">   -949.38459637 </i>
   </energy>
  </scstep>
  <scstep>
   <time name="total">  470.92  470.83</time>
   <energy>
    <i name="e_fr_energy">   -949.94996866 </i>
    <i name="e_wo_entrp">   -949.93045970 </i>
    <i name="e_0_energy">   -949.94021418 </i>
   </energy>
  </scstep>
  <scstep>
   <time name="total">  470.87  470.79</time>
   <energy>
    <i name="e_fr_energy">   -950.22879085 </i>
    <i name="e_wo_entrp">   -950.20903216 </i>
    <i name="e_0_energy">   -950.21891151 </i>
   </energy>
  </scstep>
  <scstep>
   <time name="total">  471.00  470.91</time>
   <energy>
    <i name="e_fr_energy">   -950.36183686 </i>
    <i name="e_wo_entrp">   -950.34224050 </i>
    <i name="e_0_energy">   -950.35203868 </i>
   </energy>
  </scstep>
  <scstep>
   <time name="total">  470.56  470.46</time>
   <energy>
    <i name="e_fr_energy">   -950.42840775 </i>
    <i name="e_wo_entrp">   -950.40935481 </i>
    <i name="e_0_energy">   -950.41888128 </i>
   </energy>
  </scstep>
  <scstep>
   <time name="total">  470.39  470.29</time>
   <energy>
    <i name="e_fr_energy">   -950.46427847 </i>
    <i name="e_wo_entrp">   -950.44584436 </i>
    <i name="e_0_energy">   -950.45506141 </i>
   </energy>
  </scstep>
  <scstep>
   <time name="total">  470.60  470.50</time>
   <energy>
    <i name="e_fr_energy">   -950.48280126 </i>
    <i name="e_wo_entrp">   -950.46484669 </i>
    <i name="e_0_energy">   -950.47382397 </i>
   </energy>
  </scstep>
  <scstep>
   <time name="total">  470.77  470.68</time>
   <energy>
    <i name="e_fr_energy">   -950.49257601 </i>
    <i name="e_wo_entrp">   -950.47491399 </i>
    <i name="e_0_energy">   -950.48374500 </i>
   </energy>
  </scstep>
  <scstep>
   <time name="total">  471.07  470.99</time>
   <energy>
    <i name="e_fr_energy">   -950.49748677 </i>
    <i name="e_wo_entrp">   -950.47998302 </i>
    <i name="e_0_energy">   -950.48873489 </i>
   </energy>
  </scstep>
  <scstep>
   <time name="total">  470.56  470.45</time>
   <energy>
    <i name="e_fr_energy">   -950.50003271 </i>
    <i name="e_wo_entrp">   -950.48258717 </i>
    <i name="e_0_energy">   -950.49130994 </i>
   </energy>
  </scstep>
  <scstep>
   <time name="total">  470.60  470.51</time>
   <energy>
    <i name="e_fr_energy">   -950.50140367 </i>
    <i name="e_wo_entrp">   -950.48394674 </i>
    <i name="e_0_energy">   -950.49267521 </i>
   </energy>
  </scstep>
  <scstep>
   <time name="total">  470.79  470.68</time>
   <energy>
    <i name="e_fr_energy">   -950.50212056 </i>
    <i name="e_wo_entrp">   -950.48462008 </i>
    <i name="e_0_energy">   -950.49337032 </i>
   </energy>
  </scstep>
  <scstep>
   <time name="total">  470.99  470.90</time>
   <energy>
    <i name="e_fr_energy">   -950.50250371 </i>
    <i name="e_wo_entrp">   -950.48495566 </i>
    <i name="e_0_energy">   -950.49372969 </i>
   </energy>
  </scstep>
  <scstep>
   <time name="total">  470.79  470.70</time>
   <energy>
    <i name="e_fr_energy">   -950.50271552 </i>
    <i name="e_wo_entrp">   -950.48513118 </i>
    <i name="e_0_energy">   -950.49392335 </i>
   </energy>
  </scstep>
  <scstep>
   <time name="total">  470.88  470.78</time>
   <energy>
    <i name="e_fr_energy">   -950.50282454 </i>
    <i name="e_wo_entrp">   -950.48521535 </i>
    <i name="e_0_energy">   -950.49401995 </i>
   </energy>
  </scstep>
  <scstep>
   <time name="total">  470.62  470.53</time>
   <energy>
    <i name="e_fr_energy">   -950.50288105 </i>
    <i name="e_wo_entrp">   -950.48525745 </i>
    <i name="e_0_energy">   -950.49406925 </i>
   </energy>
  </scstep>
  <scstep>
   <time name="total">  470.63  470.55</time>
   <energy>
    <i name="e_fr_energy">   -950.50291011 </i>
    <i name="e_wo_entrp">   -950.48529000 </i>
    <i name="e_0_energy">   -950.49410006 </i>
   </energy>
  </scstep>
  <scstep>
   <time name="total">  470.73  470.65</time>
   <energy>
    <i name="e_fr_energy">   -950.50293256 </i>
    <i name="e_wo_entrp">   -950.48531725 </i>
    <i name="e_0_energy">   -950.49412490 </i>
   </energy>
  </scstep>
  <scstep>
   <time name="total">  702.03  701.90</time>
   <energy>
    <i name="alphaZ">   5529.70323211 </i>
    <i name="ewald"> -88670.66536753 </i>
    <i name="hartreedc"> -33937.56017067 </i>
    <i name="XCdc">   2901.48242830 </i>
    <i name="pawpsdc"> 121909.82044674 </i>
    <i name="pawaedc">-137476.59754569 </i>
    <i name="eentropy">     -0.01761264 </i>
    <i name="bandstr">  -8734.24204374 </i>
    <i name="atom"> 133646.93285989 </i>
    <i name="e_fr_energy">   -950.50294063 </i>
    <i name="e_wo_entrp">   -950.48532799 </i>
    <i name="e_0_energy">   -950.49413431 </i>
   </energy>
  </scstep>
  <structure>
   <crystal>
    <varray name="basis" >
     <v>       0.00000000      12.28047342       0.00000000 </v>
     <v>       9.14270205       0.00000000       0.00000000 </v>
     <v>       0.00000000      -2.76826177     -11.30069772 </v>
    </varray>
    <i name="volume">   1268.80515525 </i>
    <varray name="rec_basis" >
     <v>       0.00000000       0.08143009      -0.01994742 </v>
     <v>       0.10937686      -0.00000000       0.00000000 </v>
     <v>       0.00000000       0.00000000      -0.08849011 </v>
    </varray>
   </crystal>
   <varray name="positions" >
    <v>       0.65891599       0.00000000       0.15597142 </v>
    <v>       0.65941879       0.00000000       0.65602134 </v>
    <v>       0.65874031       0.33392692       0.15628865 </v>
    <v>       0.65815433       0.33337633       0.65617085 </v>
    <v>       0.65874031       0.66607308       0.15628865 </v>
    <v>       0.65815433       0.66662367       0.65617085 </v>
    <v>       0.83675626       0.16799049       0.34270879 </v>
    <v>       0.83999728       0.16722953       0.84217595 </v>
    <v>       0.84009126       0.50000000       0.34270533 </v>
    <v>       0.84031631       0.50000000       0.84303102 </v>
    <v>       0.83675626       0.83200951       0.34270879 </v>
    <v>       0.83999728       0.83277047       0.84217595 </v>
    <v>       0.58984556       0.16715905       0.39779286 </v>
    <v>       0.59209111       0.16655609       0.89801136 </v>
    <v>       0.59075698       0.50000000       0.39789338 </v>
    <v>       0.59476716       0.50000000       0.89907114 </v>
    <v>       0.58984556       0.83284095       0.39779286 </v>
    <v>       0.59209111       0.83344391       0.89801136 </v>
    <v>       0.90607561       0.00000000       0.09956758 </v>
    <v>       0.90952406       0.00000000       0.60164915 </v>
    <v>       0.90776520       0.33292620       0.10264792 </v>
    <v>       0.90767538       0.33359622       0.60179729 </v>
    <v>       0.90776520       0.66707380       0.10264792 </v>
    <v>       0.90767538       0.66640378       0.60179729 </v>
    <v>       0.15874959       0.16633240       0.15250428 </v>
    <v>       0.16098052       0.17793969       0.66319163 </v>
    <v>       0.15726680       0.50000000       0.15895989 </v>
    <v>       0.15879605       0.50000000       0.65890840 </v>
    <v>       0.15874959       0.83366760       0.15250428 </v>
    <v>       0.16098052       0.82206031       0.66319163 </v>
    <v>       0.34121679       0.00000000       0.33983326 </v>
    <v>       0.34239687       0.00000000       0.84756535 </v>
    <v>       0.33994931       0.33454927       0.34337181 </v>
    <v>       0.34513905       0.33454584       0.84761066 </v>
    <v>       0.33994931       0.66545073       0.34337181 </v>
    <v>       0.34513905       0.66545416       0.84761066 </v>
    <v>       0.07582916       0.00000000       0.37229854 </v>
    <v>       0.08960343       0.00000000       0.89555877 </v>
    <v>       0.08994384       0.33305121       0.39910539 </v>
    <v>       0.08947637       0.33347483       0.89875841 </v>
    <v>       0.08994384       0.66694879       0.39910539 </v>
    <v>       0.08947637       0.66652517       0.89875841 </v>
    <v>       0.41042883       0.16685733       0.10425497 </v>
    <v>       0.40916244       0.16592797       0.60625163 </v>
    <v>       0.40923333       0.50000000       0.10471703 </v>
    <v>       0.40787874       0.50000000       0.60383110 </v>
    <v>       0.41042883       0.83314267       0.10425497 </v>
    <v>       0.40916244       0.83407203       0.60625163 </v>
    <v>       0.99522024       0.16584021       0.12380773 </v>
    <v>       0.99660115       0.16732300       0.62591100 </v>
    <v>       0.99513691       0.50000000       0.12744488 </v>
    <v>       0.99529911       0.50000000       0.62889730 </v>
    <v>       0.99522024       0.83415979       0.12380773 </v>
    <v>       0.99660115       0.83267700       0.62591100 </v>
    <v>       0.50341227       0.00000000       0.37233325 </v>
    <v>       0.50498067       0.00000000       0.87591909 </v>
    <v>       0.50265859       0.33377677       0.37270979 </v>
    <v>       0.50714925       0.33471456       0.87672357 </v>
    <v>       0.50265859       0.66622323       0.37270979 </v>
    <v>       0.50714925       0.66528544       0.87672357 </v>
    <v>       0.67097342       0.16664721       0.28027401 </v>
    <v>       0.67212086       0.16681280       0.77975146 </v>
    <v>       0.67159713       0.50000000       0.28064928 </v>
    <v>       0.67288074       0.50000000       0.77977663 </v>
    <v>       0.67097342       0.83335279       0.28027401 </v>
    <v>       0.67212086       0.83318720       0.77975146 </v>
    <v>       0.82638632       0.00000000       0.21845775 </v>
    <v>       0.82751851       0.00000000       0.71841648 </v>
    <v>       0.82548331       0.33436759       0.21875638 </v>
    <v>       0.82683624       0.33312436       0.71930764 </v>
    <v>       0.82548331       0.66563241       0.21875638 </v>
    <v>       0.82683624       0.66687564       0.71930764 </v>
    <v>       0.83202381       0.00000000       0.44529820 </v>
    <v>       0.82995320       0.00000000       0.94343832 </v>
    <v>       0.83013580       0.33412586       0.44577688 </v>
    <v>       0.83156958       0.33333106       0.94552224 </v>
    <v>       0.83013580       0.66587414       0.44577688 </v>
    <v>       0.83156958       0.66666894       0.94552224 </v>
    <v>       0.66859245       0.16675171       0.05470606 </v>
    <v>       0.66764664       0.16687549       0.55379212 </v>
    <v>       0.67010993       0.50000000       0.05538302 </v>
    <v>       0.66761655       0.50000000       0.55424629 </v>
    <v>       0.66859245       0.83324829       0.05470606 </v>
    <v>       0.66764664       0.83312451       0.55379212 </v>
    <v>       0.49711133       0.00000000       0.12889227 </v>
    <v>       0.49759388       0.00000000       0.62900314 </v>
    <v>       0.49685364       0.33397501       0.12877038 </v>
    <v>       0.49588871       0.33357174       0.62699336 </v>
    <v>       0.49685364       0.66602499       0.12877038 </v>
    <v>       0.49588871       0.66642826       0.62699336 </v>
    <v>       0.99644445       0.17186780       0.36345925 </v>
    <v>       0.00254589       0.16691926       0.87082813 </v>
    <v>       0.00232755       0.50000000       0.37261069 </v>
    <v>       0.00265565       0.50000000       0.87312937 </v>
    <v>       0.99644445       0.82813220       0.36345925 </v>
    <v>       0.00254589       0.83308074       0.87082813 </v>
    <v>       0.17068973       0.00000000       0.26811578 </v>
    <v>       0.17462898       0.00000000       0.78281167 </v>
    <v>       0.17184892       0.33196976       0.28146216 </v>
    <v>       0.17286256       0.33523501       0.78316474 </v>
    <v>       0.17184892       0.66803024       0.28146216 </v>
    <v>       0.17286256       0.66476499       0.78316474 </v>
    <v>       0.32765462       0.16767043       0.21987306 </v>
    <v>       0.33577026       0.17368311       0.73031576 </v>
    <v>       0.32613682       0.50000000       0.22008677 </v>
    <v>       0.32864501       0.50000000       0.72277515 </v>
    <v>       0.32765462       0.83232957       0.21987306 </v>
    <v>       0.33577026       0.82631689       0.73031576 </v>
    <v>       0.33574166       0.16571887       0.44602101 </v>
    <v>       0.33234681       0.16769077       0.94918498 </v>
    <v>       0.33235711       0.50000000       0.44650439 </v>
    <v>       0.33269503       0.50000000       0.94830456 </v>
    <v>       0.33574166       0.83428113       0.44602101 </v>
    <v>       0.33234681       0.83230923       0.94918498 </v>
    <v>       0.16894423       0.00000000       0.04980490 </v>
    <v>       0.16710892       0.33484262       0.05463649 </v>
    <v>       0.16804109       0.34059329       0.55482844 </v>
    <v>       0.16710892       0.66515738       0.05463649 </v>
    <v>       0.16804109       0.65940671       0.55482844 </v>
    <v>       0.20131132       0.00000000       0.54168000 </v>
   </varray>
  </structure>
  <varray name="forces" >
   <v>      -0.00000000       0.06019385       0.00914822 </v>
   <v>      -0.00000000       0.06161901       0.01183773 </v>
   <v>       0.01281598       0.07591669      -0.00150455 </v>
   <v>       0.00503898       0.06163280       0.01774806 </v>
   <v>      -0.01281598       0.07591669      -0.00150455 </v>
   <v>      -0.00503898       0.06163280       0.01774806 </v>
   <v>       0.02566017      -0.05307861       0.00968513 </v>
   <v>       0.00640891      -0.07615057      -0.00183520 </v>
   <v>      -0.00000000      -0.07831647       0.00571082 </v>
   <v>      -0.00000000      -0.06989150      -0.00527801 </v>
   <v>      -0.02566017      -0.05307861       0.00968513 </v>
   <v>      -0.00640891      -0.07615057      -0.00183520 </v>
   <v>      -0.00282543      -0.04951976       0.02005910 </v>
   <v>       0.00706256      -0.03050170      -0.00174997 </v>
   <v>      -0.00000000      -0.04070758       0.02924413 </v>
   <v>      -0.00000000      -0.05214004       0.00038325 </v>
   <v>       0.00282543      -0.04951976       0.02005910 </v>
   <v>      -0.00706256      -0.03050170      -0.00174997 </v>
   <v>      -0.00000000       0.02455664       0.02425108 </v>
   <v>      -0.00000000      -0.00350803      -0.01324872 </v>
   <v>       0.00951428       0.01133311      -0.00387971 </v>
   <v>       0.01964294       0.00330954      -0.02612474 </v>
   <v>      -0.00951428       0.01133311      -0.00387971 </v>
   <v>      -0.01964294       0.00330954      -0.02612474 </v>
   <v>      -0.03926262       0.07804186      -0.00312929 </v>
   <v>       0.34713957      -0.00681768      -0.19438769 </v>
   <v>      -0.00000000       0.08123271       0.02336193 </v>
   <v>      -0.00000000       0.09796837       0.07204312 </v>
   <v>       0.03926262       0.07804186      -0.00312929 </v>
   <v>      -0.34713957      -0.00681768      -0.19438769 </v>
   <v>      -0.00000000      -0.00136493      -0.01784122 </v>
   <v>      -0.00000000      -0.05725627      -0.05883114 </v>
   <v>      -0.00956399      -0.04048908      -0.02378351 </v>
   <v>      -0.04023506      -0.02730755       0.01055263 </v>
   <v>       0.00956399      -0.04048908      -0.02378351 </v>
   <v>       0.04023506      -0.02730755       0.01055263 </v>
   <v>      -0.00000000      -0.03673488       0.34290117 </v>
   <v>      -0.00000000       0.02242673      -0.01881804 </v>
   <v>       0.04894189      -0.01402642       0.05112067 </v>
   <v>       0.01984839      -0.01090680       0.00207966 </v>
   <v>      -0.04894189      -0.01402642       0.05112067 </v>
   <v>      -0.01984839      -0.01090680       0.00207966 </v>
   <v>       0.00758691      -0.00406703      -0.00333098 </v>
   <v>       0.06456681       0.12572456       0.00076959 </v>
   <v>      -0.00000000       0.01310836      -0.00561635 </v>
   <v>      -0.00000000       0.04167577       0.00429820 </v>
   <v>      -0.00758691      -0.00406703      -0.00333098 </v>
   <v>      -0.06456681       0.12572456       0.00076959 </v>
   <v>      -0.00186226      -0.19404831       0.08961439 </v>
   <v>       0.01125041      -0.16815330       0.09573914 </v>
   <v>      -0.00000000      -0.16401952       0.10535792 </v>
   <v>      -0.00000000      -0.17307019       0.12959109 </v>
   <v>       0.00186226      -0.19404831       0.08961439 </v>
   <v>      -0.01125041      -0.16815330       0.09573914 </v>
   <v>      -0.00000000       0.17944190      -0.10062863 </v>
   <v>      -0.00000000       0.18726165      -0.09693219 </v>
   <v>       0.00833312       0.20051685      -0.11374455 </v>
   <v>      -0.00494924       0.18003674      -0.09753185 </v>
   <v>      -0.00833312       0.20051685      -0.11374455 </v>
   <v>       0.00494924       0.18003674      -0.09753185 </v>
   <v>       0.00178116       0.01117316      -0.13571797 </v>
   <v>       0.00267365      -0.02298117      -0.11829412 </v>
   <v>      -0.00000000      -0.02505338      -0.11142168 </v>
   <v>      -0.00000000      -0.02340279      -0.13171978 </v>
   <v>      -0.00178116       0.01117316      -0.13571797 </v>
   <v>      -0.00267365      -0.02298117      -0.11829412 </v>
   <v>      -0.00000000       0.02891485       0.14068244 </v>
   <v>      -0.00000000       0.04094810       0.12551595 </v>
   <v>      -0.00113415       0.02364364       0.11410285 </v>
   <v>      -0.00852860       0.04830685       0.11531556 </v>
   <v>       0.00113415       0.02364364       0.11410285 </v>
   <v>       0.00852860       0.04830685       0.11531556 </v>
   <v>      -0.00000000       0.38366383      -0.06942784 </v>
   <v>      -0.00000000       0.40276007      -0.08448940 </v>
   <v>      -0.01707106       0.40550956      -0.07626035 </v>
   <v>      -0.00180430       0.38786398      -0.05938208 </v>
   <v>       0.01707106       0.40550956      -0.07626035 </v>
   <v>       0.00180430       0.38786398      -0.05938208 </v>
   <v>      -0.00833641      -0.39414848       0.06896045 </v>
   <v>      -0.00423525      -0.39441935       0.06805398 </v>
   <v>      -0.00000000      -0.41281844       0.07906207 </v>
   <v>      -0.00000000      -0.39710895       0.06840362 </v>
   <v>       0.00833641      -0.39414848       0.06896045 </v>
   <v>       0.00423525      -0.39441935       0.06805398 </v>
   <v>      -0.00000000      -0.15790790       0.12264408 </v>
   <v>      -0.00000000      -0.19664855       0.09887155 </v>
   <v>      -0.00593933      -0.15500135       0.11788227 </v>
   <v>      -0.00246263      -0.15883755       0.08136070 </v>
   <v>       0.00593933      -0.15500135       0.11788227 </v>
   <v>       0.00246263      -0.15883755       0.08136070 </v>
   <v>      -0.09378206       0.16892409      -0.12122577 </v>
   <v>       0.00234438       0.17284246      -0.13155283 </v>
   <v>      -0.00000000       0.15223159      -0.12190583 </v>
   <v>      -0.00000000       0.16281936      -0.11673975 </v>
   <v>       0.09378206       0.16892409      -0.12122577 </v>
   <v>      -0.00234438       0.17284246      -0.13155283 </v>
   <v>      -0.00000000      -0.13383380      -0.02759969 </v>
   <v>      -0.00000000      -0.05127601      -0.11850075 </v>
   <v>       0.04178497      -0.03709298      -0.12002335 </v>
   <v>      -0.07829002      -0.08415107      -0.00334516 </v>
   <v>      -0.04178497      -0.03709298      -0.12002335 </v>
   <v>       0.07829002      -0.08415107      -0.00334516 </v>
   <v>      -0.03345844       0.05020246       0.11992495 </v>
   <v>       0.01544124       0.03851379       0.10911847 </v>
   <v>      -0.00000000       0.04518737       0.08411208 </v>
   <v>      -0.00000000       0.05841072       0.10440074 </v>
   <v>       0.03345844       0.05020246       0.11992495 </v>
   <v>      -0.01544124       0.03851379       0.10911847 </v>
   <v>      -0.01916389       0.27849408      -0.08707507 </v>
   <v>      -0.00318701       0.42759708      -0.09715426 </v>
   <v>      -0.00000000       0.37565252      -0.05523450 </v>
   <v>      -0.00000000       0.42500226      -0.06156637 </v>
   <v>       0.01916389       0.27849408      -0.08707507 </v>
   <v>       0.00318701       0.42759708      -0.09715426 </v>
   <v>      -0.00000000      -0.42959232       0.09196233 </v>
   <v>      -0.04918674      -0.41912781       0.07165383 </v>
   <v>       0.00498473      -0.41428287       0.01923259 </v>
   <v>       0.04918674      -0.41912781       0.07165383 </v>
   <v>      -0.00498473      -0.41428287       0.01923259 </v>
   <v>      -0.00000000      -0.32937179       0.01813431 </v>
  </varray>
  <varray name="stress" >
   <v>     -32.63023998       0.00000000       0.00000000 </v>
   <v>       0.00000000     -34.29870896      -1.62236271 </v>
   <v>       0.00000000      -1.62236220     -20.24930072 </v>
  </varray>
  <energy>
   <i name="e_fr_energy">   -950.50294063 </i>
   <i name="e_wo_entrp">   -950.48532799 </i>
   <i name="e_0_energy">   -950.49413431 </i>
  </energy>
  <time name="totalsc">17085.4317084.60</time>
  <eigenvalues>
   <array>
    <dimension dim="1">band</dimension>
    <dimension dim="2">kpoint</dimension>
    <dimension dim="3">spin</dimension>
    <field>eigene</field>
    <field>occ</field>
    <set>
     <set comment="spin 1">
      <set comment="kpoint 1">
       <r>  -18.5810    1.0000 </r>
       <r>  -18.3126    1.0000 </r>
       <r>  -18.2413    1.0000 </r>
       <r>  -18.1728    1.0000 </r>
       <r>  -18.0430    1.0000 </r>
       <r>  -17.8948    1.0000 </r>
       <r>  -17.8791    1.0000 </r>
       <r>  -17.8074    1.0000 </r>
       <r>  -17.7496    1.0000 </r>
       <r>  -17.7323    1.0000 </r>
       <r>  -17.7155    1.0000 </r>
       <r>  -17.6367    1.0000 </r>
       <r>  -17.6296    1.0000 </r>
       <r>  -17.6069    1.0000 </r>
       <r>  -17.5904    1.0000 </r>
       <r>  -17.5866    1.0000 </r>
       <r>  -17.5690    1.0000 </r>
       <r>  -17.5315    1.0000 </r>
       <r>  -17.4428    1.0000 </r>
       <r>  -17.4364    1.0000 </r>
       <r>  -17.4153    1.0000 </r>
       <r>  -17.4070    1.0000 </r>
       <r>  -17.3993    1.0000 </r>
       <r>  -17.3931    1.0000 </r>
       <r>  -17.3857    1.0000 </r>
       <r>  -17.3663    1.0000 </r>
       <r>  -17.3038    1.0000 </r>
       <r>  -17.2970    1.0000 </r>
       <r>  -17.2742    1.0000 </r>
       <r>  -17.2520    1.0000 </r>
       <r>  -17.2499    1.0000 </r>
       <r>  -17.2237    1.0000 </r>
       <r>  -17.2114    1.0000 </r>
       <r>  -17.1983    1.0000 </r>
       <r>  -17.1965    1.0000 </r>
       <r>  -17.1721    1.0000 </r>
       <r>  -17.1570    1.0000 </r>
       <r>  -17.1474    1.0000 </r>
       <r>  -17.1395    1.0000 </r>
       <r>  -17.1002    1.0000 </r>
       <r>  -17.0723    1.0000 </r>
       <r>  -17.0638    1.0000 </r>
       <r>  -17.0607    1.0000 </r>
       <r>  -17.0556    1.0000 </r>
       <r>  -17.0511    1.0000 </r>
       <r>  -17.0287    1.0000 </r>
       <r>  -17.0275    1.0000 </r>
       <r>  -17.0088    1.0000 </r>
       <r>  -16.9535    1.0000 </r>
       <r>  -16.9508    1.0000 </r>
       <r>  -16.9216    1.0000 </r>
       <r>  -16.9040    1.0000 </r>
       <r>  -16.8901    1.0000 </r>
       <r>  -16.8884    1.0000 </r>
       <r>  -16.8613    1.0000 </r>
       <r>  -16.8264    1.0000 </r>
       <r>  -16.8175    1.0000 </r>
       <r>  -16.8102    1.0000 </r>
       <r>  -16.8090    1.0000 </r>
       <r>  -16.7963    1.0000 </r>
       <r>  -16.7896    1.0000 </r>
       <r>  -16.7832    1.0000 </r>
       <r>  -16.7776    1.0000 </r>
       <r>  -16.7752    1.0000 </r>
       <r>  -16.7600    1.0000 </r>
       <r>  -16.7593    1.0000 </r>
       <r>  -16.7550    1.0000 </r>
       <r>  -16.7452    1.0000 </r>
       <r>  -16.7319    1.0000 </r>
       <r>  -16.6683    1.0000 </r>
       <r>  -16.6492    1.0000 </r>
       <r>  -12.9429    1.0000 </r>
       <r>  -12.9345    1.0000 </r>
       <r>  -12.9256    1.0000 </r>
       <r>  -12.9040    1.0000 </r>
       <r>  -12.8994    1.0000 </r>
       <r>  -12.8966    1.0000 </r>
       <r>  -12.8888    1.0000 </r>
       <r>  -12.8882    1.0000 </r>
       <r>  -12.8773    1.0000 </r>
       <r>  -12.8724    1.0000 </r>
       <r>  -12.8719    1.0000 </r>
       <r>  -12.8608    1.0000 </r>
       <r>  -12.8607    1.0000 </r>
       <r>  -12.8537    1.0000 </r>
       <r>  -12.8516    1.0000 </r>
       <r>  -12.8433    1.0000 </r>
       <r>  -12.8405    1.0000 </r>
       <r>  -12.8375    1.0000 </r>
       <r>  -12.8327    1.0000 </r>
       <r>  -12.8287    1.0000 </r>
       <r>  -12.8265    1.0000 </r>
       <r>  -12.8207    1.0000 </r>
       <r>  -12.8207    1.0000 </r>
       <r>  -12.8157    1.0000 </r>
       <r>  -12.8123    1.0000 </r>
       <r>  -12.8110    1.0000 </r>
       <r>  -12.8083    1.0000 </r>
       <r>  -12.8035    1.0000 </r>
       <r>  -12.8001    1.0000 </r>
       <r>  -12.7964    1.0000 </r>
       <r>  -12.7961    1.0000 </r>
       <r>  -12.7940    1.0000 </r>
       <r>  -12.7936    1.0000 </r>
       <r>  -12.7884    1.0000 </r>
       <r>  -12.7876    1.0000 </r>
       <r>  -12.7872    1.0000 </r>
       <r>  -12.7809    1.0000 </r>
       <r>  -12.7792    1.0000 </r>
       <r>  -12.7759    1.0000 </r>
       <r>  -12.7726    1.0000 </r>
       <r>  -12.7718    1.0000 </r>
       <r>  -12.7693    1.0000 </r>
       <r>  -12.7675    1.0000 </r>
       <r>  -12.7646    1.0000 </r>
       <r>  -12.7631    1.0000 </r>
       <r>  -12.7599    1.0000 </r>
       <r>  -12.7573    1.0000 </r>
       <r>  -12.7569    1.0000 </r>
       <r>  -12.7559    1.0000 </r>
       <r>  -12.7522    1.0000 </r>
       <r>  -12.7517    1.0000 </r>
       <r>  -12.7507    1.0000 </r>
       <r>  -12.7470    1.0000 </r>
       <r>  -12.7431    1.0000 </r>
       <r>  -12.7386    1.0000 </r>
       <r>  -12.7380    1.0000 </r>
       <r>  -12.7342    1.0000 </r>
       <r>  -12.7336    1.0000 </r>
       <r>  -12.7261    1.0000 </r>
       <r>  -12.7169    1.0000 </r>
       <r>  -12.7168    1.0000 </r>
       <r>  -12.7096    1.0000 </r>
       <r>  -12.7076    1.0000 </r>
       <r>  -12.7056    1.0000 </r>
       <r>  -12.7010    1.0000 </r>
       <r>  -12.6933    1.0000 </r>
       <r>  -12.6918    1.0000 </r>
       <r>  -12.6886    1.0000 </r>
       <r>  -12.6861    1.0000 </r>
       <r>  -12.6809    1.0000 </r>
       <r>  -12.6794    1.0000 </r>
       <r>  -12.6770    1.0000 </r>
       <r>  -12.6749    1.0000 </r>
       <r>  -12.6739    1.0000 </r>
       <r>  -12.6727    1.0000 </r>
       <r>  -12.6695    1.0000 </r>
       <r>  -12.6692    1.0000 </r>
       <r>  -12.6671    1.0000 </r>
       <r>  -12.6602    1.0000 </r>
       <r>  -12.6584    1.0000 </r>
       <r>  -12.6573    1.0000 </r>
       <r>  -12.6559    1.0000 </r>
       <r>  -12.6490    1.0000 </r>
       <r>  -12.6489    1.0000 </r>
       <r>  -12.6465    1.0000 </r>
       <r>  -12.6443    1.0000 </r>
       <r>  -12.6429    1.0000 </r>
       <r>  -12.6389    1.0000 </r>
       <r>  -12.6386    1.0000 </r>
       <r>  -12.6381    1.0000 </r>
       <r>  -12.6376    1.0000 </r>
       <r>  -12.6351    1.0000 </r>
       <r>  -12.6336    1.0000 </r>
       <r>  -12.6304    1.0000 </r>
       <r>  -12.6276    1.0000 </r>
       <r>  -12.6269    1.0000 </r>
       <r>  -12.6226    1.0000 </r>
       <r>  -12.6200    1.0000 </r>
       <r>  -12.6166    1.0000 </r>
       <r>  -12.6146    1.0000 </r>
       <r>  -12.6131    1.0000 </r>
       <r>  -12.6115    1.0000 </r>
       <r>  -12.6108    1.0000 </r>
       <r>  -12.6074    1.0000 </r>
       <r>  -12.6071    1.0000 </r>
       <r>  -12.6048    1.0000 </r>
       <r>  -12.6017    1.0000 </r>
       <r>  -12.5952    1.0000 </r>
       <r>  -12.5920    1.0000 </r>
       <r>  -12.5900    1.0000 </r>
       <r>  -12.5874    1.0000 </r>
       <r>  -12.5866    1.0000 </r>
       <r>  -12.5764    1.0000 </r>
       <r>  -12.5761    1.0000 </r>
       <r>  -12.5714    1.0000 </r>
       <r>  -12.5690    1.0000 </r>
       <r>  -12.5653    1.0000 </r>
       <r>  -12.5649    1.0000 </r>
       <r>  -12.5606    1.0000 </r>
       <r>  -12.5581    1.0000 </r>
       <r>  -12.5576    1.0000 </r>
       <r>  -12.5553    1.0000 </r>
       <r>  -12.5537    1.0000 </r>
       <r>  -12.5486    1.0000 </r>
       <r>  -12.5456    1.0000 </r>
       <r>  -12.5364    1.0000 </r>
       <r>  -12.5340    1.0000 </r>
       <r>  -12.5337    1.0000 </r>
       <r>  -12.5323    1.0000 </r>
       <r>  -12.5289    1.0000 </r>
       <r>  -12.5257    1.0000 </r>
       <r>  -12.5227    1.0000 </r>
       <r>  -12.5195    1.0000 </r>
       <r>  -12.5176    1.0000 </r>
       <r>  -12.5148    1.0000 </r>
       <r>  -12.5097    1.0000 </r>
       <r>  -12.5093    1.0000 </r>
       <r>  -12.5046    1.0000 </r>
       <r>  -12.5038    1.0000 </r>
       <r>  -12.4995    1.0000 </r>
       <r>  -12.4975    1.0000 </r>
       <r>  -12.4908    1.0000 </r>
       <r>  -12.4897    1.0000 </r>
       <r>  -12.4874    1.0000 </r>
       <r>  -12.4860    1.0000 </r>
       <r>  -12.4825    1.0000 </r>
       <r>  -12.4822    1.0000 </r>
       <r>  -12.4775    1.0000 </r>
       <r>  -12.4750    1.0000 </r>
       <r>  -12.4707    1.0000 </r>
       <r>  -12.4680    1.0000 </r>
       <r>  -12.4658    1.0000 </r>
       <r>  -12.4643    1.0000 </r>
       <r>  -12.4608    1.0000 </r>
       <r>  -12.4597    1.0000 </r>
       <r>  -12.4587    1.0000 </r>
       <r>  -12.4564    1.0000 </r>
       <r>  -12.4560    1.0000 </r>
       <r>  -12.4534    1.0000 </r>
       <r>  -12.4476    1.0000 </r>
       <r>  -12.4463    1.0000 </r>
       <r>  -12.4443    1.0000 </r>
       <r>  -12.4401    1.0000 </r>
       <r>  -12.4352    1.0000 </r>
       <r>  -12.4347    1.0000 </r>
       <r>  -12.4334    1.0000 </r>
       <r>  -12.4308    1.0000 </r>
       <r>  -12.4298    1.0000 </r>
       <r>  -12.4263    1.0000 </r>
       <r>  -12.4247    1.0000 </r>
       <r>  -12.4208    1.0000 </r>
       <r>  -12.4156    1.0000 </r>
       <r>  -12.4115    1.0000 </r>
       <r>  -12.4103    1.0000 </r>
       <r>  -12.4057    1.0000 </r>
       <r>  -12.4043    1.0000 </r>
       <r>  -12.4040    1.0000 </r>
       <r>  -12.3983    1.0000 </r>
       <r>  -12.3948    1.0000 </r>
       <r>  -12.3942    1.0000 </r>
       <r>  -12.3919    1.0000 </r>
       <r>  -12.3910    1.0000 </r>
       <r>  -12.3767    1.0000 </r>
       <r>  -12.3754    1.0000 </r>
       <r>  -12.3740    1.0000 </r>
       <r>  -12.3690    1.0000 </r>
       <r>  -12.3685    1.0000 </r>
       <r>  -12.3634    1.0000 </r>
       <r>  -12.3586    1.0000 </r>
       <r>  -12.3530    1.0000 </r>
       <r>  -12.3484    1.0000 </r>
       <r>  -12.3418    1.0000 </r>
       <r>  -12.3411    1.0000 </r>
       <r>  -12.3362    1.0000 </r>
       <r>  -12.3345    1.0000 </r>
[...]
       <r>   -11.9875   118.7840   571.8027 </r>
       <r>   -11.8512    89.8560   584.0529 </r>
       <r>   -11.7148   110.7077   599.1458 </r>
       <r>   -11.5785   120.6024   615.5878 </r>
       <r>   -11.4422    45.1039   621.7368 </r>
       <r>   -11.3058     1.9301   622.0000 </r>
       <r>   -11.1695     0.0002   622.0000 </r>
       <r>   -11.0332     0.0000   622.0000 </r>
       <r>   -10.8968     0.0000   622.0000 </r>
       <r>   -10.7605     0.0000   622.0000 </r>
       <r>   -10.6242     0.0000   622.0000 </r>
       <r>   -10.4878     0.0000   622.0000 </r>
       <r>   -10.3515     0.0000   622.0000 </r>
       <r>   -10.2152     0.0000   622.0000 </r>
       <r>   -10.0788     0.0000   622.0000 </r>
       <r>    -9.9425     0.0000   622.0000 </r>
       <r>    -9.8062     0.0000   622.0000 </r>
       <r>    -9.6699     0.0000   622.0000 </r>
       <r>    -9.5335     0.0000   622.0000 </r>
       <r>    -9.3972     0.0000   622.0000 </r>
       <r>    -9.2609     0.0000   622.0000 </r>
       <r>    -9.1245     0.0000   622.0000 </r>
       <r>    -8.9882     0.0000   622.0000 </r>
       <r>    -8.8519     0.0000   622.0000 </r>
       <r>    -8.7155     0.0000   622.0000 </r>
       <r>    -8.5792     0.0000   622.0000 </r>
       <r>    -8.4429     0.0000   622.0000 </r>
       <r>    -8.3065     0.0000   622.0000 </r>
       <r>    -8.1702     0.0000   622.0000 </r>
       <r>    -8.0339     0.0000   622.0000 </r>
       <r>    -7.8975     0.0000   622.0000 </r>
       <r>    -7.7612     0.0000   622.0000 </r>
       <r>    -7.6249     0.0000   622.0000 </r>
       <r>    -7.4885     0.0000   622.0000 </r>
       <r>    -7.3522     0.0000   622.0000 </r>
       <r>    -7.2159     1.3777   622.1878 </r>
       <r>    -7.0795    13.1886   623.9859 </r>
       <r>    -6.9432     0.1037   624.0000 </r>
       <r>    -6.8069     0.0000   624.0000 </r>
       <r>    -6.6706     0.0000   624.0000 </r>
       <r>    -6.5342     0.0000   624.0000 </r>
       <r>    -6.3979     0.0000   624.0000 </r>
       <r>    -6.2616     0.0000   624.0000 </r>
       <r>    -6.1252     0.0000   624.0000 </r>
       <r>    -5.9889     0.0000   624.0000 </r>
       <r>    -5.8526     0.0000   624.0000 </r>
       <r>    -5.7162     0.0000   624.0000 </r>
       <r>    -5.5799     0.0000   624.0000 </r>
       <r>    -5.4436     0.0000   624.0000 </r>
       <r>    -5.3072     0.0000   624.0000 </r>
       <r>    -5.1709     0.0009   624.0001 </r>
       <r>    -5.0346     3.5876   624.4892 </r>
       <r>    -4.8982     9.1219   625.7328 </r>
       <r>    -4.7619    20.4261   628.5175 </r>
       <r>    -4.6256    29.2315   632.5027 </r>
       <r>    -4.4892    29.8864   636.5772 </r>
       <r>    -4.3529    38.7800   641.8641 </r>
       <r>    -4.2166    43.2652   647.7625 </r>
       <r>    -4.0803    52.8204   654.9636 </r>
       <r>    -3.9439    56.0931   662.6109 </r>
       <r>    -3.8076    44.4479   668.6706 </r>
       <r>    -3.6713    42.3617   674.4458 </r>
       <r>    -3.5349    53.3412   681.7179 </r>
       <r>    -3.3986    32.8821   686.2008 </r>
       <r>    -3.2623    33.2742   690.7371 </r>
       <r>    -3.1259    23.0430   693.8786 </r>
       <r>    -2.9896    40.8036   699.4414 </r>
       <r>    -2.8533    34.7414   704.1778 </r>
       <r>    -2.7169    40.5670   709.7083 </r>
       <r>    -2.5806    29.0495   713.6687 </r>
       <r>    -2.4443    32.0626   718.0398 </r>
       <r>    -2.3079    40.0812   723.5042 </r>
       <r>    -2.1716    35.0306   728.2799 </r>
       <r>    -2.0353    53.8511   735.6216 </r>
       <r>    -1.8989    34.2330   740.2886 </r>
       <r>    -1.7626    42.7428   746.1158 </r>
       <r>    -1.6263    70.4341   755.7182 </r>
       <r>    -1.4900    71.5419   765.4716 </r>
       <r>    -1.3536    53.8358   772.8112 </r>
       <r>    -1.2173    64.5146   781.6065 </r>
       <r>    -1.0810    64.8000   790.4408 </r>
       <r>    -0.9446    47.7284   796.9477 </r>
       <r>    -0.8083    50.6654   803.8550 </r>
       <r>    -0.6720    77.7676   814.4572 </r>
       <r>    -0.5356    64.4959   823.2500 </r>
       <r>    -0.3993    81.1613   834.3149 </r>
       <r>    -0.2630    61.5455   842.7055 </r>
       <r>    -0.1266    60.0714   850.8951 </r>
       <r>     0.0097    71.2783   860.6126 </r>
       <r>     0.1460    71.5844   870.3718 </r>
       <r>     0.2824    87.5446   882.3069 </r>
       <r>     0.4187    73.7900   892.3669 </r>
       <r>     0.5550    60.3528   900.5949 </r>
       <r>     0.6914    78.8461   911.3441 </r>
       <r>     0.8277    91.0893   923.7624 </r>
       <r>     0.9640    91.4886   936.2352 </r>
       <r>     1.1004    88.8571   948.3493 </r>
       <r>     1.2367    86.2093   960.1023 </r>
       <r>     1.3730   130.1532   977.8463 </r>
       <r>     1.5093   112.9978   993.2515 </r>
       <r>     1.6457   126.5625  1010.5060 </r>
       <r>     1.7820   116.0080  1026.3216 </r>
       <r>     1.9183    71.2855  1036.0400 </r>
       <r>     2.0547    46.8022  1042.4206 </r>
       <r>     2.1910    51.4585  1049.4361 </r>
       <r>     2.3273     4.1362  1050.0000 </r>
       <r>     2.4637     0.0003  1050.0000 </r>
       <r>     2.6000     0.0000  1050.0000 </r>
       <r>     2.7363     0.0000  1050.0000 </r>
       <r>     2.8727     0.0000  1050.0000 </r>
       <r>     3.0090     0.0323  1050.0044 </r>
       <r>     3.1453     5.7497  1050.7883 </r>
       <r>     3.2817     8.3943  1051.9327 </r>
       <r>     3.4180     0.4938  1052.0000 </r>
       <r>     3.5543     0.0099  1052.0013 </r>
       <r>     3.6907     5.6712  1052.7745 </r>
       <r>     3.8270     1.6740  1053.0027 </r>
       <r>     3.9633     6.2147  1053.8500 </r>
       <r>     4.0996     1.1004  1054.0000 </r>
       <r>     4.2360     0.0000  1054.0000 </r>
       <r>     4.3723     0.0000  1054.0000 </r>
       <r>     4.5086     0.0000  1054.0000 </r>
       <r>     4.6450     1.2553  1054.1711 </r>
       <r>     4.7813    11.9823  1055.8047 </r>
       <r>     4.9176     1.4324  1056.0000 </r>
       <r>     5.0540     0.0000  1056.0000 </r>
       <r>     5.1903     0.0000  1056.0000 </r>
       <r>     5.3266     0.0000  1056.0000 </r>
       <r>     5.4630     0.0000  1056.0000 </r>
       <r>     5.5993     0.0000  1056.0000 </r>
       <r>     5.7356     0.0000  1056.0000 </r>
       <r>     5.8720     0.0000  1056.0000 </r>
       <r>     6.0083     0.0000  1056.0000 </r>
       <r>     6.1446     0.0000  1056.0000 </r>
       <r>     6.2810     0.0000  1056.0000 </r>
       <r>     6.4173     0.0000  1056.0000 </r>
       <r>     6.5536     0.0000  1056.0000 </r>
       <r>     6.6899     0.0000  1056.0000 </r>
       <r>     6.8263     0.0002  1056.0000 </r>
       <r>     6.9626     1.0638  1056.1451 </r>
       <r>     7.0989     0.7696  1056.2500 </r>
       <r>     7.2353     0.0000  1056.2500 </r>
       <r>     7.3716     0.0000  1056.2500 </r>
       <r>     7.5079     0.0000  1056.2500 </r>
       <r>     7.6443     0.0006  1056.2501 </r>
       <r>     7.7806     1.7182  1056.4843 </r>
       <r>     7.9169     5.3573  1057.2147 </r>
       <r>     8.0533     0.2719  1057.2518 </r>
       <r>     8.1896     3.0003  1057.6608 </r>
       <r>     8.3259     4.2708  1058.2430 </r>
       <r>     8.4623     0.0511  1058.2500 </r>
       <r>     8.5986     0.2167  1058.2795 </r>
       <r>     8.7349     7.5488  1059.3087 </r>
       <r>     8.8713     5.9689  1060.1224 </r>
       <r>     9.0076     5.7252  1060.9030 </r>
       <r>     9.1439     4.8511  1061.5643 </r>
       <r>     9.2803     3.6617  1062.0635 </r>
       <r>     9.4166     6.7826  1062.9882 </r>
       <r>     9.5529    11.1521  1064.5086 </r>
       <r>     9.6892     3.6610  1065.0077 </r>
       <r>     9.8256     4.6394  1065.6402 </r>
       <r>     9.9619    15.6615  1067.7754 </r>
       <r>    10.0982    13.2870  1069.5868 </r>
       <r>    10.2346    22.2211  1072.6162 </r>
       <r>    10.3709    11.9784  1074.2493 </r>
       <r>    10.5072    23.2611  1077.4205 </r>
       <r>    10.6436    27.4003  1081.1560 </r>
       <r>    10.7799    31.1246  1085.3993 </r>
       <r>    10.9162    40.6047  1090.9350 </r>
       <r>    11.0526    37.0675  1095.9885 </r>
       <r>    11.1889    32.5711  1100.4290 </r>
       <r>    11.3252    34.8801  1105.1842 </r>
       <r>    11.4616    23.6098  1108.4030 </r>
       <r>    11.5979    33.4560  1112.9641 </r>
       <r>    11.7342    35.0676  1117.7449 </r>
       <r>    11.8706    37.1953  1122.8158 </r>
       <r>    12.0069    35.7861  1127.6946 </r>
       <r>    12.1432    38.9169  1133.0002 </r>
       <r>    12.2795    24.8945  1136.3941 </r>
       <r>    12.4159    28.0693  1140.2208 </r>
       <r>    12.5522    39.0801  1145.5487 </r>
       <r>    12.6885    43.7939  1151.5192 </r>
       <r>    12.8249    35.5353  1156.3638 </r>
       <r>    12.9612    26.3913  1159.9617 </r>
       <r>    13.0975    18.2330  1162.4475 </r>
       <r>    13.2339    24.6517  1165.8083 </r>
       <r>    13.3702    30.7709  1170.0033 </r>
       <r>    13.5065    23.6938  1173.2336 </r>
       <r>    13.6429    27.9649  1177.0461 </r>
       <r>    13.7792    32.4620  1181.4717 </r>
       <r>    13.9155    28.2817  1185.3274 </r>
       <r>    14.0519    29.7278  1189.3802 </r>
       <r>    14.1882    24.6418  1192.7396 </r>
       <r>    14.3245    22.4197  1195.7962 </r>
       <r>    14.4609    25.5577  1199.2805 </r>
       <r>    14.5972    21.7395  1202.2443 </r>
       <r>    14.7335    23.1118  1205.3951 </r>
       <r>    14.8698    23.9604  1208.6617 </r>
       <r>    15.0062    25.0363  1212.0750 </r>
       <r>    15.1425    24.7748  1215.4525 </r>
       <r>    15.2788    24.0506  1218.7314 </r>
       <r>    15.4152    23.2947  1221.9072 </r>
       <r>    15.5515    23.0388  1225.0481 </r>
       <r>    15.6878    24.7907  1228.4279 </r>
       <r>    15.8242    26.9011  1232.0953 </r>
       <r>    15.9605    18.7216  1234.6477 </r>
       <r>    16.0968    23.6880  1237.8771 </r>
       <r>    16.2332    18.0802  1240.3420 </r>
       <r>    16.3695    24.1411  1243.6332 </r>
       <r>    16.5058    16.7735  1245.9200 </r>
       <r>    16.6422    19.6267  1248.5957 </r>
       <r>    16.7785    20.0730  1251.3323 </r>
       <r>    16.9148    14.7920  1253.3489 </r>
       <r>    17.0512    17.8832  1255.7870 </r>
       <r>    17.1875    18.2867  1258.2800 </r>
       <r>    17.3238    11.2680  1259.8162 </r>
       <r>    17.4602     8.5879  1260.9870 </r>
       <r>    17.5965     7.2551  1261.9761 </r>
       <r>    17.7328     5.7481  1262.7598 </r>
       <r>    17.8691     7.1998  1263.7413 </r>
       <r>    18.0055     5.5445  1264.4972 </r>
       <r>    18.1418     3.5728  1264.9843 </r>
       <r>    18.2781     0.9619  1265.1154 </r>
       <r>    18.4145     3.3193  1265.5680 </r>
       <r>    18.5508     1.4827  1265.7701 </r>
       <r>    18.6871     1.6734  1265.9982 </r>
       <r>    18.8235     0.0130  1266.0000 </r>
       <r>    18.9598     0.0000  1266.0000 </r>
       <r>    19.0961     0.0000  1266.0000 </r>
       <r>    19.2325     0.0000  1266.0000 </r>
       <r>    19.3688     0.0000  1266.0000 </r>
       <r>    19.5051     0.0000  1266.0000 </r>
       <r>    19.6415     0.0000  1266.0000 </r>
       <r>    19.7778     0.0000  1266.0000 </r>
       <r>    19.9141     0.0000  1266.0000 </r>
       <r>    20.0505     0.0000  1266.0000 </r>
       <r>    20.1868     0.0000  1266.0000 </r>
       <r>    20.3231     0.0000  1266.0000 </r>
       <r>    20.4594     0.0000  1266.0000 </r>
      </set>
     </set>
    </array>
   </total>
  </dos>
 </calculation>
 <structure name="finalpos" >
  <crystal>
   <varray name="basis" >
    <v>       0.00000000      12.28047342       0.00000000 </v>
    <v>       9.14270205       0.00000000       0.00000000 </v>
    <v>       0.00000000      -2.76826177     -11.30069772 </v>
   </varray>
   <i name="volume">   1268.80515525 </i>
   <varray name="rec_basis" >
    <v>       0.00000000       0.08143009      -0.01994742 </v>
    <v>       0.10937686      -0.00000000       0.00000000 </v>
    <v>       0.00000000       0.00000000      -0.08849011 </v>
   </varray>
  </crystal>
  <varray name="positions" >
   <v>       0.65891599       0.00000000       0.15597142 </v>
   <v>       0.65941879       0.00000000       0.65602134 </v>
   <v>       0.65874031       0.33392692       0.15628865 </v>
   <v>       0.65815433       0.33337633       0.65617085 </v>
   <v>       0.65874031       0.66607308       0.15628865 </v>
   <v>       0.65815433       0.66662367       0.65617085 </v>
   <v>       0.83675626       0.16799049       0.34270879 </v>
   <v>       0.83999728       0.16722953       0.84217595 </v>
   <v>       0.84009126       0.50000000       0.34270533 </v>
   <v>       0.84031631       0.50000000       0.84303102 </v>
   <v>       0.83675626       0.83200951       0.34270879 </v>
   <v>       0.83999728       0.83277047       0.84217595 </v>
   <v>       0.58984556       0.16715905       0.39779286 </v>
   <v>       0.59209111       0.16655609       0.89801136 </v>
   <v>       0.59075698       0.50000000       0.39789338 </v>
   <v>       0.59476716       0.50000000       0.89907114 </v>
   <v>       0.58984556       0.83284095       0.39779286 </v>
   <v>       0.59209111       0.83344391       0.89801136 </v>
   <v>       0.90607561       0.00000000       0.09956758 </v>
   <v>       0.90952406       0.00000000       0.60164915 </v>
   <v>       0.90776520       0.33292620       0.10264792 </v>
   <v>       0.90767538       0.33359622       0.60179729 </v>
   <v>       0.90776520       0.66707380       0.10264792 </v>
   <v>       0.90767538       0.66640378       0.60179729 </v>
   <v>       0.15874959       0.16633240       0.15250428 </v>
   <v>       0.16098052       0.17793969       0.66319163 </v>
   <v>       0.15726680       0.50000000       0.15895989 </v>
   <v>       0.15879605       0.50000000       0.65890840 </v>
   <v>       0.15874959       0.83366760       0.15250428 </v>
   <v>       0.16098052       0.82206031       0.66319163 </v>
   <v>       0.34121679       0.00000000       0.33983326 </v>
   <v>       0.34239687       0.00000000       0.84756535 </v>
   <v>       0.33994931       0.33454927       0.34337181 </v>
   <v>       0.34513905       0.33454584       0.84761066 </v>
   <v>       0.33994931       0.66545073       0.34337181 </v>
   <v>       0.34513905       0.66545416       0.84761066 </v>
   <v>       0.07582916       0.00000000       0.37229854 </v>
   <v>       0.08960343       0.00000000       0.89555877 </v>
   <v>       0.08994384       0.33305121       0.39910539 </v>
   <v>       0.08947637       0.33347483       0.89875841 </v>
   <v>       0.08994384       0.66694879       0.39910539 </v>
   <v>       0.08947637       0.66652517       0.89875841 </v>
   <v>       0.41042883       0.16685733       0.10425497 </v>
   <v>       0.40916244       0.16592797       0.60625163 </v>
   <v>       0.40923333       0.50000000       0.10471703 </v>
   <v>       0.40787874       0.50000000       0.60383110 </v>
   <v>       0.41042883       0.83314267       0.10425497 </v>
   <v>       0.40916244       0.83407203       0.60625163 </v>
   <v>       0.99522024       0.16584021       0.12380773 </v>
   <v>       0.99660115       0.16732300       0.62591100 </v>
   <v>       0.99513691       0.50000000       0.12744488 </v>
   <v>       0.99529911       0.50000000       0.62889730 </v>
   <v>       0.99522024       0.83415979       0.12380773 </v>
   <v>       0.99660115       0.83267700       0.62591100 </v>
   <v>       0.50341227       0.00000000       0.37233325 </v>
   <v>       0.50498067       0.00000000       0.87591909 </v>
   <v>       0.50265859       0.33377677       0.37270979 </v>
   <v>       0.50714925       0.33471456       0.87672357 </v>
   <v>       0.50265859       0.66622323       0.37270979 </v>
   <v>       0.50714925       0.66528544       0.87672357 </v>
   <v>       0.67097342       0.16664721       0.28027401 </v>
   <v>       0.67212086       0.16681280       0.77975146 </v>
   <v>       0.67159713       0.50000000       0.28064928 </v>
   <v>       0.67288074       0.50000000       0.77977663 </v>
   <v>       0.67097342       0.83335279       0.28027401 </v>
   <v>       0.67212086       0.83318720       0.77975146 </v>
   <v>       0.82638632       0.00000000       0.21845775 </v>
   <v>       0.82751851       0.00000000       0.71841648 </v>
   <v>       0.82548331       0.33436759       0.21875638 </v>
   <v>       0.82683624       0.33312436       0.71930764 </v>
   <v>       0.82548331       0.66563241       0.21875638 </v>
   <v>       0.82683624       0.66687564       0.71930764 </v>
   <v>       0.83202381       0.00000000       0.44529820 </v>
   <v>       0.82995320       0.00000000       0.94343832 </v>
   <v>       0.83013580       0.33412586       0.44577688 </v>
   <v>       0.83156958       0.33333106       0.94552224 </v>
   <v>       0.83013580       0.66587414       0.44577688 </v>
   <v>       0.83156958       0.66666894       0.94552224 </v>
   <v>       0.66859245       0.16675171       0.05470606 </v>
   <v>       0.66764664       0.16687549       0.55379212 </v>
   <v>       0.67010993       0.50000000       0.05538302 </v>
   <v>       0.66761655       0.50000000       0.55424629 </v>
   <v>       0.66859245       0.83324829       0.05470606 </v>
   <v>       0.66764664       0.83312451       0.55379212 </v>
   <v>       0.49711133       0.00000000       0.12889227 </v>
   <v>       0.49759388       0.00000000       0.62900314 </v>
   <v>       0.49685364       0.33397501       0.12877038 </v>
   <v>       0.49588871       0.33357174       0.62699336 </v>
   <v>       0.49685364       0.66602499       0.12877038 </v>
   <v>       0.49588871       0.66642826       0.62699336 </v>
   <v>       0.99644445       0.17186780       0.36345925 </v>
   <v>       0.00254589       0.16691926       0.87082813 </v>
   <v>       0.00232755       0.50000000       0.37261069 </v>
   <v>       0.00265565       0.50000000       0.87312937 </v>
   <v>       0.99644445       0.82813220       0.36345925 </v>
   <v>       0.00254589       0.83308074       0.87082813 </v>
   <v>       0.17068973       0.00000000       0.26811578 </v>
   <v>       0.17462898       0.00000000       0.78281167 </v>
   <v>       0.17184892       0.33196976       0.28146216 </v>
   <v>       0.17286256       0.33523501       0.78316474 </v>
   <v>       0.17184892       0.66803024       0.28146216 </v>
   <v>       0.17286256       0.66476499       0.78316474 </v>
   <v>       0.32765462       0.16767043       0.21987306 </v>
   <v>       0.33577026       0.17368311       0.73031576 </v>
   <v>       0.32613682       0.50000000       0.22008677 </v>
   <v>       0.32864501       0.50000000       0.72277515 </v>
   <v>       0.32765462       0.83232957       0.21987306 </v>
   <v>       0.33577026       0.82631689       0.73031576 </v>
   <v>       0.33574166       0.16571887       0.44602101 </v>
   <v>       0.33234681       0.16769077       0.94918498 </v>
   <v>       0.33235711       0.50000000       0.44650439 </v>
   <v>       0.33269503       0.50000000       0.94830456 </v>
   <v>       0.33574166       0.83428113       0.44602101 </v>
   <v>       0.33234681       0.83230923       0.94918498 </v>
   <v>       0.16894423       0.00000000       0.04980490 </v>
   <v>       0.16710892       0.33484262       0.05463649 </v>
   <v>       0.16804109       0.34059329       0.55482844 </v>
   <v>       0.16710892       0.66515738       0.05463649 </v>
   <v>       0.16804109       0.65940671       0.55482844 </v>
   <v>       0.20131132       0.00000000       0.54168000 </v>
  </varray>
 </structure>
</modeling>
