 running    4 mpi-ranks, on    1 nodes
 distrk:  each k-point on    1 cores,    4 groups
 distr:  one band on    1 cores,    1 groups
 OpenACC runtime initialized ...    4 GPUs detected
 vasp.6.4.2 20Jul23 (build Nov 12 2023 22:16:35) complex                         
 POSCAR found type information on POSCAR GaO N 
 POSCAR found :  3 types and     120 ions
 scaLAPACK will be used selectively (only on CPU)
 LDA part: xc-table for Pade appr. of Perdew
 POSCAR, INCAR and KPOINTS ok, starting setup
 FFT: planning ... GRIDC
 FFT: planning ... GRID_SOFT
 FFT: planning ... GRID
 WAVECAR not read
 initial charge from wavefunction
 entering main loop
       N       E                     dE             d eps       ncg     rms          ort
DAV:   1    -0.182698445395E+05   -0.18270E+05   -0.54184E+05  5064   0.746E+03
DAV:   2    -0.623994487573E+05   -0.44130E+05   -0.42825E+05  5064   0.119E+03
DAV:   3    -0.669259510517E+05   -0.45265E+04   -0.40281E+04  5064   0.348E+02
DAV:   4    -0.674503201557E+05   -0.52437E+03   -0.44629E+03  5064   0.102E+02
DAV:   5    -0.373310067768E+05    0.30119E+05   -0.73318E+02  5064   0.534E+01
 gam= 0.000 g(H,U,f)=  0.681E+05 0.303E+05 0.170E+04 ort(H,U,f) = 0.000E+00 0.000E+00 0.000E+00
SDA:   6     0.183194551309E+05    0.55650E+05   -0.73318E+02  5064   0.100E+06 0.000E+00
 gam= 0.000 trial= 0.400  step= 0.258 mean= 0.400
 gam= 0.337 g(H,U,f)=  0.166E+05 0.124E+05 0.462E+04 ort(H,U,f) = 0.147E+05-0.163E+05-0.764E+04
CGA:   7     0.516604479736E+04   -0.13153E+05   -0.12910E+05  5064   0.337E+05-0.928E+04
 gam= 0.337 trial= 0.393  step= 0.218 mean= 0.393
 gam= 0.178 g(H,U,f)=  0.428E+04 0.143E+04 0.277E+03 ort(H,U,f) = 0.126E+04 0.884E+03 0.702E+03
CGA:   8     0.112830097989E+04   -0.40377E+04   -0.33361E+04  5064   0.599E+04 0.284E+04
 gam= 0.178 trial= 0.384  step= 0.221 mean= 0.384
 gam= 0.704 g(H,U,f)=  0.212E+04 0.199E+04 0.107E+03 ort(H,U,f) = 0.778E+03 0.441E+03 0.753E+02
CGA:   9     0.305136129110E+03   -0.82316E+03   -0.71621E+03  5064   0.422E+04 0.129E+04
 gam= 0.704 trial= 0.376  step= 0.219 mean= 0.376
 gam= 1.221 g(H,U,f)=  0.191E+04 0.306E+04 0.184E+03 ort(H,U,f) =-0.145E+03 0.347E+03 0.963E+02
CGA:  10    -0.100142181318E+03   -0.40528E+03   -0.56210E+03  5064   0.515E+04 0.298E+03
 gam= 1.221 trial= 0.368  step= 0.171 mean= 0.368
 gam= 0.466 g(H,U,f)=  0.186E+04 0.516E+03 0.237E+02 ort(H,U,f) =-0.892E+03 0.542E+03 0.269E+02
CGA:  11    -0.358297360541E+03   -0.25816E+03   -0.47169E+03  5064   0.240E+04-0.324E+03
 gam= 0.466 trial= 0.358  step= 0.268 mean= 0.358
 gam= 0.370 g(H,U,f)=  0.822E+03 0.642E+02 0.170E+01 ort(H,U,f) =-0.226E+02 0.147E+03 0.548E+01
CGA:  12    -0.638354182564E+03   -0.28006E+03   -0.30127E+03  5064   0.888E+03 0.130E+03
 gam= 0.370 trial= 0.354  step= 0.323 mean= 0.354
 gam= 0.382 g(H,U,f)=  0.324E+03 0.149E+02 0.720E-02 ort(H,U,f) = 0.376E+01 0.262E+02-0.210E-02
CGA:  13    -0.788580648875E+03   -0.15023E+03   -0.15129E+03  5064   0.339E+03 0.300E+02
 gam= 0.382 trial= 0.352  step= 0.447 mean= 0.352
 gam= 0.570 g(H,U,f)=  0.184E+03 0.805E+01 0.168E+01 ort(H,U,f) =-0.127E-01 0.774E+01 0.265E+01
CGA:  14    -0.867788979773E+03   -0.79208E+02   -0.78390E+02  5064   0.193E+03 0.104E+02
 gam= 0.570 trial= 0.357  step= 0.433 mean= 0.357
 gam= 0.495 g(H,U,f)=  0.856E+02 0.953E+01 0.651E+00 ort(H,U,f) =-0.149E+02 0.112E+02 0.261E+01
CGA:  15    -0.910954361304E+03   -0.43165E+02   -0.43150E+02  5064   0.958E+02-0.102E+01
 gam= 0.495 trial= 0.361  step= 0.420 mean= 0.361
 gam= 0.534 g(H,U,f)=  0.467E+02 0.449E+01 0.601E-05 ort(H,U,f) =-0.669E+01 0.699E+01 0.279E-04
CGA:  16    -0.930998916413E+03   -0.20045E+02   -0.20016E+02  5064   0.512E+02 0.297E+00
 gam= 0.534 trial= 0.364  step= 0.442 mean= 0.364
 gam= 0.447 g(H,U,f)=  0.214E+02 0.146E+01 0.130E-15 ort(H,U,f) =-0.504E+01 0.253E+01 0.818E-15
CGA:  17    -0.942175873900E+03   -0.11177E+02   -0.11339E+02  5064   0.229E+02-0.251E+01
 gam= 0.447 trial= 0.368  step= 0.423 mean= 0.368
 gam= 0.436 g(H,U,f)=  0.926E+01 0.699E+00 0.515E-14 ort(H,U,f) =-0.800E+00 0.596E+00 0.675E-14
CGA:  18    -0.946766951827E+03   -0.45911E+01   -0.45977E+01  5064   0.996E+01-0.204E+00
 gam= 0.436 trial= 0.370  step= 0.488 mean= 0.370
 gam= 0.528 g(H,U,f)=  0.486E+01 0.395E+00 0.992E-19 ort(H,U,f) =-0.382E+00 0.281E+00 0.156E-18
CGA:  19    -0.949169145789E+03   -0.24022E+01   -0.24086E+01  5064   0.525E+01-0.102E+00
 gam= 0.528 trial= 0.376  step= 0.514 mean= 0.376
 gam= 0.513 g(H,U,f)=  0.250E+01 0.200E+00-0.691E-32 ort(H,U,f) =-0.219E+00 0.185E+00-0.192E-31
CGA:  20    -0.950503959509E+03   -0.13348E+01   -0.13374E+01  5064   0.270E+01-0.339E-01
 gam= 0.513 trial= 0.383  step= 0.468 mean= 0.383
 gam= 0.478 g(H,U,f)=  0.122E+01 0.737E-01 0.245E-17 ort(H,U,f) =-0.106E+00 0.101E+00 0.161E-16
CGA:  21    -0.951130512173E+03   -0.62655E+00   -0.62685E+00  5064   0.129E+01-0.553E-02
 gam= 0.478 trial= 0.388  step= 0.477 mean= 0.388
 gam= 0.516 g(H,U,f)=  0.624E+00 0.417E-01 0.467E-13 ort(H,U,f) =-0.260E-01 0.250E-01 0.143E-11
CGA:  22    -0.951437313123E+03   -0.30680E+00   -0.30688E+00  5064   0.666E+00-0.100E-02
 gam= 0.516 trial= 0.392  step= 0.477 mean= 0.392
 gam= 0.456 g(H,U,f)=  0.269E+00 0.347E-01 0.563E-15 ort(H,U,f) =-0.216E-01 0.211E-01-0.332E-14
CGA:  23    -0.951595796375E+03   -0.15848E+00   -0.15852E+00  5064   0.303E+00-0.477E-03
 gam= 0.456 trial= 0.396  step= 0.478 mean= 0.396
 gam= 0.465 g(H,U,f)=  0.126E+00 0.149E-01 0.205E-14 ort(H,U,f) =-0.203E-01 0.201E-01-0.455E-14
CGA:  24    -0.951668316562E+03   -0.72520E-01   -0.72532E-01  5064   0.141E+00-0.243E-03
 gam= 0.465 trial= 0.400  step= 0.529 mean= 0.400
 gam= 0.542 g(H,U,f)=  0.703E-01 0.618E-02 0.283E-12 ort(H,U,f) =-0.563E-02 0.565E-02 0.712E-14
CGA:  25    -0.951705640805E+03   -0.37324E-01   -0.37321E-01  5064   0.765E-01 0.279E-04
 gam= 0.542 trial= 0.407  step= 0.492 mean= 0.407
 gam= 0.517 g(H,U,f)=  0.360E-01 0.350E-02 0.630E-15 ort(H,U,f) =-0.147E-02 0.156E-02 0.151E-14
CGA:  26    -0.951724463334E+03   -0.18823E-01   -0.18818E-01  5064   0.395E-01 0.963E-04
 gam= 0.517 trial= 0.411  step= 0.464 mean= 0.411
 gam= 0.511 g(H,U,f)=  0.187E-01 0.150E-02 0.423E-20 ort(H,U,f) =-0.911E-03 0.960E-03 0.567E-20
CGA:  27    -0.951733658959E+03   -0.91956E-02   -0.91945E-02  5064   0.202E-01 0.490E-04
 gam= 0.511 trial= 0.414  step= 0.463 mean= 0.414
 gam= 0.503 g(H,U,f)=  0.932E-02 0.844E-03 0.642E-16 ort(H,U,f) =-0.503E-03 0.479E-03 0.144E-15
CGA:  28    -0.951738341841E+03   -0.46829E-02   -0.46836E-02  5064   0.102E-01-0.239E-04
 gam= 0.503 trial= 0.416  step= 0.481 mean= 0.416
 gam= 0.473 g(H,U,f)=  0.445E-02 0.355E-03 0.345E-15 ort(H,U,f) =-0.478E-03 0.420E-03 0.321E-14
CGA:  29    -0.951740779689E+03   -0.24378E-02   -0.24398E-02  5064   0.481E-02-0.584E-04
 gam= 0.473 trial= 0.419  step= 0.503 mean= 0.419
 gam= 0.476 g(H,U,f)=  0.213E-02 0.157E-03 0.289E-14 ort(H,U,f) =-0.222E-03 0.185E-03-0.202E-14
CGA:  30    -0.951741980781E+03   -0.12011E-02   -0.12027E-02  5064   0.229E-02-0.376E-04
 gam= 0.476 trial= 0.424  step= 0.542 mean= 0.424
 gam= 0.544 g(H,U,f)=  0.113E-02 0.120E-03 0.119E-20 ort(H,U,f) =-0.125E-03 0.116E-03-0.566E-20
CGA:  31    -0.951742595884E+03   -0.61510E-03   -0.61559E-03  5064   0.125E-02-0.833E-05
 gam= 0.544 trial= 0.429  step= 0.532 mean= 0.429
 gam= 0.527 g(H,U,f)=  0.613E-03 0.425E-04 0.786E-19 ort(H,U,f) =-0.715E-04 0.755E-04-0.120E-18
CGA:  32    -0.951742925826E+03   -0.32994E-03   -0.32975E-03  5064   0.656E-03 0.399E-05
 gam= 0.527 trial= 0.435  step= 0.486 mean= 0.435
 gam= 0.504 g(H,U,f)=  0.310E-03 0.199E-04 0.544E-18 ort(H,U,f) =-0.549E-05 0.808E-05 0.132E-18
CGA:  33    -0.951743085798E+03   -0.15997E-03   -0.15991E-03  5064   0.330E-03 0.259E-05
 gam= 0.504 trial= 0.437  step= 0.492 mean= 0.437
 gam= 0.525 g(H,U,f)=  0.156E-03 0.178E-04 0.248E-17 ort(H,U,f) = 0.668E-06-0.428E-06 0.339E-17
CGA:  34    -0.951743167375E+03   -0.81577E-04   -0.81572E-04  5064   0.174E-03 0.241E-06
 gam= 0.525 trial= 0.440  step= 0.497 mean= 0.440
 gam= 0.471 g(H,U,f)=  0.730E-04 0.868E-05 0.112E-16 ort(H,U,f) =-0.222E-05 0.460E-05 0.228E-16
CGA:  35    -0.951743210609E+03   -0.43234E-04   -0.43167E-04  5064   0.817E-04 0.238E-05
 gam= 0.471 trial= 0.443  step= 0.495 mean= 0.443
 gam= 0.477 g(H,U,f)=  0.350E-04 0.392E-05 0.325E-16 ort(H,U,f) = 0.114E-05 0.313E-05 0.905E-16
CGA:  36    -0.951743231235E+03   -0.20626E-04   -0.20514E-04  5064   0.389E-04 0.426E-05
 gam= 0.477 trial= 0.445  step= 0.525 mean= 0.445
 gam= 0.000 g(H,U,f)=  0.192E-04 0.184E-05 0.413E-16 ort(H,U,f) = 0.177E-05 0.188E-05 0.225E-15
SDA:  37    -0.951743242140E+03   -0.10905E-04   -0.10759E-04  5064   0.210E-04 0.365E-05
 gam= 0.000 trial= 0.449  step= 0.844 mean= 0.449
 gam= 0.293 g(H,U,f)=  0.528E-05 0.878E-06 0.335E-16 ort(H,U,f) =-0.121E-05 0.516E-06 0.982E-16
CGA:  38    -0.951743250872E+03   -0.87329E-05   -0.88699E-05  5064   0.615E-05-0.695E-06
 gam= 0.293 trial= 0.469  step= 0.824 mean= 0.469
 final diagonalization
   1 F= -.95174325E+03 E0= -.95174325E+03  d E =-.976788E-12
 writing wavefunctions
Warning: ieee_invalid is signaling
Warning: ieee_divide_by_zero is signaling
Warning: ieee_underflow is signaling
Warning: ieee_inexact is signaling
FORTRAN STOP
Warning: ieee_invalid is signaling
Warning: ieee_divide_by_zero is signaling
Warning: ieee_underflow is signaling
Warning: ieee_inexact is signaling
FORTRAN STOP
Warning: ieee_invalid is signaling
Warning: ieee_divide_by_zero is signaling
Warning: ieee_underflow is signaling
Warning: ieee_inexact is signaling
FORTRAN STOP
Warning: ieee_invalid is signaling
Warning: ieee_divide_by_zero is signaling
Warning: ieee_underflow is signaling
Warning: ieee_inexact is signaling
FORTRAN STOP
