       N       E                     dE             d eps       ncg     rms          ort
DAV:   1    -0.182698445395E+05   -0.18270E+05   -0.54184E+05  5064   0.746E+03
DAV:   2    -0.623994487573E+05   -0.44130E+05   -0.42825E+05  5064   0.119E+03
DAV:   3    -0.669259510517E+05   -0.45265E+04   -0.40281E+04  5064   0.348E+02
DAV:   4    -0.674503201557E+05   -0.52437E+03   -0.44629E+03  5064   0.102E+02
DAV:   5    -0.373310067768E+05    0.30119E+05   -0.73318E+02  5064   0.534E+01
SDA:   6     0.183194551309E+05    0.55650E+05   -0.73318E+02  5064   0.100E+06 0.000E+00
CGA:   7     0.516604479736E+04   -0.13153E+05   -0.12910E+05  5064   0.337E+05-0.928E+04
CGA:   8     0.112830097989E+04   -0.40377E+04   -0.33361E+04  5064   0.599E+04 0.284E+04
CGA:   9     0.305136129110E+03   -0.82316E+03   -0.71621E+03  5064   0.422E+04 0.129E+04
CGA:  10    -0.100142181318E+03   -0.40528E+03   -0.56210E+03  5064   0.515E+04 0.298E+03
CGA:  11    -0.358297360541E+03   -0.25816E+03   -0.47169E+03  5064   0.240E+04-0.324E+03
CGA:  12    -0.638354182564E+03   -0.28006E+03   -0.30127E+03  5064   0.888E+03 0.130E+03
CGA:  13    -0.788580648875E+03   -0.15023E+03   -0.15129E+03  5064   0.339E+03 0.300E+02
CGA:  14    -0.867788979773E+03   -0.79208E+02   -0.78390E+02  5064   0.193E+03 0.104E+02
CGA:  15    -0.910954361304E+03   -0.43165E+02   -0.43150E+02  5064   0.958E+02-0.102E+01
CGA:  16    -0.930998916413E+03   -0.20045E+02   -0.20016E+02  5064   0.512E+02 0.297E+00
CGA:  17    -0.942175873900E+03   -0.11177E+02   -0.11339E+02  5064   0.229E+02-0.251E+01
CGA:  18    -0.946766951827E+03   -0.45911E+01   -0.45977E+01  5064   0.996E+01-0.204E+00
CGA:  19    -0.949169145789E+03   -0.24022E+01   -0.24086E+01  5064   0.525E+01-0.102E+00
CGA:  20    -0.950503959509E+03   -0.13348E+01   -0.13374E+01  5064   0.270E+01-0.339E-01
CGA:  21    -0.951130512173E+03   -0.62655E+00   -0.62685E+00  5064   0.129E+01-0.553E-02
CGA:  22    -0.951437313123E+03   -0.30680E+00   -0.30688E+00  5064   0.666E+00-0.100E-02
CGA:  23    -0.951595796375E+03   -0.15848E+00   -0.15852E+00  5064   0.303E+00-0.477E-03
CGA:  24    -0.951668316562E+03   -0.72520E-01   -0.72532E-01  5064   0.141E+00-0.243E-03
CGA:  25    -0.951705640805E+03   -0.37324E-01   -0.37321E-01  5064   0.765E-01 0.279E-04
CGA:  26    -0.951724463334E+03   -0.18823E-01   -0.18818E-01  5064   0.395E-01 0.963E-04
CGA:  27    -0.951733658959E+03   -0.91956E-02   -0.91945E-02  5064   0.202E-01 0.490E-04
CGA:  28    -0.951738341841E+03   -0.46829E-02   -0.46836E-02  5064   0.102E-01-0.239E-04
CGA:  29    -0.951740779689E+03   -0.24378E-02   -0.24398E-02  5064   0.481E-02-0.584E-04
CGA:  30    -0.951741980781E+03   -0.12011E-02   -0.12027E-02  5064   0.229E-02-0.376E-04
CGA:  31    -0.951742595884E+03   -0.61510E-03   -0.61559E-03  5064   0.125E-02-0.833E-05
CGA:  32    -0.951742925826E+03   -0.32994E-03   -0.32975E-03  5064   0.656E-03 0.399E-05
CGA:  33    -0.951743085798E+03   -0.15997E-03   -0.15991E-03  5064   0.330E-03 0.259E-05
CGA:  34    -0.951743167375E+03   -0.81577E-04   -0.81572E-04  5064   0.174E-03 0.241E-06
CGA:  35    -0.951743210609E+03   -0.43234E-04   -0.43167E-04  5064   0.817E-04 0.238E-05
CGA:  36    -0.951743231235E+03   -0.20626E-04   -0.20514E-04  5064   0.389E-04 0.426E-05
SDA:  37    -0.951743242140E+03   -0.10905E-04   -0.10759E-04  5064   0.210E-04 0.365E-05
CGA:  38    -0.951743250872E+03   -0.87329E-05   -0.88699E-05  5064   0.615E-05-0.695E-06
   1 F= -.95174325E+03 E0= -.95174325E+03  d E =-.976788E-12
