 vasp.6.4.2 20Jul23 (build Nov 12 2023 22:16:35) complex                         
 executed on              LinuxNV date 2025.03.24  04:32:48
 running    4 mpi-ranks, on    1 nodes
 distrk:  each k-point on    1 cores,    4 groups
 distr:  one band on NCORE=   1 cores,    1 groups
 OpenACC runtime initialized ...    4 GPUs detected


--------------------------------------------------------------------------------------------------------


 INCAR:
   PREC = Normal
   ENCUT = 450
   NELM = 500
   IBRION = -1
   ISPIN = 1
   NSW = 0
   ISIF = 2
   EDIFF = 1E-5
   EDIFFG = -5E-3
   ISTART = 0
   ICHARG = 0
   ISMEAR = 0
   SIGMA = 0.05
   LWAVE = .T.
   LCHARG = .T.
   LREAL = Auto
   LPLANE = .TRUE.
   NPAR = 1
   KPAR = 4
   NCORE = 1
   ALGO = All
   LHFCALC = .TRUE.
   HSE06 = .TRUE.
   HFSCREEN = 0.2
   TIME = 0.4
   AEXX = 0.32
   LMAXFOCK = 4
   PRECFOCK = Fast
   NELECT = 1056

 POTCAR:    PAW_PBE Ga_d 06Jul2010                
 POTCAR:    PAW_PBE O 08Apr2002                   
 POTCAR:    PAW_PBE N 08Apr2002                   
 POTCAR:    PAW_PBE Ga_d 06Jul2010                
   SHA256 =  a60ddf36e14f00ea098d9e3914b3745f1b7105e68786148f49ae384e44b4226c Ga_d/POTCAR           
   COPYR  = (c) Copyright 06Jul2010 Georg Kresse                                                    
   COPYR  = This file is part of the software VASP. Any use, copying, and all other rights are regul
   COPYR  = If you do not have a valid VASP license, you may not use, copy or distribute this file. 
   VRHFIN =Ga: s2p1                                                                                 
   LEXCH  = PE                                                                                      
   EATOM  =  2148.8298 eV,  157.9345 Ry                                                             
                                                                                                    
   TITEL  = PAW_PBE Ga_d 06Jul2010                                                                  
   LULTRA =        F    use ultrasoft PP ?                                                          
   IUNSCR =        1    unscreen: 0-lin 1-nonlin 2-no                                               
   RPACOR =    1.700    partial core radius                                                         
   POMASS =   69.723; ZVAL   =   13.000    mass and valenz                                          
   RCORE  =    2.300    outmost cutoff radius                                                       
   RWIGS  =    2.300; RWIGS  =    1.217    wigner-seitz radius (au A)                               
   ENMAX  =  282.691; ENMIN  =  212.018 eV                                                          
   ICORE  =        3    local potential                                                             
   LCOR   =        T    correct aug charges                                                         
   LPAW   =        T    paw PP                                                                      
   EAUG   =  490.690                                                                                
   DEXC   =    0.000                                                                                
   RMAX   =    2.341    core radius for proj-oper                                                   
   RAUG   =    1.300    factor for augmentation sphere                                              
   RDEP   =    2.413    radius for radial grids                                                     
   RDEPT  =    1.856    core radius for aug-charge                                                  
                                                                                                    
   Atomic configuration                                                                             
    9 entries                                                                                       
     n  l   j            E        occ.                                                              
     1  0  0.50    -10228.7831   2.0000                                                             
     2  0  0.50     -1262.1604   2.0000                                                             
     2  1  1.50     -1098.6333   6.0000                                                             
     3  0  0.50      -148.1110   2.0000                                                             
     3  1  1.50       -98.8436   6.0000                                                             
     3  2  2.50       -19.1549  10.0000                                                             
     4  0  0.50        -8.9483   2.0000                                                             
     4  1  0.50        -2.5791   1.0000                                                             
     4  3  2.50        -2.7416   0.0000                                                             
   Description                                                                                      
     l       E           TYP  RCUT    TYP  RCUT                                                     
     2    -19.1549037     23  2.300                                                                 
     2     -5.4423304     23  2.300                                                                 
     0     -8.9483111     23  2.300                                                                 
     0     68.0291300     23  2.300                                                                 
     1     -2.5790802     23  2.100                                                                 
     1     81.6349560     23  2.300                                                                 
     3      6.8029130     23  2.300                                                                 
  local pseudopotential read in
  partial core-charges read in
  partial kinetic energy density read in
  atomic valenz-charges read in
  non local Contribution for L=            2  read in
    real space projection operators read in
  non local Contribution for L=            2  read in
    real space projection operators read in
  non local Contribution for L=            0  read in
    real space projection operators read in
  non local Contribution for L=            0  read in
    real space projection operators read in
  non local Contribution for L=            1  read in
    real space projection operators read in
  non local Contribution for L=            1  read in
    real space projection operators read in
    PAW grid and wavefunctions read in
 
   number of l-projection  operators is LMAX  =            6
   number of lm-projection operators is LMMAX =           18
 
 POTCAR:    PAW_PBE O 08Apr2002                   
   SHA256 =  818f92134a0a090dccd8ba1447fa70422a3b330e708bb4f08108d8ae51209ddf O/POTCAR              
   COPYR  = (c) Copyright 08Apr2002 Georg Kresse                                                    
   COPYR  = This file is part of the software VASP. Any use, copying, and all other rights are regul
   COPYR  = If you do not have a valid VASP license, you may not use, copy or distribute this file. 
   VRHFIN =O: s2p4                                                                                  
   LEXCH  = PE                                                                                      
   EATOM  =   432.3788 eV,   31.7789 Ry                                                             
                                                                                                    
   TITEL  = PAW_PBE O 08Apr2002                                                                     
   LULTRA =        F    use ultrasoft PP ?                                                          
   IUNSCR =        1    unscreen: 0-lin 1-nonlin 2-no                                               
   RPACOR =    1.200    partial core radius                                                         
   POMASS =   16.000; ZVAL   =    6.000    mass and valenz                                          
   RCORE  =    1.520    outmost cutoff radius                                                       
   RWIGS  =    1.550; RWIGS  =    0.820    wigner-seitz radius (au A)                               
   ENMAX  =  400.000; ENMIN  =  300.000 eV                                                          
   ICORE  =        2    local potential                                                             
   LCOR   =        T    correct aug charges                                                         
   LPAW   =        T    paw PP                                                                      
   EAUG   =  605.392                                                                                
   DEXC   =    0.000                                                                                
   RMAX   =    1.553    core radius for proj-oper                                                   
   RAUG   =    1.300    factor for augmentation sphere                                              
   RDEP   =    1.550    radius for radial grids                                                     
   RDEPT  =    1.329    core radius for aug-charge                                                  
                                                                                                    
   Atomic configuration                                                                             
    4 entries                                                                                       
     n  l   j            E        occ.                                                              
     1  0  0.50      -514.6923   2.0000                                                             
     2  0  0.50       -23.9615   2.0000                                                             
     2  1  0.50        -9.0305   4.0000                                                             
     3  2  1.50        -9.5241   0.0000                                                             
   Description                                                                                      
     l       E           TYP  RCUT    TYP  RCUT                                                     
     0    -23.9615318     23  1.200                                                                 
     0     -9.5240782     23  1.200                                                                 
     1     -9.0304911     23  1.520                                                                 
     1      8.1634956     23  1.520                                                                 
     2     -9.5240782      7  1.500                                                                 
  local pseudopotential read in
  partial core-charges read in
  partial kinetic energy density read in
  kinetic energy density of atom read in
  atomic valenz-charges read in
  non local Contribution for L=            0  read in
    real space projection operators read in
  non local Contribution for L=            0  read in
    real space projection operators read in
  non local Contribution for L=            1  read in
    real space projection operators read in
  non local Contribution for L=            1  read in
    real space projection operators read in
    PAW grid and wavefunctions read in
 
   number of l-projection  operators is LMAX  =            4
   number of lm-projection operators is LMMAX =            8
 
 POTCAR:    PAW_PBE N 08Apr2002                   
   SHA256 =  e053789ff3a61a86a1b75d8a110fcc91f86041011e7b0817c7c99e4e8a6349d7 N/POTCAR              
   COPYR  = (c) Copyright 08Apr2002 Georg Kresse                                                    
   COPYR  = This file is part of the software VASP. Any use, copying, and all other rights are regul
   COPYR  = If you do not have a valid VASP license, you may not use, copy or distribute this file. 
   VRHFIN =N: s2p3                                                                                  
   LEXCH  = PE                                                                                      
   EATOM  =   264.5486 eV,   19.4438 Ry                                                             
                                                                                                    
   TITEL  = PAW_PBE N 08Apr2002                                                                     
   LULTRA =        F    use ultrasoft PP ?                                                          
   IUNSCR =        1    unscreen: 0-lin 1-nonlin 2-no                                               
   RPACOR =    1.200    partial core radius                                                         
   POMASS =   14.001; ZVAL   =    5.000    mass and valenz                                          
   RCORE  =    1.500    outmost cutoff radius                                                       
   RWIGS  =    1.400; RWIGS  =    0.741    wigner-seitz radius (au A)                               
   ENMAX  =  400.000; ENMIN  =  300.000 eV                                                          
   ICORE  =        2    local potential                                                             
   LCOR   =        T    correct aug charges                                                         
   LPAW   =        T    paw PP                                                                      
   EAUG   =  627.112                                                                                
   DEXC   =    0.000                                                                                
   RMAX   =    1.529    core radius for proj-oper                                                   
   RAUG   =    1.300    factor for augmentation sphere                                              
   RDEP   =    1.514    radius for radial grids                                                     
   RDEPT  =    1.338    core radius for aug-charge                                                  
                                                                                                    
   Atomic configuration                                                                             
    4 entries                                                                                       
     n  l   j            E        occ.                                                              
     1  0  0.50      -384.7179   2.0000                                                             
     2  0  0.50       -18.5828   2.0000                                                             
     2  1  0.50        -7.0898   3.0000                                                             
     3  2  1.50        -6.8029   0.0000                                                             
   Description                                                                                      
     l       E           TYP  RCUT    TYP  RCUT                                                     
     0    -18.5828119     23  1.200                                                                 
     0    -13.5018863     23  1.200                                                                 
     1     -7.0897853     23  1.500                                                                 
     1      9.5240782     23  1.500                                                                 
     2     -6.8029130      7  1.500                                                                 
  local pseudopotential read in
  partial core-charges read in
  partial kinetic energy density read in
  atomic valenz-charges read in
  non local Contribution for L=            0  read in
    real space projection operators read in
  non local Contribution for L=            0  read in
    real space projection operators read in
  non local Contribution for L=            1  read in
    real space projection operators read in
  non local Contribution for L=            1  read in
    real space projection operators read in
    PAW grid and wavefunctions read in
 
   number of l-projection  operators is LMAX  =            4
   number of lm-projection operators is LMMAX =            8
 
 Optimization of the real space projectors (new method)

 maximal supplied QI-value         = 16.25
 optimisation between [QCUT,QGAM] = [ 10.73, 21.61] = [ 32.22,130.83] Ry 
 Optimized for a Real-space Cutoff    1.42 Angstroem

   l    n(q)    QCUT    max X(q) W(low)/X(q) W(high)/X(q)  e(spline) 
   2      8    10.726     7.143    0.22E-03    0.16E-03    0.73E-07
   2      8    10.726     5.586    0.40E-03    0.26E-03    0.10E-06
   0      9    10.726    12.382    0.25E-04    0.21E-05    0.37E-07
   0      9    10.726     6.622    0.42E-04    0.48E-05    0.77E-07
   1      9    10.726     7.935    0.27E-03    0.13E-04    0.16E-06
   1      9    10.726     2.425    0.23E-03    0.15E-04    0.14E-06
 Optimization of the real space projectors (new method)

 maximal supplied QI-value         = 24.76
 optimisation between [QCUT,QGAM] = [ 10.64, 21.54] = [ 31.73,129.89] Ry 
 Optimized for a Real-space Cutoff    1.23 Angstroem

   l    n(q)    QCUT    max X(q) W(low)/X(q) W(high)/X(q)  e(spline) 
   0      8    10.645    20.381    0.38E-03    0.60E-03    0.15E-06
   0      8    10.645    15.268    0.40E-03    0.65E-03    0.17E-06
   1      7    10.645     5.964    0.30E-03    0.63E-03    0.18E-06
   1      7    10.645     5.382    0.24E-03    0.53E-03    0.16E-06
 Optimization of the real space projectors (new method)

 maximal supplied QI-value         = 25.13
 optimisation between [QCUT,QGAM] = [ 10.81, 21.61] = [ 32.71,130.83] Ry 
 Optimized for a Real-space Cutoff    1.23 Angstroem

   l    n(q)    QCUT    max X(q) W(low)/X(q) W(high)/X(q)  e(spline) 
   0      8    10.807    79.467    0.34E-03    0.68E-03    0.21E-06
   0      8    10.807    66.151    0.34E-03    0.67E-03    0.21E-06
   1      7    10.807    14.030    0.45E-03    0.13E-02    0.11E-05
   1      7    10.807     9.831    0.48E-03    0.13E-02    0.11E-05
  PAW_PBE Ga_d 06Jul2010                :
 energy of atom  1       EATOM=-2148.8298
 kinetic energy error for atom=    0.0038 (will be added to EATOM!!)
  PAW_PBE O 08Apr2002                   :
 energy of atom  2       EATOM= -432.3788
 kinetic energy error for atom=    0.0389 (will be added to EATOM!!)
  PAW_PBE N 08Apr2002                   :
 energy of atom  3       EATOM= -264.5486
 kinetic energy error for atom=    0.0253 (will be added to EATOM!!)
 
 
 POSCAR: Ga48 O72
  positions in direct lattice
  velocities in cartesian coordinates
 exchange correlation table for  LEXCH =        8
   RHO(1)=    0.500       N(1)  =     2000
   RHO(2)=  100.500       N(2)  =     4000
 


--------------------------------------------------------------------------------------------------------


 ion  position               nearest neighbor table
   1  0.660  0.000  0.157-  85 1.94  83 1.95  79 1.95  67 2.01  61 2.08  65 2.08
   2  0.657  0.000  0.656-  86 1.94  84 1.95  80 1.95  68 2.03  62 2.08  66 2.08
   3  0.660  0.333  0.157-  87 1.94  79 1.95  81 1.95  69 2.01  61 2.07  63 2.08
   4  0.657  0.333  0.656-  88 1.94  80 1.95  82 1.96  70 2.03  62 2.07  64 2.08
   5  0.660  0.667  0.157-  89 1.94  83 1.95  81 1.95  71 2.01  65 2.07  63 2.08
   6  0.657  0.667  0.656-  90 1.94  84 1.95  82 1.96  72 2.03  66 2.07  64 2.08
   7  0.842  0.166  0.344-  91 1.93  73 1.95  75 1.96  61 2.03  67 2.08  69 2.08
   8  0.840  0.166  0.843-  92 1.94  74 1.96  76 1.96  62 2.02  68 2.07  70 2.08
   9  0.842  0.500  0.343-  93 1.94  77 1.95  75 1.95  63 2.02  71 2.08  69 2.08
  10  0.840  0.500  0.842-  94 1.94  78 1.96  76 1.96  64 2.03  72 2.07  70 2.07
  11  0.842  0.834  0.344-  95 1.93  73 1.95  77 1.96  65 2.03  67 2.08  71 2.08
  12  0.840  0.834  0.843-  96 1.94  74 1.96  78 1.96  66 2.02  68 2.07  72 2.08
  13  0.591  0.166  0.397-  80 1.84  57 1.84  55 1.85  61 1.88
  14  0.590  0.167  0.898-  58 1.84  56 1.84  79 1.84  62 1.87
  15  0.592  0.500  0.397-  82 1.84  57 1.84  59 1.84  63 1.87
  16  0.592  0.500  0.899-  58 1.84  60 1.84  81 1.84  64 1.87
  17  0.591  0.834  0.397-  84 1.84  59 1.84  55 1.85  65 1.88
  18  0.590  0.833  0.898-  60 1.84  56 1.84  83 1.84  66 1.87
  19  0.909  0.000  0.103-  49 1.84  53 1.84  74 1.85  67 1.87
  20  0.910  0.000  0.603-  50 1.84  54 1.84  73 1.85  68 1.88
  21  0.908  0.333  0.102-  76 1.84  49 1.84  51 1.85  69 1.87
  22  0.908  0.333  0.603-  50 1.84  75 1.84  52 1.84  70 1.88
  23  0.908  0.667  0.102-  78 1.84  53 1.84  51 1.85  71 1.87
  24  0.908  0.667  0.603-  54 1.84  77 1.84  52 1.84  72 1.88
  25  0.159  0.166  0.157-  49 1.95 115 1.95 116 1.96 103 2.03  97 2.06  99 2.08
  26  0.161  0.162  0.651- 120 1.90 117 1.97  50 1.98 104 2.07  98 2.13 100 2.15
  27  0.158  0.500  0.156-  51 1.95 116 1.95 118 1.95 105 2.03 101 2.07  99 2.07
  28  0.158  0.500  0.657- 117 1.94 119 1.94  52 1.95 106 2.04 102 2.07 100 2.07
  29  0.159  0.834  0.157-  53 1.95 115 1.95 118 1.96 107 2.03  97 2.06 101 2.08
  30  0.161  0.838  0.651- 120 1.90 119 1.97  54 1.98 108 2.07  98 2.13 102 2.15
  31  0.339  0.000  0.344- 109 1.94 113 1.94  55 1.96  97 2.02 103 2.09 107 2.09
  32  0.339  0.000  0.845-  56 1.96 110 1.96 114 1.96  98 1.98 104 2.08 108 2.08
  33  0.342  0.334  0.342- 109 1.93 111 1.95  57 1.95  99 2.03 105 2.07 103 2.07
  34  0.341  0.333  0.843-  58 1.96 112 1.96 110 1.96 104 2.01 100 2.02 106 2.07
  35  0.342  0.666  0.342- 113 1.93 111 1.95  59 1.95 101 2.03 105 2.07 107 2.07
  36  0.341  0.667  0.843-  60 1.96 112 1.96 114 1.96 108 2.01 102 2.02 106 2.07
  37  0.096  0.000  0.405- 120 1.83  91 1.88  95 1.88  97 1.91
  38  0.090  0.000  0.898- 115 1.84  98 1.85  92 1.85  96 1.85
  39  0.091  0.332  0.398- 117 1.84  91 1.85  93 1.85  99 1.88
  40  0.091  0.333  0.896- 116 1.85  92 1.85  94 1.85 100 1.87
  41  0.091  0.668  0.398- 119 1.84  95 1.85  93 1.85 101 1.88
  42  0.091  0.667  0.896- 118 1.85  96 1.85  94 1.85 102 1.87
  43  0.410  0.167  0.103- 110 1.83  85 1.85  87 1.85 103 1.87
  44  0.404  0.165  0.602- 109 1.84  86 1.85 104 1.86  88 1.87
  45  0.410  0.500  0.102- 112 1.84  89 1.85  87 1.85 105 1.87
  46  0.409  0.500  0.603- 111 1.84  90 1.85  88 1.85 106 1.87
  47  0.410  0.833  0.103- 114 1.83  85 1.85  89 1.85 107 1.87
  48  0.404  0.835  0.602- 113 1.84  86 1.85 108 1.86  90 1.87
  49  0.996  0.167  0.126-  21 1.84  19 1.84  25 1.95
  50  0.996  0.168  0.629-  22 1.84  20 1.84  26 1.98
  51  0.996  0.500  0.127-  21 1.85  23 1.85  27 1.95
  52  0.995  0.500  0.627-  22 1.84  24 1.84  28 1.95
  53  0.996  0.833  0.126-  23 1.84  19 1.84  29 1.95
  54  0.996  0.832  0.629-  24 1.84  20 1.84  30 1.98
  55  0.503  0.000  0.372-  13 1.85  17 1.85  31 1.96
  56  0.503  0.000  0.874-  14 1.84  18 1.84  32 1.96
  57  0.505  0.334  0.371-  15 1.84  13 1.84  33 1.95
  58  0.504  0.334  0.875-  16 1.84  14 1.84  34 1.96
  59  0.505  0.666  0.371-  15 1.84  17 1.84  35 1.95
  60  0.504  0.666  0.875-  16 1.84  18 1.84  36 1.96
  61  0.673  0.167  0.281-  13 1.88   7 2.03   3 2.07   1 2.08
  62  0.671  0.166  0.780-  14 1.87   8 2.02   4 2.07   2 2.08
  63  0.673  0.500  0.281-  15 1.87   9 2.02   3 2.08   5 2.08
  64  0.671  0.500  0.780-  16 1.87  10 2.03   4 2.08   6 2.08
  65  0.673  0.833  0.281-  17 1.88  11 2.03   5 2.07   1 2.08
  66  0.671  0.834  0.780-  18 1.87  12 2.02   6 2.07   2 2.08
  67  0.827  0.000  0.219-  19 1.87   1 2.01  11 2.08   7 2.08
  68  0.826  0.000  0.719-  20 1.88   2 2.03  12 2.07   8 2.07
  69  0.827  0.333  0.219-  21 1.87   3 2.01   9 2.08   7 2.08
  70  0.826  0.333  0.719-  22 1.88   4 2.03  10 2.07   8 2.08
  71  0.827  0.667  0.219-  23 1.87   5 2.01   9 2.08  11 2.08
  72  0.826  0.667  0.719-  24 1.88   6 2.03  10 2.07  12 2.08
  73  0.832  0.000  0.446-  20 1.85  11 1.95   7 1.95
  74  0.831  0.000  0.946-  19 1.85  12 1.96   8 1.96
  75  0.832  0.333  0.446-  22 1.84   9 1.95   7 1.96
  76  0.831  0.334  0.945-  21 1.84  10 1.96   8 1.96
  77  0.832  0.667  0.446-  24 1.84   9 1.95  11 1.96
  78  0.831  0.666  0.945-  23 1.84  10 1.96  12 1.96
  79  0.668  0.167  0.054-  14 1.84   3 1.95   1 1.95
  80  0.667  0.167  0.554-  13 1.84   2 1.95   4 1.95
  81  0.669  0.500  0.055-  16 1.84   5 1.95   3 1.95
  82  0.667  0.500  0.555-  15 1.84   6 1.96   4 1.96
  83  0.668  0.833  0.054-  18 1.84   5 1.95   1 1.95
  84  0.667  0.833  0.554-  17 1.84   2 1.95   6 1.95
  85  0.497  0.000  0.128-  43 1.85  47 1.85   1 1.94
  86  0.495  0.000  0.627-  44 1.85  48 1.85   2 1.94
  87  0.497  0.334  0.128-  45 1.85  43 1.85   3 1.94
  88  0.495  0.332  0.627-  46 1.85  44 1.87   4 1.94
  89  0.497  0.666  0.128-  45 1.85  47 1.85   5 1.94
  90  0.495  0.668  0.627-  46 1.85  48 1.87   6 1.94
  91  0.003  0.166  0.370-  39 1.85  37 1.88   7 1.93
  92  0.002  0.167  0.873-  40 1.85  38 1.85   8 1.94
  93  0.003  0.500  0.372-  39 1.85  41 1.85   9 1.94
  94  0.003  0.500  0.873-  40 1.85  42 1.85  10 1.94
  95  0.003  0.834  0.370-  41 1.85  37 1.88  11 1.93
  96  0.002  0.833  0.873-  42 1.85  38 1.85  12 1.94
  97  0.172  0.000  0.279-  37 1.91  31 2.02  25 2.06  29 2.06
  98  0.174  0.000  0.786-  38 1.85  32 1.98  26 2.13  30 2.13
  99  0.172  0.334  0.280-  39 1.88  33 2.03  27 2.07  25 2.08
 100  0.172  0.333  0.780-  40 1.87  34 2.02  28 2.07  26 2.15
 101  0.172  0.666  0.280-  41 1.88  35 2.03  27 2.07  29 2.08
 102  0.172  0.667  0.780-  42 1.87  36 2.02  28 2.07  30 2.15
 103  0.327  0.167  0.219-  43 1.87  25 2.03  33 2.07  31 2.09
 104  0.331  0.171  0.725-  44 1.86  34 2.01  26 2.07  32 2.08
 105  0.327  0.500  0.218-  45 1.87  27 2.03  35 2.07  33 2.07
 106  0.328  0.500  0.720-  46 1.87  28 2.04  36 2.07  34 2.07
 107  0.327  0.833  0.219-  47 1.87  29 2.03  35 2.07  31 2.09
 108  0.331  0.829  0.725-  48 1.86  36 2.01  30 2.07  32 2.08
 109  0.335  0.169  0.444-  44 1.84  33 1.93  31 1.94
 110  0.333  0.168  0.948-  43 1.83  34 1.96  32 1.96
 111  0.334  0.500  0.445-  46 1.84  35 1.95  33 1.95
 112  0.332  0.500  0.946-  45 1.84  36 1.96  34 1.96
 113  0.335  0.831  0.444-  48 1.84  35 1.93  31 1.94
 114  0.333  0.832  0.948-  47 1.83  36 1.96  32 1.96
 115  0.167  0.000  0.055-  38 1.84  29 1.95  25 1.95
 116  0.166  0.333  0.054-  40 1.85  27 1.95  25 1.96
 117  0.168  0.336  0.554-  39 1.84  28 1.94  26 1.97
 118  0.166  0.667  0.054-  42 1.85  27 1.95  29 1.96
 119  0.168  0.664  0.554-  41 1.84  28 1.94  30 1.97
 120  0.183  0.000  0.556-  37 1.83  30 1.90  26 1.90
 
  LATTYP: Found a simple monoclinic cell.
 ALAT       =    11.6348202465
 B/A-ratio  =     0.7858051831
 C/A-ratio  =     1.0554931797
 COS(beta)  =    -0.2379290539
  
  Lattice vectors:
  
 A1 = (   0.0000000000,  -2.7682617730, -11.3006977184)
 A2 = (  -9.1427020537,   0.0000000000,   0.0000000000)
 A3 = (   0.0000000000,  12.2804734172,   0.0000000000)


Analysis of symmetry for initial positions (statically):
=====================================================================
 Subroutine PRICEL returns:
 Original cell was already a primitive cell.
 

 Routine SETGRP: Setting up the symmetry group for a 
 simple monoclinic supercell.


 Subroutine GETGRP returns: Found  2 space group operations
 (whereof  2 operations were pure point group operations)
 out of a pool of  4 trial point group operations.


The static configuration has the point symmetry C_1h.


Analysis of symmetry for dynamics (positions and initial velocities):
=====================================================================
 Subroutine PRICEL returns:
 Original cell was already a primitive cell.
 

 Routine SETGRP: Setting up the symmetry group for a 
 simple monoclinic supercell.


 Subroutine GETGRP returns: Found  2 space group operations
 (whereof  2 operations were pure point group operations)
 out of a pool of  4 trial point group operations.


The dynamic configuration has the point symmetry C_1h.


 Subroutine INISYM returns: Found  2 space group operations
 (whereof  2 operations are pure point group operations),
 and found     1 'primitive' translations


----------------------------------------------------------------------------------------

                                     Primitive cell                                     

  volume of cell :    1268.8052

  direct lattice vectors                    reciprocal lattice vectors
     0.000000000 12.280473417  0.000000000     0.000000000  0.081430085 -0.019947423
     9.142702054  0.000000000  0.000000000     0.109376855 -0.000000000  0.000000000
     0.000000000 -2.768261773-11.300697718     0.000000000  0.000000000 -0.088490111

  length of vectors
    12.280473417  9.142702054 11.634820246     0.083837691  0.109376855  0.088490111

  position of ions in fractional coordinates (direct lattice)
     0.659628553  0.000000000  0.156914231
     0.657346550  0.000000000  0.656180937
     0.659735540  0.333106255  0.157055855
     0.656935296  0.332906160  0.656470446
     0.659735540  0.666893745  0.157055855
     0.656935296  0.667093840  0.656470446
     0.842414126  0.166262701  0.343800798
     0.840037120  0.166451410  0.842896205
     0.841692908  0.500000000  0.343409807
     0.840359655  0.500000000  0.842482290
     0.842414126  0.833737299  0.343800798
     0.840037120  0.833548590  0.842896205
     0.590698194  0.166418699  0.397349399
     0.589957041  0.166741012  0.897668394
     0.592000532  0.500000000  0.397496471
     0.591871443  0.500000000  0.898584154
     0.590698194  0.833581301  0.397349399
     0.589957041  0.833258988  0.897668394
     0.909106627  0.000000000  0.102569471
     0.910067532  0.000000000  0.602894188
     0.908402814  0.333315194  0.101674507
     0.908292477  0.333035313  0.602579664
     0.908402814  0.666684806  0.101674507
     0.908292477  0.666964687  0.602579664
     0.158671698  0.166229430  0.157186931
     0.160637005  0.161772137  0.651092602
     0.158366378  0.500000000  0.155919510
     0.158481137  0.500000000  0.657208943
     0.158671698  0.833770570  0.157186931
     0.160637005  0.838227863  0.651092602
     0.339478017  0.000000000  0.343664641
     0.339428861  0.000000000  0.844884700
     0.341601736  0.334093529  0.342438200
     0.340510612  0.333208072  0.843183166
     0.341601736  0.665906471  0.342438200
     0.340510612  0.666791928  0.843183166
     0.096144760  0.000000000  0.404968294
     0.090377681  0.000000000  0.898062210
     0.090818354  0.332490844  0.397643822
     0.090826011  0.332805066  0.896212493
     0.090818354  0.667509156  0.397643822
     0.090826011  0.667194934  0.896212493
     0.409788370  0.166808761  0.103349539
     0.404493970  0.164788991  0.602280632
     0.409522007  0.500000000  0.101877993
     0.408653590  0.500000000  0.602545558
     0.409788370  0.833191239  0.103349539
     0.404493970  0.835211009  0.602280632
     0.995673239  0.167006964  0.125975808
     0.995664975  0.167578179  0.628719786
     0.995563148  0.500000000  0.126527678
     0.995074980  0.500000000  0.627111562
     0.995673239  0.832993036  0.125975808
     0.995664975  0.832421821  0.628719786
     0.503275196  0.000000000  0.371634115
     0.503164427  0.000000000  0.874368239
     0.504562740  0.333894936  0.371237593
     0.504272942  0.334344061  0.874740217
     0.504562740  0.666105064  0.371237593
     0.504272942  0.665655939  0.874740217
     0.673166546  0.166577849  0.280807742
     0.671431114  0.166416034  0.780348031
     0.673481842  0.500000000  0.280544865
     0.671449986  0.500000000  0.780002868
     0.673166546  0.833422151  0.280807742
     0.671431114  0.833583966  0.780348031
     0.827129619  0.000000000  0.219141096
     0.826277519  0.000000000  0.719103800
     0.827497724  0.333270894  0.219260750
     0.825870927  0.333470394  0.719265033
     0.827497724  0.666729106  0.219260750
     0.825870927  0.666529606  0.719265033
     0.832186233  0.000000000  0.446130009
     0.831299674  0.000000000  0.945866373
     0.831855855  0.333413554  0.445622439
     0.830795514  0.333607504  0.945269586
     0.831855855  0.666586446  0.445622439
     0.830795514  0.666392496  0.945269586
     0.667902523  0.166656684  0.054191525
     0.667241186  0.166626131  0.554016695
     0.669078074  0.500000000  0.054967122
     0.666869411  0.500000000  0.554512015
     0.667902523  0.833343316  0.054191525
     0.667241186  0.833373869  0.554016695
     0.497264797  0.000000000  0.128270446
     0.494942020  0.000000000  0.626808626
     0.497318892  0.333712733  0.127945087
     0.494752145  0.331867021  0.626620035
     0.497318892  0.666287267  0.127945087
     0.494752145  0.668132979  0.626620035
     0.003455590  0.166088919  0.369848273
     0.002274949  0.166746311  0.873276098
     0.003479334  0.500000000  0.371669210
     0.003004382  0.500000000  0.872537530
     0.003455590  0.833911081  0.369848273
     0.002274949  0.833253689  0.873276098
     0.171957607  0.000000000  0.279139814
     0.174246842  0.000000000  0.785766155
     0.172485802  0.334012335  0.280016868
     0.172032010  0.333192811  0.779548957
     0.172485802  0.665987665  0.280016868
     0.172032010  0.666807189  0.779548957
     0.327473923  0.167319638  0.219071474
     0.331276905  0.170517647  0.725170999
     0.327433829  0.500000000  0.218406082
     0.327962898  0.500000000  0.720152148
     0.327473923  0.832680362  0.219071474
     0.331276905  0.829482353  0.725170999
     0.335260211  0.169020430  0.443788745
     0.332813561  0.167702938  0.947887926
     0.333765630  0.500000000  0.445090964
     0.331860812  0.500000000  0.945994293
     0.335260211  0.830979570  0.443788745
     0.332813561  0.832297062  0.947887926
     0.166856678  0.000000000  0.054547736
     0.166352328  0.333181683  0.053650313
     0.168278918  0.336279624  0.553679609
     0.166352328  0.666818317  0.053650313
     0.168278918  0.663720376  0.553679609
     0.182787068  0.000000000  0.556359371

  ion indices of the primitive-cell ions
   primitive index   ion index
                 1           1
                 2           2
                 3           3
                 4           4
                 5           5
                 6           6
                 7           7
                 8           8
                 9           9
                10          10
                11          11
                12          12
                13          13
                14          14
                15          15
                16          16
                17          17
                18          18
                19          19
                20          20
                21          21
                22          22
                23          23
                24          24
                25          25
                26          26
                27          27
                28          28
                29          29
                30          30
                31          31
                32          32
                33          33
                34          34
                35          35
                36          36
                37          37
                38          38
                39          39
                40          40
                41          41
                42          42
                43          43
                44          44
                45          45
                46          46
                47          47
                48          48
                49          49
                50          50
                51          51
                52          52
                53          53
                54          54
                55          55
                56          56
                57          57
                58          58
                59          59
                60          60
                61          61
                62          62
                63          63
                64          64
                65          65
                66          66
                67          67
                68          68
                69          69
                70          70
                71          71
                72          72
                73          73
                74          74
                75          75
                76          76
                77          77
                78          78
                79          79
                80          80
                81          81
                82          82
                83          83
                84          84
                85          85
                86          86
                87          87
                88          88
                89          89
                90          90
                91          91
                92          92
                93          93
                94          94
                95          95
                96          96
                97          97
                98          98
                99          99
               100         100
               101         101
               102         102
               103         103
               104         104
               105         105
               106         106
               107         107
               108         108
               109         109
               110         110
               111         111
               112         112
               113         113
               114         114
               115         115
               116         116
               117         117
               118         118
               119         119
               120         120

----------------------------------------------------------------------------------------

 
 
 KPOINTS: Automatic mesh                          

Automatic generation of k-mesh.
 Grid dimensions read from file:
 generate k-points for:    2    2    2

 Generating k-lattice:

  Cartesian coordinates                     Fractional coordinates (reciprocal lattice)
     0.000000000  0.040715043 -0.009973711     0.500000000  0.000000000  0.000000000
     0.054688428 -0.000000000  0.000000000     0.000000000  0.500000000  0.000000000
     0.000000000  0.000000000 -0.044245056     0.000000000  0.000000000  0.500000000

  Length of vectors
     0.041918846  0.054688428  0.044245056

  Shift w.r.t. Gamma in fractional coordinates (k-lattice)
     0.000000000  0.000000000  0.000000000

 
 Subroutine IBZKPT returns following result:
 ===========================================
 
 Found      8 irreducible k-points:
 
 Following reciprocal coordinates:
            Coordinates               Weight
  0.000000  0.000000  0.000000      1.000000
  0.500000  0.000000  0.000000      1.000000
  0.000000  0.500000  0.000000      1.000000
  0.500000  0.500000  0.000000      1.000000
  0.000000  0.000000  0.500000      1.000000
  0.500000  0.000000  0.500000      1.000000
  0.000000  0.500000  0.500000      1.000000
  0.500000  0.500000  0.500000      1.000000
 
 Following cartesian coordinates:
            Coordinates               Weight
  0.000000  0.000000 -0.000000      1.000000
  0.000000  0.040715 -0.009974      1.000000
  0.054688  0.000000 -0.000000      1.000000
  0.054688  0.040715 -0.009974      1.000000
  0.000000  0.000000 -0.044245      1.000000
  0.000000  0.040715 -0.054219      1.000000
  0.054688  0.000000 -0.044245      1.000000
  0.054688  0.040715 -0.054219      1.000000
 
 
 Subroutine IBZKPT_HF returns following result:
 ==============================================
 
 Found      8 k-points in 1st BZ
 the following      8 k-points will be used (e.g. in the exchange kernel)
 Following reciprocal coordinates:   # in IRBZ
  0.000000  0.000000  0.000000    0.12500000   1 t-inv F
  0.500000  0.000000  0.000000    0.12500000   2 t-inv F
  0.000000  0.500000  0.000000    0.12500000   3 t-inv F
  0.500000  0.500000  0.000000    0.12500000   4 t-inv F
  0.000000  0.000000  0.500000    0.12500000   5 t-inv F
  0.500000  0.000000  0.500000    0.12500000   6 t-inv F
  0.000000  0.500000  0.500000    0.12500000   7 t-inv F
  0.500000  0.500000  0.500000    0.12500000   8 t-inv F


--------------------------------------------------------------------------------------------------------




 Dimension of arrays:
   k-points           NKPTS =      8   k-points in BZ     NKDIM =      8   number of bands    NBANDS=    633
   number of dos      NEDOS =    301   number of ions     NIONS =    120
   non local maximal  LDIM  =      6   non local SUM 2l+1 LMDIM =     18
   total plane-waves  NPLWV = 184320
   max r-space proj   IRMAX =   1800   max aug-charges    IRDMAX=   5704
   dimension x,y,z NGX =    64 NGY =   48 NGZ =   60
   dimension x,y,z NGXF=   128 NGYF=   96 NGZF=  120
   support grid    NGXF=   128 NGYF=   96 NGZF=  120
   ions per type =              48  71   1
   NGX,Y,Z   is equivalent  to a cutoff of   8.66,  8.73,  8.57 a.u.
   NGXF,Y,Z  is equivalent  to a cutoff of  17.33, 17.46, 17.15 a.u.

 SYSTEM =  unknown system                          
 POSCAR =  Ga48 O72                                

 Startparameter for this run:
   NWRITE =      2    write-flag & timer
   PREC   = normal    normal or accurate (medium, high low for compatibility)
   ISTART =      0    job   : 0-new  1-cont  2-samecut
   ICHARG =      0    charge: 1-file 2-atom 10-const
   ISPIN  =      1    spin polarized calculation?
   LNONCOLLINEAR =      F non collinear calculations
   LSORBIT =      F    spin-orbit coupling
   INIWAV =      1    electr: 0-lowe 1-rand  2-diag
   LASPH  =      F    aspherical Exc in radial PAW
 Electronic Relaxation 1
   ENCUT  =  450.0 eV  33.07 Ry    5.75 a.u.  21.24 15.81 20.12*2*pi/ulx,y,z
   ENINI  =  450.0     initial cutoff
   ENAUG  =  627.1 eV  augmentation charge cutoff
   NELM   =    500;   NELMIN=  2; NELMDL= -5     # of ELM steps 
   EDIFF  = 0.1E-04   stopping-criterion for ELM
   LREAL  =      T    real-space projection
   NLSPLINE    = F    spline interpolate recip. space projectors
   LCOMPAT=      F    compatible to vasp.4.4
   GGA_COMPAT  = T    GGA compatible to vasp.4.4-vasp.4.6
   LMAXPAW     = -100 max onsite density
   LMAXMIX     =    2 max onsite mixed and CHGCAR
   VOSKOWN=      0    Vosko Wilk Nusair interpolation
   ROPT   =   -0.00050  -0.00050  -0.00050
 Ionic relaxation
   EDIFFG = -.5E-02   stopping-criterion for IOM
   NSW    =      0    number of steps for IOM
   NBLOCK =      1;   KBLOCK =      1    inner block; outer block 
   IBRION =     -1    ionic relax: 0-MD 1-quasi-New 2-CG
   NFREE  =      0    steps in history (QN), initial steepest desc. (CG)
   ISIF   =      2    stress and relaxation
   IWAVPR =     10    prediction:  0-non 1-charg 2-wave 3-comb
   ISYM   =      3    0-nonsym 1-usesym 2-fastsym
   LCORR  =      T    Harris-Foulkes like correction to forces

   POTIM  = 0.5000    time-step for ionic-motion
   TEIN   =    0.0    initial temperature
   TEBEG  =    0.0;   TEEND  =   0.0 temperature during run
   SMASS  =  -3.00    Nose mass-parameter (am)
   estimated Nose-frequenzy (Omega)   =  0.10E-29 period in steps = 0.13E+47 mass=  -0.345E-26a.u.
   SCALEE = 1.0000    scale energy and forces
   NPACO  =    256;   APACO  = 10.0  distance and # of slots for P.C.
   PSTRESS=    0.0 pullay stress

  Mass of Ions in am
   POMASS =  69.72 16.00 14.00
  Ionic Valenz
   ZVAL   =  13.00  6.00  5.00
  Atomic Wigner-Seitz radii
   RWIGS  =  -1.00 -1.00 -1.00
  virtual crystal weights 
   VCA    =   1.00  1.00  1.00
   NELECT =    1056.0000    total number of electrons
   NUPDOWN=      -1.0000    fix difference up-down

 DOS related values:
   EMIN   =  10.00;   EMAX   =-10.00  energy-range for DOS
   EFERMI =   0.00;   METHOD = LEGACY      
   ISMEAR =     0;   SIGMA  =   0.05  broadening in eV -4-tet -1-fermi 0-gaus

 Electronic relaxation 2 (details)
   IALGO  =     58    algorithm
   LDIAG  =      T    sub-space diagonalisation (order eigenvalues)
   LSUBROT=      F    optimize rotation matrix (better conditioning)
   TURBO    =      0    0=normal 1=particle mesh
   IRESTART =      0    0=no restart 2=restart with 2 vectors
   NREBOOT  =      0    no. of reboots
   NMIN     =      0    reboot dimension
   EREF     =   0.00    reference energy to select bands
   IMIX   =      4    mixing-type and parameters
     AMIX     =   0.40;   BMIX     =  1.00
     AMIX_MAG =   1.60;   BMIX_MAG =  1.00
     AMIN     =   0.10
     WC   =   100.;   INIMIX=   1;  MIXPRE=   1;  MAXMIX= -45

 Intra band minimization:
   WEIMIN = 0.0000     energy-eigenvalue tresh-hold
   EBREAK =  0.39E-08  absolut break condition
   DEPER  =   0.30     relativ break condition  

   TIME   =   0.40     timestep for ELM

  volume/ion in A,a.u.               =      10.57        71.35
  Fermi-wavevector in a.u.,A,eV,Ry     =   1.539919  2.910025 32.264175  2.371350
  Thomas-Fermi vector in A             =   2.646079
 
 Write flags
   LWAVE        =      T    write WAVECAR
   LDOWNSAMPLE  =      F    k-point downsampling of WAVECAR
   LCHARG       =      T    write CHGCAR
   LVTOT        =      F    write LOCPOT, total local potential
   LVHAR        =      F    write LOCPOT, Hartree potential only
   LELF         =      F    write electronic localiz. function (ELF)
   LORBIT       =      0    0 simple, 1 ext, 2 COOP (PROOUT), +10 PAW based schemes


 Dipole corrections
   LMONO  =      F    monopole corrections only (constant potential shift)
   LDIPOL =      F    correct potential (dipole corrections)
   IDIPOL =      0    1-x, 2-y, 3-z, 4-all directions 
   EPSILON=  1.0000000 bulk dielectric constant

 Exchange correlation treatment:
   GGA     =    --    GGA type
   LEXCH   =     8    internal setting for exchange type
   LIBXC   =     F    Libxc                    
   VOSKOWN =     0    Vosko Wilk Nusair interpolation
   EXXOEP  =     0    0=HF, 1=EXX-LHF (local Hartree Fock) 2=EXX OEP
   LHFCALC =     T    Hartree Fock is set to
   LSYMGRAD=     F    symmetrize gradient (conserves proper symmetry)
   PRECFOCK=fast      Normal, Fast or Accurate (Low or Medium for compatibility)
   LRHFCALC=     F    long range Hartree Fock
   LRSCOR  =     F    long range correlation only (use DFT for short range part)
   LTHOMAS =     F    Thomas Fermi screening in HF
   LMODELHF=     F    short range full HF, long range fraction AEXX
   FOCKCORR=     1    mode to apply convergence corrections
   LFOCKACE=     T    use Adeptively-Compressed-Exchange operator
   ENCUT4O =  -1.0   cutoff for four orbital integrals eV
   LMAXFOCK=     4    L truncation for augmentation on plane wave grid
   LMAXFOCKAE=  -1    L truncation for all-electron charge restoration on plane wave grid
   NMAXFOCKAE=   1    number of basis functions for all-electron charge restoration
   LFOCKAEDFT=     F  apply the AE augmentation even for DFT
   NKREDX  =     1    reduce k-point grid by
   NKREDY  =     1    reduce k-point grid by
   NKREDZ  =     1    reduce k-point grid by
   SHIFTRED=     F    shift reduced grid of Gamma
   HFKIDENT=     F    idential grid for each k-point
   ODDONLY =     F    use only odd q-grid points
   EVENONLY=     F    use only even q-grid points
   HFALPHA =   -1.0000 decay constant for conv. correction
   MCALPHA =    0.0000 extent of test-charge in conv. correction in multipole expansion
   AEXX    =    0.3200 exact exchange contribution
   HFSCREEN=    0.2000 screening length (either q_TF or 0.3 A-1)
   HFSCREENC=   0.2000 screening length for correlation (either q_TF or 0.3 A-1)
   HFRCUT  =    0.0000 spherical cutoff for potential kernel
   ALDAX   =    0.6800 LDA exchange part
   AGGAX   =    0.6800 GGA exchange part
   ALDAC   =    1.0000 LDA correlation
   AGGAC   =    1.0000 GGA correlation
   ENCUTFOCK=  -1.0 apply spherical cutoff to Coloumb kernel
   NBANDSGWLOW=     1    first orbital included in HF term
   NBLOCK_FOCK=    64    blocking factor in FOCK_ACC

 Linear response parameters
   LEPSILON=     F    determine dielectric tensor
   LRPA    =     F    only Hartree local field effects (RPA)
   LNABLA  =     F    use nabla operator in PAW spheres
   LVEL    =     F    velocity operator in full k-point grid
   CSHIFT  =0.1000    complex shift for real part using Kramers Kronig
   OMEGAMAX=  -1.0    maximum frequency
   DEG_THRESHOLD= 0.2000000E-02 threshold for treating states as degnerate
   RTIME   =   -0.100 relaxation time in fs
  (WPLASMAI=    0.000 imaginary part of plasma frequency in eV, 0.658/RTIME)
   DFIELD  = 0.0000000 0.0000000 0.0000000 field for delta impulse in time
 
  Optional k-point grid parameters
   LKPOINTS_OPT  =     F    use optional k-point grid
   KPOINTS_OPT_MODE=     1    mode for optional k-point grid
 
 Orbital magnetization related:
   ORBITALMAG=     F  switch on orbital magnetization
   LCHIMAG   =     F  perturbation theory with respect to B field
   DQ        =  0.001000  dq finite difference perturbation B field
   LLRAUG    =     F  two centre corrections for induced B field
   LBONE     =     F  B-component reconstruction in AE one-centre
   LVGVCALC  =     T  calculate vGv susceptibility
   LVGVAPPL  =     F  apply vGv susceptibility instead of pGv for G=0

 Random number generation:
   RANDOM_GENERATOR = DEFAULT
   PCG_SEED         = not used


--------------------------------------------------------------------------------------------------------


 Static calculation
 charge density and potential will be updated during run
 non-spin polarized calculation
 Conjugate gradient for all bands (Freysoldt, et al. PRB 79, 241103 (2009))
 preconditioned conjugated gradient                                        
 perform sub-space diagonalisation
    before iterative eigenvector-optimisation
 modified Broyden-mixing scheme, WC =      100.0
 initial mixing is a Kerker type mixing with AMIX =  0.4000 and BMIX =      1.0000
 Hartree-type preconditioning will be used
 using additional bands           105
 real space projection scheme for non local part
 use partial core corrections
 no Harris-corrections to forces 
 use gradient corrections 
 use of overlap-Matrix (Vanderbilt PP)
 Gauss-broadening in eV      SIGMA  =   0.05


--------------------------------------------------------------------------------------------------------


  energy-cutoff  :      450.00
  volume of cell :     1268.81
      direct lattice vectors                 reciprocal lattice vectors
     0.000000000 12.280473417  0.000000000     0.000000000  0.081430085 -0.019947423
     9.142702054  0.000000000  0.000000000     0.109376855 -0.000000000  0.000000000
     0.000000000 -2.768261773-11.300697718     0.000000000  0.000000000 -0.088490111

  length of vectors
    12.280473417  9.142702054 11.634820246     0.083837691  0.109376855  0.088490111


 
 k-points in units of 2pi/SCALE and weight: Automatic mesh                          
   0.00000000  0.00000000 -0.00000000       0.125
   0.00000000  0.04071504 -0.00997371       0.125
   0.05468843  0.00000000 -0.00000000       0.125
   0.05468843  0.04071504 -0.00997371       0.125
   0.00000000  0.00000000 -0.04424506       0.125
   0.00000000  0.04071504 -0.05421877       0.125
   0.05468843  0.00000000 -0.04424506       0.125
   0.05468843  0.04071504 -0.05421877       0.125
 
 k-points in reciprocal lattice and weights: Automatic mesh                          
   0.00000000  0.00000000  0.00000000       0.125
   0.50000000  0.00000000  0.00000000       0.125
   0.00000000  0.50000000  0.00000000       0.125
   0.50000000  0.50000000  0.00000000       0.125
   0.00000000  0.00000000  0.50000000       0.125
   0.50000000  0.00000000  0.50000000       0.125
   0.00000000  0.50000000  0.50000000       0.125
   0.50000000  0.50000000  0.50000000       0.125
 
 position of ions in fractional coordinates (direct lattice) 
   0.65962855  0.00000000  0.15691423
   0.65734655  0.00000000  0.65618094
   0.65973554  0.33310626  0.15705585
   0.65693530  0.33290616  0.65647045
   0.65973554  0.66689374  0.15705585
   0.65693530  0.66709384  0.65647045
   0.84241413  0.16626270  0.34380080
   0.84003712  0.16645141  0.84289620
   0.84169291  0.50000000  0.34340981
   0.84035966  0.50000000  0.84248229
   0.84241413  0.83373730  0.34380080
   0.84003712  0.83354859  0.84289620
   0.59069819  0.16641870  0.39734940
   0.58995704  0.16674101  0.89766839
   0.59200053  0.50000000  0.39749647
   0.59187144  0.50000000  0.89858415
   0.59069819  0.83358130  0.39734940
   0.58995704  0.83325899  0.89766839
   0.90910663  0.00000000  0.10256947
   0.91006753  0.00000000  0.60289419
   0.90840281  0.33331519  0.10167451
   0.90829248  0.33303531  0.60257966
   0.90840281  0.66668481  0.10167451
   0.90829248  0.66696469  0.60257966
   0.15867170  0.16622943  0.15718693
   0.16063701  0.16177214  0.65109260
   0.15836638  0.50000000  0.15591951
   0.15848114  0.50000000  0.65720894
   0.15867170  0.83377057  0.15718693
   0.16063701  0.83822786  0.65109260
   0.33947802  0.00000000  0.34366464
   0.33942886  0.00000000  0.84488470
   0.34160174  0.33409353  0.34243820
   0.34051061  0.33320807  0.84318317
   0.34160174  0.66590647  0.34243820
   0.34051061  0.66679193  0.84318317
   0.09614476  0.00000000  0.40496829
   0.09037768  0.00000000  0.89806221
   0.09081835  0.33249084  0.39764382
   0.09082601  0.33280507  0.89621249
   0.09081835  0.66750916  0.39764382
   0.09082601  0.66719493  0.89621249
   0.40978837  0.16680876  0.10334954
   0.40449397  0.16478899  0.60228063
   0.40952201  0.50000000  0.10187799
   0.40865359  0.50000000  0.60254556
   0.40978837  0.83319124  0.10334954
   0.40449397  0.83521101  0.60228063
   0.99567324  0.16700696  0.12597581
   0.99566497  0.16757818  0.62871979
   0.99556315  0.50000000  0.12652768
   0.99507498  0.50000000  0.62711156
   0.99567324  0.83299304  0.12597581
   0.99566497  0.83242182  0.62871979
   0.50327520  0.00000000  0.37163412
   0.50316443  0.00000000  0.87436824
   0.50456274  0.33389494  0.37123759
   0.50427294  0.33434406  0.87474022
   0.50456274  0.66610506  0.37123759
   0.50427294  0.66565594  0.87474022
   0.67316655  0.16657785  0.28080774
   0.67143111  0.16641603  0.78034803
   0.67348184  0.50000000  0.28054487
   0.67144999  0.50000000  0.78000287
   0.67316655  0.83342215  0.28080774
   0.67143111  0.83358397  0.78034803
   0.82712962  0.00000000  0.21914110
   0.82627752  0.00000000  0.71910380
   0.82749772  0.33327089  0.21926075
   0.82587093  0.33347039  0.71926503
   0.82749772  0.66672911  0.21926075
   0.82587093  0.66652961  0.71926503
   0.83218623  0.00000000  0.44613001
   0.83129967  0.00000000  0.94586637
   0.83185586  0.33341355  0.44562244
   0.83079551  0.33360750  0.94526959
   0.83185586  0.66658645  0.44562244
   0.83079551  0.66639250  0.94526959
   0.66790252  0.16665668  0.05419153
   0.66724119  0.16662613  0.55401670
   0.66907807  0.50000000  0.05496712
   0.66686941  0.50000000  0.55451201
   0.66790252  0.83334332  0.05419153
   0.66724119  0.83337387  0.55401670
   0.49726480  0.00000000  0.12827045
   0.49494202  0.00000000  0.62680863
   0.49731889  0.33371273  0.12794509
   0.49475215  0.33186702  0.62662003
   0.49731889  0.66628727  0.12794509
   0.49475215  0.66813298  0.62662003
   0.00345559  0.16608892  0.36984827
   0.00227495  0.16674631  0.87327610
   0.00347933  0.50000000  0.37166921
   0.00300438  0.50000000  0.87253753
   0.00345559  0.83391108  0.36984827
   0.00227495  0.83325369  0.87327610
   0.17195761  0.00000000  0.27913981
   0.17424684  0.00000000  0.78576615
   0.17248580  0.33401234  0.28001687
   0.17203201  0.33319281  0.77954896
   0.17248580  0.66598766  0.28001687
   0.17203201  0.66680719  0.77954896
   0.32747392  0.16731964  0.21907147
   0.33127690  0.17051765  0.72517100
   0.32743383  0.50000000  0.21840608
   0.32796290  0.50000000  0.72015215
   0.32747392  0.83268036  0.21907147
   0.33127690  0.82948235  0.72517100
   0.33526021  0.16902043  0.44378875
   0.33281356  0.16770294  0.94788793
   0.33376563  0.50000000  0.44509096
   0.33186081  0.50000000  0.94599429
   0.33526021  0.83097957  0.44378875
   0.33281356  0.83229706  0.94788793
   0.16685668  0.00000000  0.05454774
   0.16635233  0.33318168  0.05365031
   0.16827892  0.33627962  0.55367961
   0.16635233  0.66681832  0.05365031
   0.16827892  0.66372038  0.55367961
   0.18278707  0.00000000  0.55635937
 
 position of ions in cartesian coordinates  (Angst):
   0.00000000  7.66617124 -1.77324029
   0.00000000  6.25604623 -7.41530242
   3.04549124  7.66709305 -1.77484074
   3.04366183  6.25019440 -7.41857407
   6.09721081  7.66709305 -1.77484074
   6.09904022  6.25019440 -7.41857407
   1.52009034  9.39351368 -3.88518889
   1.52181565  7.98269618 -9.52531522
   4.57135103  9.38573914 -3.88077042
   4.57135103  7.98780289 -9.52063769
   7.62261171  9.39351368 -3.88518889
   7.62088640  7.98269618 -9.52531522
   1.52151658  6.15408631 -4.49032544
   1.52446339  4.75997066-10.14427918
   4.57135103  6.16967251 -4.49198746
   4.57135103  4.78094536-10.15462790
   7.62118547  6.15408631 -4.49032544
   7.61823866  4.75997066-10.14427918
   0.00000000 10.88032063 -1.15910659
   0.00000000  9.50709120 -6.81312497
   3.04740151 10.87415495 -1.14899287
   3.04484264  9.48616337 -6.80957064
   6.09530054 10.87415495 -1.14899287
   6.09785942  9.48616337 -6.80957064
   1.51978615  1.51342900 -1.77632200
   1.47903445  0.17030371 -7.35780069
   4.57135103  1.51318808 -1.76199925
   4.57135103  0.12689699 -7.42691961
   7.62291590  1.51342900 -1.77632200
   7.66366760  0.17030371 -7.35780069
   0.00000000  3.21759707 -3.88365022
   0.00000000  1.82948509 -9.54778660
   3.05451760  3.24707245 -3.86979059
   3.04642212  1.84747980 -9.52855808
   6.08818446  3.24707245 -3.86979059
   6.09627993  1.84747980 -9.52855808
   0.00000000  0.05964492 -4.57642428
   0.00000000 -1.37619058-10.14872957
   3.03986473  0.01451019 -4.49365263
   3.04273756 -1.36556438-10.12782648
   6.10283733  0.01451019 -4.49365263
   6.09996449 -1.36556438-10.12782648
   1.52508280  4.74629660 -1.16792190
   1.50661665  3.30010700 -6.80619136
   4.57135103  4.74709917 -1.15129241
   4.57135103  3.35045572 -6.80918521
   7.61761925  4.74629660 -1.16792190
   7.63608541  3.30010700 -6.80619136
   1.52689491 11.87860473 -1.42361453
   1.53211736 10.48677630 -7.10497226
   4.57135103 11.87572504 -1.42985104
   4.57135103 10.48398288 -7.08679819
   7.61580714 11.87860473 -1.42361453
   7.61058469 10.48677630 -7.10497226
   0.00000000  5.15167715 -4.19972480
   0.00000000  3.75861720 -9.88097116
   3.05270191  5.16858647 -4.19524383
   3.05680813  3.77120055 -9.88517477
   6.09000014  5.16858647 -4.19524383
   6.08589392  3.77120055 -9.88517477
   1.52297164  7.48945454 -3.17332341
   1.52149222  6.08528432 -8.81847721
   4.57135103  7.49405423 -3.17035272
   4.57135103  6.08647159 -8.81457663
   7.61973041  7.48945454 -3.17332341
   7.62120983  6.08528432 -8.81847721
   0.00000000  9.55090338 -2.47644728
   0.00000000  8.15641155 -8.12637467
   3.04699648  9.55509264 -2.47779946
   3.04882046  8.15097207 -8.12819672
   6.09570557  9.55509264 -2.47779946
   6.09388159  8.15097207 -8.12819672
   0.00000000  8.98463626 -5.04158037
   0.00000000  7.59034783-10.68894996
   3.04830078  8.98198416 -5.03584448
   3.05007401  7.58580856-10.68220585
   6.09440127  8.98198416 -5.03584448
   6.09262804  7.58580856-10.68220585
   1.52369241  8.05214285 -0.61240204
   1.52341307  6.66037441 -6.26077520
   4.57135103  8.06443212 -0.62116683
   4.57135103  6.65443766 -6.26637266
   7.61900964  8.05214285 -0.61240204
   7.61928898  6.66037441 -6.26077520
   0.00000000  5.75156095 -1.44954553
   0.00000000  4.34295196 -7.08337481
   3.05103609  5.75312594 -1.44586875
   3.03416130  4.34114228 -7.08124360
   6.09166596  5.75312594 -1.44586875
   6.10854075  4.34114228 -7.08124360
   1.51850150 -0.98140055 -4.17954353
   1.52451184 -2.38951938 -9.86862921
   4.57135103 -0.98614980 -4.20012139
   4.57135103 -2.37851706 -9.86028288
   7.62420056 -0.98140055 -4.17954353
   7.61819021 -2.38951938 -9.86862921
   0.00000000  1.33898874 -3.15447466
   0.00000000 -0.03537270 -8.87970579
   3.05377527  1.34304731 -3.16438599
   3.04628260 -0.04536106 -8.80944712
   6.08892679  1.34304731 -3.16438599
   6.09641945 -0.04536106 -8.80944712
   1.52975360  3.41508762 -2.47566050
   1.55899204  2.06077407 -8.19493825
   4.57135103  3.41643722 -2.46814111
   4.57135103  2.03396999 -8.13822173
   7.61294845  3.41508762 -2.47566050
   7.58371002  2.06077407 -8.19493825
   1.54530343  2.88863069 -5.01512246
   1.53325799  1.46310618-10.71179492
   4.57135103  2.86667165 -5.02983844
   4.57135103  1.45664804-10.69039555
   7.59739862  2.88863069 -5.01512246
   7.60944406  1.46310618-10.71179492
   0.00000000  1.89807658 -0.61642748
   3.04618085  1.89436722 -0.60628597
   3.07450441  0.53381469 -6.25696590
   6.09652120  1.89436722 -0.60628597
   6.06819764  0.53381469 -6.25696590
   0.00000000  0.70456335 -6.28724907
 


--------------------------------------------------------------------------------------------------------


 k-point   1 :   0.0000 0.0000 0.0000  plane waves:   27533
 k-point   2 :   0.5000 0.0000 0.0000  plane waves:   27522
 k-point   3 :   0.0000 0.5000 0.0000  plane waves:   27488
 k-point   4 :   0.5000 0.5000 0.0000  plane waves:   27488
 k-point   5 :   0.0000 0.0000 0.5000  plane waves:   27482
 k-point   6 :   0.5000 0.0000 0.5000  plane waves:   27476
 k-point   7 :   0.0000 0.5000 0.5000  plane waves:   27468
 k-point   8 :   0.5000 0.5000 0.5000  plane waves:   27564

 maximum and minimum number of plane-waves per node :     27564    27468

 maximum number of plane-waves:     27564
 maximum index in each direction: 
   IXMAX=   21   IYMAX=   15   IZMAX=   20
   IXMIN=  -21   IYMIN=  -16   IZMIN=  -20


 serial   3D FFT for wavefunctions
 parallel 3D FFT for charge:
    minimum data exchange during FFTs selected (reduces bandwidth)


 FFT grid for exact exchange (Hartree Fock) 
  NGX = 48; NGY = 36; NGZ = 48

 
 Radii for the augmentation spheres in the non-local exchange
 for species   1 augmentation radius   1.392 (default was   1.031)
       energy cutoff for augmentation   1800.0
 for species   2 augmentation radius   0.974 (default was   0.722)
       energy cutoff for augmentation   1800.0
 for species   3 augmentation radius   0.957 (default was   0.709)
       energy cutoff for augmentation   1800.0
 Maximum index for augmentation-charges in exchange           749
  SETUP_FOCK is finished

 total amount of memory used by VASP MPI-rank0  7269080. kBytes
=======================================================================

   base      :      30000. kBytes
   nonlr-proj:      32975. kBytes
   fftplans  :      51012. kBytes
   grid      :     102973. kBytes
   one-center:       1866. kBytes
   HF        :        194. kBytes
   wavefun   :    7050060. kBytes
 
     INWAV:  cpu time      0.0001: real time      0.0001
 Broyden mixing: mesh for mixing (old mesh)
   NGX = 43   NGY = 31   NGZ = 41
  (NGX  =128   NGY  = 96   NGZ  =120)
  gives a total of  54653 points

 charge density for first step will be calculated from the start-wavefunctions


--------------------------------------------------------------------------------------------------------


 Maximum index for non-local projection operator          1719
 Maximum index for augmentation-charges          5354 (set IRDMAX)


--------------------------------------------------------------------------------------------------------


 initial charge from wavefunction
 First call to EWALD:  gamma=   0.164
 Maximum number of real-space cells 3x 3x 3
 Maximum number of reciprocal cells 3x 2x 3

    FEWALD:  cpu time      0.0735: real time      0.0735


--------------------------------------- Ionic step        1  -------------------------------------------




--------------------------------------- Iteration      1(   1)  ---------------------------------------


    POTLOK:  cpu time      0.0323: real time      0.0323
    SETDIJ:  cpu time      0.1226: real time      0.1225
    TRIAL :  cpu time      2.9301: real time      2.9366
    CORREC:  cpu time      0.0015: real time      0.0015
    --------------------------------------------
      LOOP:  cpu time      4.0295: real time      4.0355

 eigenvalue-minimisations  : 10624
 total energy-change (2. order) :-0.1826984E+05  (-0.5418374E+05)
 number of electron    1055.9999444 magnetization 
 augmentation part      122.2163522 magnetization 

 Free energy of the ion-electron system (eV)
  ---------------------------------------------------
  alpha Z        PSCENC =      5530.94812622
  Ewald energy   TEWEN  =    -88785.25979335
  -Hartree energ DENC   =     -2114.70620153
  -exchange      EXHF   =         0.00000000
  -V(xc)+E(xc)   XCENC  =      2806.62516070
  PAW double counting   =     60061.79476470   -89269.53496386
  entropy T*S    EENTRO =        -0.01128760
  eigenvalues    EBANDS =    -40233.69313743
  atomic energy  EATOM  =    133733.99279260
  ---------------------------------------------------
  free energy    TOTEN  =    -18269.84453955 eV

  energy without entropy =   -18269.83325194  energy(sigma->0) =   -18269.83889575
  exchange ACFDT corr.  =         0.00000000  see jH, gK, PRB 81, 115126


--------------------------------------------------------------------------------------------------------




--------------------------------------- Iteration      1(   2)  ---------------------------------------


    TRIAL :  cpu time      3.2100: real time      3.2095
    CORREC:  cpu time      0.0016: real time      0.0016
    --------------------------------------------
      LOOP:  cpu time      3.2118: real time      3.2120

 eigenvalue-minimisations  : 13648
 total energy-change (2. order) :-0.4412960E+05  (-0.4282461E+05)
 number of electron    1055.9999444 magnetization 
 augmentation part      122.2163522 magnetization 

 Free energy of the ion-electron system (eV)
  ---------------------------------------------------
  alpha Z        PSCENC =      5530.94812622
  Ewald energy   TEWEN  =    -88785.25979335
  -Hartree energ DENC   =     -2114.70620153
  -exchange      EXHF   =         0.00000000
  -V(xc)+E(xc)   XCENC  =      2806.62516070
  PAW double counting   =     60061.79476470   -89269.53496386
  entropy T*S    EENTRO =        -0.01807461
  eigenvalues    EBANDS =    -84363.29056823
  atomic energy  EATOM  =    133733.99279260
  ---------------------------------------------------
  free energy    TOTEN  =    -62399.44875734 eV

  energy without entropy =   -62399.43068274  energy(sigma->0) =   -62399.43972004
  exchange ACFDT corr.  =         0.00000000  see jH, gK, PRB 81, 115126


--------------------------------------------------------------------------------------------------------




--------------------------------------- Iteration      1(   3)  ---------------------------------------


    TRIAL :  cpu time      3.3431: real time      3.3426
    CORREC:  cpu time      0.0016: real time      0.0016
    --------------------------------------------
      LOOP:  cpu time      3.3449: real time      3.3447

 eigenvalue-minimisations  : 14448
 total energy-change (2. order) :-0.4526502E+04  (-0.4028080E+04)
 number of electron    1055.9999444 magnetization 
 augmentation part      122.2163522 magnetization 

 Free energy of the ion-electron system (eV)
  ---------------------------------------------------
  alpha Z        PSCENC =      5530.94812622
  Ewald energy   TEWEN  =    -88785.25979335
  -Hartree energ DENC   =     -2114.70620153
  -exchange      EXHF   =         0.00000000
  -V(xc)+E(xc)   XCENC  =      2806.62516070
  PAW double counting   =     60061.79476470   -89269.53496386
  entropy T*S    EENTRO =        -0.03197700
  eigenvalues    EBANDS =    -88889.77896023
  atomic energy  EATOM  =    133733.99279260
  ---------------------------------------------------
  free energy    TOTEN  =    -66925.95105174 eV

  energy without entropy =   -66925.91907474  energy(sigma->0) =   -66925.93506324
  exchange ACFDT corr.  =         0.00000000  see jH, gK, PRB 81, 115126


--------------------------------------------------------------------------------------------------------




--------------------------------------- Iteration      1(   4)  ---------------------------------------


    TRIAL :  cpu time      3.6903: real time      3.6897
    CORREC:  cpu time      0.0017: real time      0.0017
    --------------------------------------------
      LOOP:  cpu time      3.6923: real time      3.6920

 eigenvalue-minimisations  : 16864
 total energy-change (2. order) :-0.5243691E+03  (-0.4462941E+03)
 number of electron    1055.9999444 magnetization 
 augmentation part      122.2163522 magnetization 

 Free energy of the ion-electron system (eV)
  ---------------------------------------------------
  alpha Z        PSCENC =      5530.94812622
  Ewald energy   TEWEN  =    -88785.25979335
  -Hartree energ DENC   =     -2114.70620153
  -exchange      EXHF   =         0.00000000
  -V(xc)+E(xc)   XCENC  =      2806.62516070
  PAW double counting   =     60061.79476470   -89269.53496386
  entropy T*S    EENTRO =        -0.04983872
  eigenvalues    EBANDS =    -89414.13020248
  atomic energy  EATOM  =    133733.99279260
  ---------------------------------------------------
  free energy    TOTEN  =    -67450.32015571 eV

  energy without entropy =   -67450.27031699  energy(sigma->0) =   -67450.29523635
  exchange ACFDT corr.  =         0.00000000  see jH, gK, PRB 81, 115126


--------------------------------------------------------------------------------------------------------




--------------------------------------- Iteration      1(   5)  ---------------------------------------


    POTLOK:  cpu time      1.3795: real time      1.3793
    SETDIJ:  cpu time      0.4714: real time      0.4713
    TRIAL :  cpu time    235.4568: real time    235.4257
    CORREC:  cpu time      0.0017: real time      0.0016
    CHARGE:  cpu time      0.2069: real time      0.2068
    --------------------------------------------
      LOOP:  cpu time    237.5163: real time    237.4852

 eigenvalue-minimisations  : 19085
 total energy-change (2. order) : 0.3011931E+05  (-0.7331757E+02)
 number of electron    1055.9998313 magnetization 
 augmentation part      494.8078967 magnetization 

 Free energy of the ion-electron system (eV)
  ---------------------------------------------------
  alpha Z        PSCENC =      5530.94812622
  Ewald energy   TEWEN  =    -88785.25979335
  -Hartree energ DENC   =     -2114.70620153
  -exchange      EXHF   =      4649.91551838
  -V(xc)+E(xc)   XCENC  =      1940.17403539
  PAW double counting   =     60706.38558412   -62786.82151422
  entropy T*S    EENTRO =        -0.02159155
  eigenvalues    EBANDS =    -90205.61373283
  atomic energy  EATOM  =    133733.99279260
  ---------------------------------------------------
  free energy    TOTEN  =    -37331.00677676 eV

  energy without entropy =   -37330.98518521  energy(sigma->0) =   -37330.99598099
  exchange ACFDT corr.  =        -0.13470197  see jH, gK, PRB 81, 115126


--------------------------------------------------------------------------------------------------------




--------------------------------------- Iteration      1(   6)  ---------------------------------------


    POTLOK:  cpu time      1.4370: real time      1.4368
    SETDIJ:  cpu time      0.4704: real time      0.4703
    TRIAL :  cpu time    233.9402: real time    233.9085
    CORREC:  cpu time    236.4901: real time    236.4536
    CHARGE:  cpu time      0.2237: real time      0.2236
    --------------------------------------------
      LOOP:  cpu time    472.5636: real time    472.4956

 eigenvalue-minimisations  :     0
 total energy-change (2. order) : 0.5565046E+05  (-0.1290968E+05)
 number of electron    1055.9998721 magnetization 
 augmentation part      492.9056479 magnetization 

 Free energy of the ion-electron system (eV)
  ---------------------------------------------------
  alpha Z        PSCENC =      5530.94812622
  Ewald energy   TEWEN  =    -88785.25979335
  -Hartree energ DENC   =    -64736.86013274
  -exchange      EXHF   =      4755.23304984
  -V(xc)+E(xc)   XCENC  =      3727.86260262
  PAW double counting   =    144058.63912257  -168526.83488578
  entropy T*S    EENTRO =        -0.02186069
  eigenvalues    EBANDS =     48561.75584047
  atomic energy  EATOM  =    133733.99279260
  ---------------------------------------------------
  free energy    TOTEN  =     18319.45513092 eV

  energy without entropy =    18319.47699161  energy(sigma->0) =    18319.46606127
  exchange ACFDT corr.  =        -0.13549834  see jH, gK, PRB 81, 115126


--------------------------------------------------------------------------------------------------------




--------------------------------------- Iteration      1(   7)  ---------------------------------------


    POTLOK:  cpu time      1.4873: real time      1.4871
    SETDIJ:  cpu time      0.4679: real time      0.4678
    TRIAL :  cpu time    233.6587: real time    233.6274
    CORREC:  cpu time    236.6118: real time    236.5795
    CHARGE:  cpu time      0.2299: real time      0.2299
    --------------------------------------------
      LOOP:  cpu time    472.4559: real time    472.3922

 eigenvalue-minimisations  :     0
 total energy-change (2. order) :-0.1315341E+05  (-0.3336124E+04)
 number of electron    1055.9998656 magnetization 
 augmentation part      462.0621181 magnetization 

 Free energy of the ion-electron system (eV)
  ---------------------------------------------------
  alpha Z        PSCENC =      5530.94812622
  Ewald energy   TEWEN  =    -88785.25979335
  -Hartree energ DENC   =    -45572.93746744
  -exchange      EXHF   =      4220.71895464
  -V(xc)+E(xc)   XCENC  =      3226.43792605
  PAW double counting   =    127284.08982572  -147267.93106869
  entropy T*S    EENTRO =        -0.02354710
  eigenvalues    EBANDS =     12796.00736229
  atomic energy  EATOM  =    133733.99279260
  ---------------------------------------------------
  free energy    TOTEN  =      5166.04479736 eV

  energy without entropy =     5166.06834447  energy(sigma->0) =     5166.05657091
  exchange ACFDT corr.  =      -186.67447978  see jH, gK, PRB 81, 115126


--------------------------------------------------------------------------------------------------------




--------------------------------------- Iteration      1(   8)  ---------------------------------------


    POTLOK:  cpu time      1.4782: real time      1.4780
    SETDIJ:  cpu time      0.4697: real time      0.4696
    TRIAL :  cpu time    234.6170: real time    234.5839
    CORREC:  cpu time    237.0570: real time    237.0236
    CHARGE:  cpu time      0.2302: real time      0.2302
    --------------------------------------------
      LOOP:  cpu time    473.8524: real time    473.7916

 eigenvalue-minimisations  :     0
 total energy-change (2. order) :-0.4037744E+04  (-0.7162070E+03)
 number of electron    1055.9998463 magnetization 
 augmentation part      450.5447595 magnetization 

 Free energy of the ion-electron system (eV)
  ---------------------------------------------------
  alpha Z        PSCENC =      5530.94812622
  Ewald energy   TEWEN  =    -88785.25979335
  -Hartree energ DENC   =    -35698.52049021
  -exchange      EXHF   =      3870.18252557
  -V(xc)+E(xc)   XCENC  =      2945.01932474
  PAW double counting   =    125516.48381953  -142470.30133674
  entropy T*S    EENTRO =        -0.05460756
  eigenvalues    EBANDS =     -3514.22044137
  atomic energy  EATOM  =    133733.99279260
  ---------------------------------------------------
  free energy    TOTEN  =      1128.30097989 eV

  energy without entropy =     1128.35558745  energy(sigma->0) =     1128.32828367
  exchange ACFDT corr.  =      -145.51022174  see jH, gK, PRB 81, 115126


--------------------------------------------------------------------------------------------------------




--------------------------------------- Iteration      1(   9)  ---------------------------------------


    POTLOK:  cpu time      1.4818: real time      1.4816
    SETDIJ:  cpu time      0.4702: real time      0.4701
    TRIAL :  cpu time    234.5078: real time    234.4699
    CORREC:  cpu time    236.2257: real time    236.1888
    CHARGE:  cpu time      0.2221: real time      0.2220
    --------------------------------------------
      LOOP:  cpu time    472.9079: real time    472.8329

 eigenvalue-minimisations  :     0
 total energy-change (2. order) :-0.8231649E+03  (-0.5621049E+03)
 number of electron    1055.9998674 magnetization 
 augmentation part      446.7424133 magnetization 

 Free energy of the ion-electron system (eV)
  ---------------------------------------------------
  alpha Z        PSCENC =      5530.94812622
  Ewald energy   TEWEN  =    -88785.25979335
  -Hartree energ DENC   =    -33650.25216243
  -exchange      EXHF   =      3786.18073549
  -V(xc)+E(xc)   XCENC  =      2880.88145743
  PAW double counting   =    122167.74186494  -137948.93368723
  entropy T*S    EENTRO =        -0.06513649
  eigenvalues    EBANDS =     -7410.10859701
  atomic energy  EATOM  =    133733.99279260
  ---------------------------------------------------
  free energy    TOTEN  =       305.13612911 eV

  energy without entropy =      305.20126560  energy(sigma->0) =      305.16869736
  exchange ACFDT corr.  =       -91.83010682  see jH, gK, PRB 81, 115126


--------------------------------------------------------------------------------------------------------




--------------------------------------- Iteration      1(  10)  ---------------------------------------


    POTLOK:  cpu time      1.5197: real time      1.5195
    SETDIJ:  cpu time      0.4704: real time      0.4706
    TRIAL :  cpu time    235.1472: real time    235.1101
    CORREC:  cpu time    235.2801: real time    235.2375
    CHARGE:  cpu time      0.2239: real time      0.2238
    --------------------------------------------
      LOOP:  cpu time    472.6436: real time    472.5642

 eigenvalue-minimisations  :     0
 total energy-change (2. order) :-0.4052783E+03  (-0.4716930E+03)
 number of electron    1055.9998567 magnetization 
 augmentation part      446.5761040 magnetization 

 Free energy of the ion-electron system (eV)
  ---------------------------------------------------
  alpha Z        PSCENC =      5530.94812622
  Ewald energy   TEWEN  =    -88785.25979335
  -Hartree energ DENC   =    -32842.72989083
  -exchange      EXHF   =      3751.62549373
  -V(xc)+E(xc)   XCENC  =      2862.06724602
  PAW double counting   =    120585.57459405  -135687.25690022
  entropy T*S    EENTRO =        -0.01251060
  eigenvalues    EBANDS =     -9249.03871306
  atomic energy  EATOM  =    133733.99279260
  ---------------------------------------------------
  free energy    TOTEN  =      -100.14218132 eV

  energy without entropy =     -100.12967072  energy(sigma->0) =     -100.13592602
  exchange ACFDT corr.  =       -20.93623242  see jH, gK, PRB 81, 115126


--------------------------------------------------------------------------------------------------------




--------------------------------------- Iteration      1(  11)  ---------------------------------------


    POTLOK:  cpu time      1.5228: real time      1.5226
    SETDIJ:  cpu time      0.4685: real time      0.4684
    TRIAL :  cpu time    233.6846: real time    233.6455
    CORREC:  cpu time    235.2588: real time    235.2191
    CHARGE:  cpu time      0.2228: real time      0.2228
    --------------------------------------------
      LOOP:  cpu time    471.1594: real time    471.0806

 eigenvalue-minimisations  :     0
 total energy-change (2. order) :-0.2581552E+03  (-0.3012665E+03)
[...]
   0.167E-03 0.543E+02 -.344E+02   -.499E-12 -.525E+02 0.363E+02   0.000E+00 -.163E+01 -.178E+01
   0.230E-03 0.474E+02 -.310E+02   -.429E-12 -.453E+02 0.323E+02   0.000E+00 -.192E+01 -.128E+01
   -.202E+01 0.494E+02 -.287E+02   0.195E+01 -.483E+02 0.312E+02   0.643E-01 -.953E+00 -.231E+01
   0.607E+01 0.451E+02 -.349E+02   -.599E+01 -.427E+02 0.360E+02   -.598E-01 -.214E+01 -.105E+01
   0.215E+00 -.211E+02 0.154E+02   -.183E+00 0.289E+02 -.190E+02   -.264E-01 -.671E+01 0.307E+01
   0.166E+01 -.352E+02 0.231E+02   -.158E+01 0.447E+02 -.281E+02   -.558E-01 -.817E+01 0.437E+01
   0.199E-04 -.216E+02 0.153E+02   0.306E-13 0.291E+02 -.192E+02   0.000E+00 -.649E+01 0.331E+01
   0.466E-05 -.231E+02 0.141E+02   0.151E-12 0.310E+02 -.178E+02   0.000E+00 -.681E+01 0.321E+01
   -.215E+00 -.211E+02 0.154E+02   0.183E+00 0.289E+02 -.190E+02   0.264E-01 -.671E+01 0.307E+01
   -.166E+01 -.352E+02 0.231E+02   0.158E+01 0.447E+02 -.281E+02   0.558E-01 -.817E+01 0.437E+01
   -.264E-04 0.197E+02 -.142E+02   0.527E-11 -.278E+02 0.184E+02   0.000E+00 0.705E+01 -.361E+01
   -.311E-04 0.200E+02 -.153E+02   -.157E-12 -.283E+02 0.191E+02   0.000E+00 0.716E+01 -.322E+01
   -.339E-01 0.179E+02 -.132E+02   -.754E-03 -.255E+02 0.173E+02   0.302E-01 0.657E+01 -.359E+01
   -.232E+01 0.220E+02 -.150E+02   0.243E+01 -.304E+02 0.186E+02   -.921E-01 0.722E+01 -.311E+01
   0.339E-01 0.179E+02 -.132E+02   0.754E-03 -.255E+02 0.173E+02   -.302E-01 0.657E+01 -.359E+01
   0.232E+01 0.220E+02 -.150E+02   -.243E+01 -.304E+02 0.186E+02   0.921E-01 0.722E+01 -.311E+01
   0.116E+01 0.605E+02 0.444E+02   -.119E+01 -.582E+02 -.401E+02   0.237E-01 -.196E+01 -.371E+01
   0.168E+01 0.632E+02 0.354E+02   -.177E+01 -.612E+02 -.308E+02   0.754E-01 -.170E+01 -.393E+01
   0.252E-04 0.635E+02 0.410E+02   0.684E-13 -.615E+02 -.363E+02   0.000E+00 -.172E+01 -.409E+01
   0.275E-04 0.633E+02 0.325E+02   -.211E-12 -.612E+02 -.277E+02   0.000E+00 -.183E+01 -.414E+01
   -.116E+01 0.605E+02 0.444E+02   0.119E+01 -.582E+02 -.401E+02   -.237E-01 -.196E+01 -.371E+01
   -.168E+01 0.632E+02 0.354E+02   0.177E+01 -.612E+02 -.308E+02   -.754E-01 -.170E+01 -.393E+01
   -.255E-04 -.705E+02 -.319E+02   -.600E-12 0.688E+02 0.269E+02   0.000E+00 0.150E+01 0.425E+01
   0.396E-05 -.698E+02 -.453E+02   -.113E-11 0.679E+02 0.414E+02   0.000E+00 0.160E+01 0.333E+01
   0.239E+01 -.698E+02 -.318E+02   -.252E+01 0.681E+02 0.268E+02   0.118E+00 0.150E+01 0.432E+01
   0.170E+01 -.679E+02 -.424E+02   -.183E+01 0.658E+02 0.382E+02   0.108E+00 0.183E+01 0.364E+01
   -.239E+01 -.698E+02 -.318E+02   0.252E+01 0.681E+02 0.268E+02   -.118E+00 0.150E+01 0.432E+01
   -.170E+01 -.679E+02 -.424E+02   0.183E+01 0.658E+02 0.382E+02   -.108E+00 0.183E+01 0.364E+01
   0.826E-06 0.118E+03 0.691E+02   0.274E-12 -.130E+03 -.660E+02   0.000E+00 0.110E+02 -.267E+01
   0.894E-05 0.119E+03 0.616E+02   -.541E-11 -.132E+03 -.584E+02   0.000E+00 0.108E+02 -.277E+01
   0.258E+01 0.118E+03 0.671E+02   -.269E+01 -.131E+03 -.636E+02   0.917E-01 0.108E+02 -.302E+01
   0.851E+00 0.117E+03 0.601E+02   -.865E+00 -.130E+03 -.566E+02   0.125E-01 0.109E+02 -.306E+01
   -.258E+01 0.118E+03 0.671E+02   0.269E+01 -.131E+03 -.636E+02   -.917E-01 0.108E+02 -.302E+01
   -.851E+00 0.117E+03 0.601E+02   0.865E+00 -.130E+03 -.566E+02   -.125E-01 0.109E+02 -.306E+01
   0.148E+01 -.123E+03 -.646E+02   -.153E+01 0.135E+03 0.614E+02   0.454E-01 -.108E+02 0.274E+01
   0.564E+00 -.125E+03 -.610E+02   -.519E+00 0.138E+03 0.574E+02   -.378E-01 -.110E+02 0.308E+01
   0.101E-04 -.122E+03 -.631E+02   -.407E-13 0.135E+03 0.596E+02   0.000E+00 -.109E+02 0.305E+01
   0.194E-04 -.123E+03 -.591E+02   0.135E-12 0.135E+03 0.552E+02   0.000E+00 -.107E+02 0.338E+01
   -.148E+01 -.123E+03 -.646E+02   0.153E+01 0.135E+03 0.614E+02   -.454E-01 -.108E+02 0.274E+01
   -.564E+00 -.125E+03 -.610E+02   0.519E+00 0.138E+03 0.574E+02   0.378E-01 -.110E+02 0.308E+01
   -.345E-04 -.148E+02 0.146E+02   0.826E-12 0.219E+02 -.184E+02   0.000E+00 -.608E+01 0.325E+01
   -.590E-04 -.255E+02 0.141E+02   0.727E-12 0.326E+02 -.175E+02   0.000E+00 -.615E+01 0.296E+01
   -.234E-01 -.152E+02 0.143E+02   -.572E-01 0.223E+02 -.181E+02   0.702E-01 -.612E+01 0.331E+01
   0.626E+01 -.157E+02 0.112E+02   -.762E+01 0.219E+02 -.145E+02   0.118E+01 -.536E+01 0.277E+01
   0.234E-01 -.152E+02 0.143E+02   0.572E-01 0.223E+02 -.181E+02   -.702E-01 -.612E+01 0.331E+01
   -.626E+01 -.157E+02 0.112E+02   0.762E+01 0.219E+02 -.145E+02   -.118E+01 -.536E+01 0.277E+01
   0.168E+02 0.755E+01 -.172E+02   -.193E+02 -.126E+02 0.222E+02   0.220E+01 0.437E+01 -.430E+01
   0.328E-01 0.124E+02 -.178E+02   -.148E+00 -.193E+02 0.211E+02   0.102E+00 0.594E+01 -.287E+01
   0.146E-04 0.109E+02 -.113E+02   -.111E-12 -.172E+02 0.152E+02   0.000E+00 0.536E+01 -.337E+01
   -.644E-05 0.138E+02 -.138E+02   0.331E-13 -.207E+02 0.170E+02   0.000E+00 0.593E+01 -.277E+01
   -.168E+02 0.755E+01 -.172E+02   0.193E+02 -.126E+02 0.222E+02   -.220E+01 0.437E+01 -.430E+01
   -.328E-01 0.124E+02 -.178E+02   0.148E+00 -.193E+02 0.211E+02   -.102E+00 0.594E+01 -.287E+01
   -.193E-04 0.862E+02 0.438E+02   0.124E-12 -.870E+02 -.410E+02   0.000E+00 0.684E+00 -.244E+01
   0.703E-05 0.732E+02 0.145E+02   -.871E-13 -.714E+02 -.649E+01   0.000E+00 -.158E+01 -.693E+01
   -.136E+01 0.682E+02 0.411E+02   0.143E+01 -.662E+02 -.369E+02   -.597E-01 -.167E+01 -.360E+01
   0.160E+02 0.691E+02 0.231E+02   -.178E+02 -.667E+02 -.170E+02   0.159E+01 -.209E+01 -.532E+01
   0.136E+01 0.682E+02 0.411E+02   -.143E+01 -.662E+02 -.369E+02   0.597E-01 -.167E+01 -.360E+01
   -.160E+02 0.691E+02 0.231E+02   0.178E+02 -.667E+02 -.170E+02   -.159E+01 -.209E+01 -.532E+01
   0.223E+01 -.595E+02 -.394E+02   -.254E+01 0.570E+02 0.345E+02   0.267E+00 0.212E+01 0.428E+01
   0.213E+01 -.547E+02 -.328E+02   -.300E+01 0.517E+02 0.287E+02   0.765E+00 0.261E+01 0.359E+01
   0.463E-04 -.584E+02 -.425E+02   0.458E-13 0.561E+02 0.382E+02   0.000E+00 0.206E+01 0.373E+01
   0.452E-04 -.602E+02 -.394E+02   -.867E-13 0.578E+02 0.349E+02   0.000E+00 0.205E+01 0.391E+01
   -.223E+01 -.595E+02 -.394E+02   0.254E+01 0.570E+02 0.345E+02   -.267E+00 0.212E+01 0.428E+01
   -.213E+01 -.547E+02 -.328E+02   0.300E+01 0.517E+02 0.287E+02   -.765E+00 0.261E+01 0.359E+01
   -.439E+01 0.111E+03 0.637E+02   0.424E+01 -.122E+03 -.608E+02   0.141E+00 0.985E+01 -.254E+01
   -.236E+01 0.127E+03 0.572E+02   0.247E+01 -.140E+03 -.529E+02   -.101E+00 0.108E+02 -.377E+01
   0.469E-04 0.122E+03 0.668E+02   0.208E-13 -.134E+03 -.638E+02   0.000E+00 0.106E+02 -.259E+01
   0.291E-04 0.128E+03 0.593E+02   -.142E-14 -.141E+03 -.554E+02   0.000E+00 0.110E+02 -.338E+01
   0.439E+01 0.111E+03 0.637E+02   -.424E+01 -.122E+03 -.608E+02   -.141E+00 0.985E+01 -.254E+01
   0.236E+01 0.127E+03 0.572E+02   -.247E+01 -.140E+03 -.529E+02   0.101E+00 0.108E+02 -.377E+01
   -.896E-05 -.121E+03 -.660E+02   -.166E-12 0.133E+03 0.627E+02   0.000E+00 -.108E+02 0.289E+01
   0.128E+01 -.118E+03 -.656E+02   -.164E+01 0.130E+03 0.622E+02   0.309E+00 -.104E+02 0.292E+01
   0.101E+01 -.113E+03 -.554E+02   -.148E+01 0.125E+03 0.512E+02   0.413E+00 -.107E+02 0.367E+01
   -.128E+01 -.118E+03 -.656E+02   0.164E+01 0.130E+03 0.622E+02   -.309E+00 -.104E+02 0.292E+01
   -.101E+01 -.113E+03 -.554E+02   0.148E+01 0.125E+03 0.512E+02   -.413E+00 -.107E+02 0.367E+01
   -.885E-04 -.111E+03 -.582E+02   0.853E-13 0.125E+03 0.563E+02   0.000E+00 -.125E+02 0.171E+01
 -----------------------------------------------------------------------------------------------
   -.729E-05 0.184E+02 0.129E+02   0.822E-13 -.200E-11 -.952E-12   0.555E-16 -.177E+02 -.114E+02
 
 
 POSITION                                       TOTAL-FORCE (eV/Angst)
 -----------------------------------------------------------------------------------
      0.00000      7.66617     -1.77324         0.000000      0.077787      0.002207
      0.00000      6.25605     -7.41530         0.000000      0.060275      0.010987
      3.04549      7.66709     -1.77484        -0.001398      0.075256      0.002811
      3.04366      6.25019     -7.41857        -0.006163      0.055565      0.012769
      6.09721      7.66709     -1.77484         0.001398      0.075256      0.002811
      6.09904      6.25019     -7.41857         0.006163      0.055565      0.012769
      1.52009      9.39351     -3.88519        -0.011568     -0.032651     -0.008605
      1.52182      7.98270     -9.52532        -0.003427     -0.061957     -0.009256
      4.57135      9.38574     -3.88077         0.000000     -0.057705     -0.009417
      4.57135      7.98780     -9.52064         0.000000     -0.069261     -0.002362
      7.62261      9.39351     -3.88519         0.011568     -0.032651     -0.008605
      7.62089      7.98270     -9.52532         0.003427     -0.061957     -0.009256
      1.52152      6.15409     -4.49033         0.001039     -0.030651      0.016842
      1.52446      4.75997    -10.14428        -0.001668     -0.037613      0.012781
      4.57135      6.16967     -4.49199         0.000000     -0.037554      0.026730
      4.57135      4.78095    -10.15463         0.000000     -0.048367      0.017223
      7.62119      6.15409     -4.49033        -0.001039     -0.030651      0.016842
      7.61824      4.75997    -10.14428         0.001668     -0.037613      0.012781
      0.00000     10.88032     -1.15911         0.000000      0.030728     -0.024065
      0.00000      9.50709     -6.81312         0.000000      0.046496     -0.018302
      3.04740     10.87415     -1.14899        -0.005131      0.032804     -0.019097
      3.04484      9.48616     -6.80957        -0.010202      0.048785     -0.024204
      6.09530     10.87415     -1.14899         0.005131      0.032804     -0.019097
      6.09786      9.48616     -6.80957         0.010202      0.048785     -0.024204
      1.51979      1.51343     -1.77632        -0.020891      0.062094     -0.002527
      1.47903      0.17030     -7.35780        -0.047322      0.096687      0.056315
      4.57135      1.51319     -1.76200         0.000000      0.063212      0.005537
      4.57135      0.12690     -7.42692         0.000000      0.084976      0.026172
      7.62292      1.51343     -1.77632         0.020891      0.062094     -0.002527
      7.66367      0.17030     -7.35780         0.047322      0.096687      0.056315
      0.00000      3.21760     -3.88365         0.000000     -0.095852     -0.032464
      0.00000      1.82949     -9.54779         0.000000     -0.112260      0.024547
      3.05452      3.24707     -3.86979        -0.027595     -0.074428     -0.037392
      3.04642      1.84748     -9.52856        -0.045089     -0.071955      0.044300
      6.08818      3.24707     -3.86979         0.027595     -0.074428     -0.037392
      6.09628      1.84748     -9.52856         0.045089     -0.071955      0.044300
      0.00000      0.05964     -4.57642         0.000000      0.011004      0.047835
      0.00000     -1.37619    -10.14873         0.000000      0.025203      0.030166
      3.03986      0.01451     -4.49365        -0.012316     -0.001715      0.004293
      3.04274     -1.36556    -10.12783        -0.005471     -0.012499      0.016758
      6.10284      0.01451     -4.49365         0.012316     -0.001715      0.004293
      6.09996     -1.36556    -10.12783         0.005471     -0.012499      0.016758
      1.52508      4.74630     -1.16792         0.003416     -0.001817      0.004596
      1.50662      3.30011     -6.80619         0.006074      0.020671     -0.012118
      4.57135      4.74710     -1.15129         0.000000      0.010598     -0.010506
      4.57135      3.35046     -6.80919         0.000000      0.001376     -0.009853
      7.61762      4.74630     -1.16792        -0.003416     -0.001817      0.004596
      7.63609      3.30011     -6.80619        -0.006074      0.020671     -0.012118
      1.52689     11.87860     -1.42361         0.000986     -0.185628      0.112218
      1.53212     10.48678     -7.10497         0.008457     -0.247768      0.145034
      4.57135     11.87573     -1.42985         0.000000     -0.180712      0.118765
      4.57135     10.48398     -7.08680         0.000000     -0.197534      0.113796
      7.61581     11.87860     -1.42361        -0.000986     -0.185628      0.112218
      7.61058     10.48678     -7.10497        -0.008457     -0.247768      0.145034
      0.00000      5.15168     -4.19972         0.000000      0.206466     -0.125498
      0.00000      3.75862     -9.88097         0.000000      0.206369     -0.117160
      3.05270      5.16859     -4.19524         0.001422      0.184373     -0.122951
      3.05681      3.77120     -9.88517        -0.004786      0.204499     -0.113477
      6.09000      5.16859     -4.19524        -0.001422      0.184373     -0.122951
      6.08589      3.77120     -9.88517         0.004786      0.204499     -0.113477
      1.52297      7.48945     -3.17332         0.002097     -0.043414     -0.102319
      1.52149      6.08528     -8.81848         0.003240     -0.034779     -0.108221
      4.57135      7.49405     -3.17035         0.000000     -0.032387     -0.118425
      4.57135      6.08647     -8.81458         0.000000     -0.039519     -0.114681
      7.61973      7.48945     -3.17332        -0.002097     -0.043414     -0.102319
      7.62121      6.08528     -8.81848        -0.003240     -0.034779     -0.108221
      0.00000      9.55090     -2.47645         0.000000      0.022950      0.121219
      0.00000      8.15641     -8.12637         0.000000      0.031732      0.089222
      3.04700      9.55509     -2.47780         0.004903      0.028295      0.120417
      3.04882      8.15097     -8.12820         0.004599      0.043409      0.101207
      6.09571      9.55509     -2.47780        -0.004903      0.028295      0.120417
      6.09388      8.15097     -8.12820        -0.004599      0.043409      0.101207
      0.00000      8.98464     -5.04158         0.000000      0.407199     -0.069554
      0.00000      7.59035    -10.68895         0.000000      0.393352     -0.060793
      3.04830      8.98198     -5.03584         0.000671      0.399799     -0.075736
      3.05007      7.58581    -10.68221         0.000341      0.398288     -0.070398
      6.09440      8.98198     -5.03584        -0.000671      0.399799     -0.075736
      6.09263      7.58581    -10.68221        -0.000341      0.398288     -0.070398
      1.52369      8.05214     -0.61240         0.003451     -0.394969      0.061514
      1.52341      6.66037     -6.26078        -0.000925     -0.401968      0.073535
      4.57135      8.06443     -0.62117         0.000000     -0.399372      0.073622
      4.57135      6.65444     -6.26637         0.000000     -0.396929      0.082992
      7.61901      8.05214     -0.61240        -0.003451     -0.394969      0.061514
      7.61929      6.66037     -6.26078         0.000925     -0.401968      0.073535
      0.00000      5.75156     -1.44955         0.000000     -0.156668      0.112948
      0.00000      4.34295     -7.08337         0.000000     -0.183191      0.108061
      3.05104      5.75313     -1.44587         0.000186     -0.154484      0.116485
      3.03416      4.34114     -7.08124         0.041368     -0.135611      0.096726
      6.09167      5.75313     -1.44587        -0.000186     -0.154484      0.116485
      6.10854      4.34114     -7.08124        -0.041368     -0.135611      0.096726
      1.51850     -0.98140     -4.17954         0.078377      0.101119     -0.143358
      1.52451     -2.38952     -9.86863         0.004874      0.151803     -0.105820
      4.57135     -0.98615     -4.20012         0.000000      0.133251     -0.118452
      4.57135     -2.37852     -9.86028         0.000000      0.152147     -0.096179
      7.62420     -0.98140     -4.17954        -0.078377      0.101119     -0.143358
      7.61819     -2.38952     -9.86863        -0.004874      0.151803     -0.105820
      0.00000      1.33899     -3.15447         0.000000      0.055279     -0.040089
      0.00000     -0.03537     -8.87971         0.000000     -0.042128     -0.226341
      3.05378      1.34305     -3.16439        -0.001444     -0.035781     -0.091032
      3.04628     -0.04536     -8.80945         0.059914     -0.056771     -0.163488
      6.08893      1.34305     -3.16439         0.001444     -0.035781     -0.091032
      6.09642     -0.04536     -8.80945        -0.059914     -0.056771     -0.163488
      1.52975      3.41509     -2.47566         0.009860      0.055116      0.127970
      1.55899      2.06077     -8.19494         0.026067      0.074436      0.099951
      4.57135      3.41644     -2.46814         0.000000      0.052437      0.104827
      4.57135      2.03397     -8.13822         0.000000      0.053604      0.104453
      7.61295      3.41509     -2.47566        -0.009860      0.055116      0.127970
      7.58371      2.06077     -8.19494        -0.026067      0.074436      0.099951
      1.54530      2.88863     -5.01512         0.004509      0.365858     -0.053750
      1.53326      1.46311    -10.71179        -0.008311      0.398800     -0.109906
      4.57135      2.86667     -5.02984         0.000000      0.388185     -0.053297
      4.57135      1.45665    -10.69040         0.000000      0.405627     -0.087450
      7.59740      2.88863     -5.01512        -0.004509      0.365858     -0.053750
      7.60944      1.46311    -10.71179         0.008311      0.398800     -0.109906
      0.00000      1.89808     -0.61643         0.000000     -0.396564      0.072562
      3.04618      1.89437     -0.60629         0.009252     -0.383663      0.070757
      3.07450      0.53381     -6.25697         0.012292     -0.398593      0.091893
      6.09652      1.89437     -0.60629        -0.009252     -0.383663      0.070757
      6.06820      0.53381     -6.25697        -0.012292     -0.398593      0.091893
      0.00000      0.70456     -6.28725         0.000000     -0.472135      0.009986
 -----------------------------------------------------------------------------------
    total drift:                               -0.000007      0.007173     -0.001910


--------------------------------------------------------------------------------------------------------



  FREE ENERGIE OF THE ION-ELECTRON SYSTEM (eV)
  ---------------------------------------------------
  free  energy   TOTEN  =      -951.74325087 eV

  energy  without entropy=     -951.74325087  energy(sigma->0) =     -951.74325087
 


--------------------------------------------------------------------------------------------------------


    POTLOK:  cpu time      2.0034: real time      2.0155


--------------------------------------------------------------------------------------------------------


 writing wavefunctions
     LOOP+:  cpu time  16606.3531: real time  16604.0244
    4ORBIT:  cpu time      0.0000: real time      0.0000

 total amount of memory used by VASP MPI-rank0  7512570. kBytes
=======================================================================

   base      :      30000. kBytes
   nonlr-proj:      47195. kBytes
   fftplans  :      51012. kBytes
   grid      :     102973. kBytes
   one-center:       1866. kBytes
   HF        :        194. kBytes
   wavefun   :    7050060. kBytes
   fock_wrk  :     229270. kBytes
 
  
  
 General timing and accounting informations for this job:
 ========================================================
  
                  Total CPU time used (sec):    16637.639
                            User time (sec):    16623.780
                          System time (sec):       13.860
                         Elapsed time (sec):    16635.640
  
                   Maximum memory used (kb):    13302272.
                   Average memory used (kb):          N/A
  
                          Minor page faults:      8354906
                          Major page faults:            5
                 Voluntary context switches:       303555
