<?xml version="1.0" encoding="ISO-8859-1"?>
<modeling>
 <generator>
  <i name="program" type="string">vasp </i>
  <i name="version" type="string">6.4.2  </i>
  <i name="subversion" type="string">20Jul23 (build Nov 12 2023 22:16:35) complex                          parallel </i>
  <i name="platform" type="string">LinuxNV </i>
  <i name="date" type="string">2025 03 24 </i>
  <i name="time" type="string">04:32:48 </i>
 </generator>
 <incar>
  <i type="int" name="ISTART">     0</i>
  <i type="string" name="PREC">Normal</i>
  <i type="string" name="ALGO">All</i>
  <i type="int" name="ISPIN">     1</i>
  <i type="int" name="ICHARG">     0</i>
  <i type="int" name="NELM">   500</i>
  <i type="int" name="IBRION">    -1</i>
  <i name="EDIFF">      0.00001000</i>
  <i name="EDIFFG">     -0.00500000</i>
  <i type="int" name="NSW">     0</i>
  <i type="int" name="ISIF">     2</i>
  <i name="ENCUT">    450.00000000</i>
  <i name="NELECT">   1056.00000000</i>
  <i type="string" name="LREAL">Auto</i>
  <i type="logical" name="LPLANE"> T  </i>
  <i name="TIME">      0.40000000</i>
  <i type="int" name="ISMEAR">     0</i>
  <i name="SIGMA">      0.05000000</i>
  <i type="logical" name="LWAVE"> T  </i>
  <i type="logical" name="LCHARG"> T  </i>
  <i name="HFSCREEN">      0.20000000</i>
  <i type="logical" name="LHFCALC"> T  </i>
  <i type="int" name="LMAXFOCK">     4</i>
  <i name="AEXX">      0.32000000</i>
  <i type="string" name="PRECFOCK">Fast</i>
 </incar>
 <primitive_cell>
  <structure name="primitive_cell" >
   <crystal>
    <varray name="basis" >
     <v>       0.00000000      12.28047342       0.00000000 </v>
     <v>       9.14270205       0.00000000       0.00000000 </v>
     <v>       0.00000000      -2.76826177     -11.30069772 </v>
    </varray>
    <i name="volume">   1268.80515525 </i>
    <varray name="rec_basis" >
     <v>       0.00000000       0.08143009      -0.01994742 </v>
     <v>       0.10937686      -0.00000000       0.00000000 </v>
     <v>       0.00000000       0.00000000      -0.08849011 </v>
    </varray>
   </crystal>
   <varray name="positions" >
    <v>       0.65962855       0.00000000       0.15691423 </v>
    <v>       0.65734655       0.00000000       0.65618094 </v>
    <v>       0.65973554       0.33310626       0.15705585 </v>
    <v>       0.65693530       0.33290616       0.65647045 </v>
    <v>       0.65973554       0.66689374       0.15705585 </v>
    <v>       0.65693530       0.66709384       0.65647045 </v>
    <v>       0.84241413       0.16626270       0.34380080 </v>
    <v>       0.84003712       0.16645141       0.84289620 </v>
    <v>       0.84169291       0.50000000       0.34340981 </v>
    <v>       0.84035966       0.50000000       0.84248229 </v>
    <v>       0.84241413       0.83373730       0.34380080 </v>
    <v>       0.84003712       0.83354859       0.84289620 </v>
    <v>       0.59069819       0.16641870       0.39734940 </v>
    <v>       0.58995704       0.16674101       0.89766839 </v>
    <v>       0.59200053       0.50000000       0.39749647 </v>
    <v>       0.59187144       0.50000000       0.89858415 </v>
    <v>       0.59069819       0.83358130       0.39734940 </v>
    <v>       0.58995704       0.83325899       0.89766839 </v>
    <v>       0.90910663       0.00000000       0.10256947 </v>
    <v>       0.91006753       0.00000000       0.60289419 </v>
    <v>       0.90840281       0.33331519       0.10167451 </v>
    <v>       0.90829248       0.33303531       0.60257966 </v>
    <v>       0.90840281       0.66668481       0.10167451 </v>
    <v>       0.90829248       0.66696469       0.60257966 </v>
    <v>       0.15867170       0.16622943       0.15718693 </v>
    <v>       0.16063701       0.16177214       0.65109260 </v>
    <v>       0.15836638       0.50000000       0.15591951 </v>
    <v>       0.15848114       0.50000000       0.65720894 </v>
    <v>       0.15867170       0.83377057       0.15718693 </v>
    <v>       0.16063701       0.83822786       0.65109260 </v>
    <v>       0.33947802       0.00000000       0.34366464 </v>
    <v>       0.33942886       0.00000000       0.84488470 </v>
    <v>       0.34160174       0.33409353       0.34243820 </v>
    <v>       0.34051061       0.33320807       0.84318317 </v>
    <v>       0.34160174       0.66590647       0.34243820 </v>
    <v>       0.34051061       0.66679193       0.84318317 </v>
    <v>       0.09614476       0.00000000       0.40496829 </v>
    <v>       0.09037768       0.00000000       0.89806221 </v>
    <v>       0.09081835       0.33249084       0.39764382 </v>
    <v>       0.09082601       0.33280507       0.89621249 </v>
    <v>       0.09081835       0.66750916       0.39764382 </v>
    <v>       0.09082601       0.66719493       0.89621249 </v>
    <v>       0.40978837       0.16680876       0.10334954 </v>
    <v>       0.40449397       0.16478899       0.60228063 </v>
    <v>       0.40952201       0.50000000       0.10187799 </v>
    <v>       0.40865359       0.50000000       0.60254556 </v>
    <v>       0.40978837       0.83319124       0.10334954 </v>
    <v>       0.40449397       0.83521101       0.60228063 </v>
    <v>       0.99567324       0.16700696       0.12597581 </v>
    <v>       0.99566497       0.16757818       0.62871979 </v>
    <v>       0.99556315       0.50000000       0.12652768 </v>
    <v>       0.99507498       0.50000000       0.62711156 </v>
    <v>       0.99567324       0.83299304       0.12597581 </v>
    <v>       0.99566497       0.83242182       0.62871979 </v>
    <v>       0.50327520       0.00000000       0.37163412 </v>
    <v>       0.50316443       0.00000000       0.87436824 </v>
    <v>       0.50456274       0.33389494       0.37123759 </v>
    <v>       0.50427294       0.33434406       0.87474022 </v>
    <v>       0.50456274       0.66610506       0.37123759 </v>
    <v>       0.50427294       0.66565594       0.87474022 </v>
    <v>       0.67316655       0.16657785       0.28080774 </v>
    <v>       0.67143111       0.16641603       0.78034803 </v>
    <v>       0.67348184       0.50000000       0.28054487 </v>
    <v>       0.67144999       0.50000000       0.78000287 </v>
    <v>       0.67316655       0.83342215       0.28080774 </v>
    <v>       0.67143111       0.83358397       0.78034803 </v>
    <v>       0.82712962       0.00000000       0.21914110 </v>
    <v>       0.82627752       0.00000000       0.71910380 </v>
    <v>       0.82749772       0.33327089       0.21926075 </v>
    <v>       0.82587093       0.33347039       0.71926503 </v>
    <v>       0.82749772       0.66672911       0.21926075 </v>
    <v>       0.82587093       0.66652961       0.71926503 </v>
    <v>       0.83218623       0.00000000       0.44613001 </v>
    <v>       0.83129967       0.00000000       0.94586637 </v>
    <v>       0.83185586       0.33341355       0.44562244 </v>
    <v>       0.83079551       0.33360750       0.94526959 </v>
    <v>       0.83185586       0.66658645       0.44562244 </v>
    <v>       0.83079551       0.66639250       0.94526959 </v>
    <v>       0.66790252       0.16665668       0.05419153 </v>
    <v>       0.66724119       0.16662613       0.55401670 </v>
    <v>       0.66907807       0.50000000       0.05496712 </v>
    <v>       0.66686941       0.50000000       0.55451201 </v>
    <v>       0.66790252       0.83334332       0.05419153 </v>
    <v>       0.66724119       0.83337387       0.55401670 </v>
    <v>       0.49726480       0.00000000       0.12827045 </v>
    <v>       0.49494202       0.00000000       0.62680863 </v>
    <v>       0.49731889       0.33371273       0.12794509 </v>
    <v>       0.49475215       0.33186702       0.62662003 </v>
    <v>       0.49731889       0.66628727       0.12794509 </v>
    <v>       0.49475215       0.66813298       0.62662003 </v>
    <v>       0.00345559       0.16608892       0.36984827 </v>
    <v>       0.00227495       0.16674631       0.87327610 </v>
    <v>       0.00347933       0.50000000       0.37166921 </v>
    <v>       0.00300438       0.50000000       0.87253753 </v>
    <v>       0.00345559       0.83391108       0.36984827 </v>
    <v>       0.00227495       0.83325369       0.87327610 </v>
    <v>       0.17195761       0.00000000       0.27913981 </v>
    <v>       0.17424684       0.00000000       0.78576615 </v>
    <v>       0.17248580       0.33401234       0.28001687 </v>
    <v>       0.17203201       0.33319281       0.77954896 </v>
    <v>       0.17248580       0.66598766       0.28001687 </v>
    <v>       0.17203201       0.66680719       0.77954896 </v>
    <v>       0.32747392       0.16731964       0.21907147 </v>
    <v>       0.33127690       0.17051765       0.72517100 </v>
    <v>       0.32743383       0.50000000       0.21840608 </v>
    <v>       0.32796290       0.50000000       0.72015215 </v>
    <v>       0.32747392       0.83268036       0.21907147 </v>
    <v>       0.33127690       0.82948235       0.72517100 </v>
    <v>       0.33526021       0.16902043       0.44378875 </v>
    <v>       0.33281356       0.16770294       0.94788793 </v>
    <v>       0.33376563       0.50000000       0.44509096 </v>
    <v>       0.33186081       0.50000000       0.94599429 </v>
    <v>       0.33526021       0.83097957       0.44378875 </v>
    <v>       0.33281356       0.83229706       0.94788793 </v>
    <v>       0.16685668       0.00000000       0.05454774 </v>
    <v>       0.16635233       0.33318168       0.05365031 </v>
    <v>       0.16827892       0.33627962       0.55367961 </v>
    <v>       0.16635233       0.66681832       0.05365031 </v>
    <v>       0.16827892       0.66372038       0.55367961 </v>
    <v>       0.18278707       0.00000000       0.55635937 </v>
   </varray>
  </structure>
  <varray name="primitive_index" >
   <v type="int" >        1 </v>
   <v type="int" >        2 </v>
   <v type="int" >        3 </v>
   <v type="int" >        4 </v>
   <v type="int" >        5 </v>
   <v type="int" >        6 </v>
   <v type="int" >        7 </v>
   <v type="int" >        8 </v>
   <v type="int" >        9 </v>
   <v type="int" >       10 </v>
   <v type="int" >       11 </v>
   <v type="int" >       12 </v>
   <v type="int" >       13 </v>
   <v type="int" >       14 </v>
   <v type="int" >       15 </v>
   <v type="int" >       16 </v>
   <v type="int" >       17 </v>
   <v type="int" >       18 </v>
   <v type="int" >       19 </v>
   <v type="int" >       20 </v>
   <v type="int" >       21 </v>
   <v type="int" >       22 </v>
   <v type="int" >       23 </v>
   <v type="int" >       24 </v>
   <v type="int" >       25 </v>
   <v type="int" >       26 </v>
   <v type="int" >       27 </v>
   <v type="int" >       28 </v>
   <v type="int" >       29 </v>
   <v type="int" >       30 </v>
   <v type="int" >       31 </v>
   <v type="int" >       32 </v>
   <v type="int" >       33 </v>
   <v type="int" >       34 </v>
   <v type="int" >       35 </v>
   <v type="int" >       36 </v>
   <v type="int" >       37 </v>
   <v type="int" >       38 </v>
   <v type="int" >       39 </v>
   <v type="int" >       40 </v>
   <v type="int" >       41 </v>
   <v type="int" >       42 </v>
   <v type="int" >       43 </v>
   <v type="int" >       44 </v>
   <v type="int" >       45 </v>
   <v type="int" >       46 </v>
   <v type="int" >       47 </v>
   <v type="int" >       48 </v>
   <v type="int" >       49 </v>
   <v type="int" >       50 </v>
   <v type="int" >       51 </v>
   <v type="int" >       52 </v>
   <v type="int" >       53 </v>
   <v type="int" >       54 </v>
   <v type="int" >       55 </v>
   <v type="int" >       56 </v>
   <v type="int" >       57 </v>
   <v type="int" >       58 </v>
   <v type="int" >       59 </v>
   <v type="int" >       60 </v>
   <v type="int" >       61 </v>
   <v type="int" >       62 </v>
   <v type="int" >       63 </v>
   <v type="int" >       64 </v>
   <v type="int" >       65 </v>
   <v type="int" >       66 </v>
   <v type="int" >       67 </v>
   <v type="int" >       68 </v>
   <v type="int" >       69 </v>
   <v type="int" >       70 </v>
   <v type="int" >       71 </v>
   <v type="int" >       72 </v>
   <v type="int" >       73 </v>
   <v type="int" >       74 </v>
   <v type="int" >       75 </v>
   <v type="int" >       76 </v>
   <v type="int" >       77 </v>
   <v type="int" >       78 </v>
   <v type="int" >       79 </v>
   <v type="int" >       80 </v>
   <v type="int" >       81 </v>
   <v type="int" >       82 </v>
   <v type="int" >       83 </v>
   <v type="int" >       84 </v>
   <v type="int" >       85 </v>
   <v type="int" >       86 </v>
   <v type="int" >       87 </v>
   <v type="int" >       88 </v>
   <v type="int" >       89 </v>
   <v type="int" >       90 </v>
   <v type="int" >       91 </v>
   <v type="int" >       92 </v>
   <v type="int" >       93 </v>
   <v type="int" >       94 </v>
   <v type="int" >       95 </v>
   <v type="int" >       96 </v>
   <v type="int" >       97 </v>
   <v type="int" >       98 </v>
   <v type="int" >       99 </v>
   <v type="int" >      100 </v>
   <v type="int" >      101 </v>
   <v type="int" >      102 </v>
   <v type="int" >      103 </v>
   <v type="int" >      104 </v>
   <v type="int" >      105 </v>
   <v type="int" >      106 </v>
   <v type="int" >      107 </v>
   <v type="int" >      108 </v>
   <v type="int" >      109 </v>
   <v type="int" >      110 </v>
   <v type="int" >      111 </v>
   <v type="int" >      112 </v>
   <v type="int" >      113 </v>
   <v type="int" >      114 </v>
   <v type="int" >      115 </v>
   <v type="int" >      116 </v>
   <v type="int" >      117 </v>
   <v type="int" >      118 </v>
   <v type="int" >      119 </v>
   <v type="int" >      120 </v>
  </varray>
 </primitive_cell>
 <kpoints>
  <generation param="Gamma">
   <v type="int" name="divisions">       2        2        2 </v>
   <v name="usershift">      0.00000000       0.00000000       0.00000000 </v>
   <v name="genvec1">      0.50000000       0.00000000       0.00000000 </v>
   <v name="genvec2">      0.00000000       0.50000000       0.00000000 </v>
   <v name="genvec3">      0.00000000       0.00000000       0.50000000 </v>
   <v name="shift">      0.00000000       0.00000000       0.00000000 </v>
  </generation>
  <varray name="kpointlist" >
   <v>       0.00000000       0.00000000       0.00000000 </v>
   <v>       0.50000000       0.00000000       0.00000000 </v>
   <v>       0.00000000       0.50000000       0.00000000 </v>
   <v>       0.50000000       0.50000000       0.00000000 </v>
   <v>       0.00000000       0.00000000       0.50000000 </v>
   <v>       0.50000000       0.00000000       0.50000000 </v>
   <v>       0.00000000       0.50000000       0.50000000 </v>
   <v>       0.50000000       0.50000000       0.50000000 </v>
  </varray>
  <varray name="weights" >
   <v>       0.12500000 </v>
   <v>       0.12500000 </v>
   <v>       0.12500000 </v>
   <v>       0.12500000 </v>
   <v>       0.12500000 </v>
   <v>       0.12500000 </v>
   <v>       0.12500000 </v>
   <v>       0.12500000 </v>
  </varray>
 </kpoints>
 <parameters>
  <separator name="general" >
   <i type="string" name="SYSTEM">unknown system</i>
   <i type="logical" name="LCOMPAT"> F  </i>
  </separator>
  <separator name="electronic" >
   <i type="string" name="PREC">normal</i>
   <i name="ENMAX">    450.00000000</i>
   <i name="ENAUG">    627.11200000</i>
   <i name="EDIFF">      0.00001000</i>
   <i type="int" name="IALGO">    58</i>
   <i type="int" name="IWAVPR">    10</i>
   <i type="int" name="NBANDS">   633</i>
   <i type="int" name="NBANDSLOW">    -1</i>
   <i type="int" name="NBANDSHIGH">    -1</i>
   <i name="NELECT">   1056.00000000</i>
   <i type="int" name="TURBO">     0</i>
   <i type="int" name="IRESTART">     0</i>
   <i type="int" name="NREBOOT">     0</i>
   <i type="int" name="NMIN">     0</i>
   <i name="EREF">      0.00000000</i>
   <separator name="electronic smearing" >
    <i type="int" name="ISMEAR">     0</i>
    <i name="SIGMA">      0.05000000</i>
    <i name="KSPACING">      0.50000000</i>
    <i type="logical" name="KGAMMA"> T  </i>
    <i type="logical" name="KBLOWUP"> T  </i>
   </separator>
   <separator name="electronic projectors" >
    <i type="logical" name="LREAL"> T  </i>
    <v name="ROPT">     -0.00050000     -0.00050000     -0.00050000</v>
    <i type="int" name="LMAXPAW">  -100</i>
    <i type="int" name="LMAXMIX">     2</i>
    <i type="logical" name="NLSPLINE"> F  </i>
   </separator>
   <separator name="electronic startup" >
    <i type="int" name="ISTART">     0</i>
    <i type="int" name="ICHARG">     0</i>
    <i type="int" name="INIWAV">     1</i>
   </separator>
   <separator name="electronic spin" >
    <i type="int" name="ISPIN">     1</i>
    <i type="logical" name="LNONCOLLINEAR"> F  </i>
    <v name="MAGMOM">      1.00000000      1.00000000      1.00000000      1.00000000      1.00000000      1.00000000      1.00000000      1.00000000      1.00000000      1.00000000      1.00000000      1.00000000      1.00000000      1.00000000      1.00000000      1.00000000      1.00000000      1.00000000      1.00000000      1.00000000
      1.00000000      1.00000000      1.00000000      1.00000000      1.00000000      1.00000000      1.00000000      1.00000000      1.00000000      1.00000000      1.00000000      1.00000000      1.00000000      1.00000000      1.00000000      1.00000000      1.00000000      1.00000000      1.00000000      1.00000000
      1.00000000      1.00000000      1.00000000      1.00000000      1.00000000      1.00000000      1.00000000      1.00000000      1.00000000      1.00000000      1.00000000      1.00000000      1.00000000      1.00000000      1.00000000      1.00000000      1.00000000      1.00000000      1.00000000      1.00000000
      1.00000000      1.00000000      1.00000000      1.00000000      1.00000000      1.00000000      1.00000000      1.00000000      1.00000000      1.00000000      1.00000000      1.00000000      1.00000000      1.00000000      1.00000000      1.00000000      1.00000000      1.00000000      1.00000000      1.00000000
      1.00000000      1.00000000      1.00000000      1.00000000      1.00000000      1.00000000      1.00000000      1.00000000      1.00000000      1.00000000      1.00000000      1.00000000      1.00000000      1.00000000      1.00000000      1.00000000      1.00000000      1.00000000      1.00000000      1.00000000
      1.00000000      1.00000000      1.00000000      1.00000000      1.00000000      1.00000000      1.00000000      1.00000000      1.00000000      1.00000000      1.00000000      1.00000000      1.00000000      1.00000000      1.00000000      1.00000000      1.00000000      1.00000000      1.00000000      1.00000000
</v>
    <i name="NUPDOWN">     -1.00000000</i>
    <i type="logical" name="LSORBIT"> F  </i>
    <v name="SAXIS">      0.00000000      0.00000000      1.00000000</v>
    <i type="logical" name="LSPIRAL"> F  </i>
    <v name="QSPIRAL">      0.00000000      0.00000000      0.00000000</v>
    <i type="logical" name="LZEROZ"> F  </i>
   </separator>
   <separator name="electronic exchange-correlation" >
    <i type="logical" name="LASPH"> F  </i>
    <i type="logical" name="LMETAGGA"> F  </i>
   </separator>
   <separator name="electronic convergence" >
    <i type="int" name="NELM">   500</i>
    <i type="int" name="NELMDL">    -5</i>
    <i type="int" name="NELMIN">     2</i>
    <i name="ENINI">    450.00000000</i>
    <separator name="electronic convergence detail" >
     <i type="logical" name="LDIAG"> T  </i>
     <i type="logical" name="LSUBROT"> F  </i>
     <i name="WEIMIN">      0.00000000</i>
     <i name="EBREAK">      0.00000000</i>
     <i name="DEPER">      0.30000000</i>
     <i type="int" name="NRMM">     4</i>
     <i name="TIME">      0.40000000</i>
    </separator>
   </separator>
   <separator name="electronic mixer" >
    <i name="AMIX">      0.40000000</i>
    <i name="BMIX">      1.00000000</i>
    <i name="AMIN">      0.10000000</i>
    <i name="AMIX_MAG">      1.60000000</i>
    <i name="BMIX_MAG">      1.00000000</i>
    <separator name="electronic mixer details" >
     <i type="int" name="IMIX">     4</i>
     <i type="logical" name="MIXFIRST"> F  </i>
     <i type="int" name="MAXMIX">   -45</i>
     <i name="WC">    100.00000000</i>
     <i type="int" name="INIMIX">     1</i>
     <i type="int" name="MIXPRE">     1</i>
     <i type="int" name="MREMOVE">     5</i>
    </separator>
   </separator>
   <separator name="electronic dipolcorrection" >
    <i type="logical" name="LDIPOL"> F  </i>
    <i type="logical" name="LMONO"> F  </i>
    <i type="int" name="IDIPOL">     0</i>
    <i name="EPSILON">      1.00000000</i>
    <v name="DIPOL">   -100.00000000   -100.00000000   -100.00000000</v>
    <i name="EFIELD">      0.00000000</i>
   </separator>
  </separator>
  <separator name="grids" >
   <i type="int" name="NGX">    64</i>
   <i type="int" name="NGY">    48</i>
   <i type="int" name="NGZ">    60</i>
   <i type="int" name="NGXF">   128</i>
   <i type="int" name="NGYF">    96</i>
   <i type="int" name="NGZF">   120</i>
   <i type="logical" name="ADDGRID"> F  </i>
  </separator>
  <separator name="ionic" >
   <i type="int" name="NSW">     0</i>
   <i type="int" name="IBRION">    -1</i>
   <i type="int" name="MDALGO">     0</i>
   <i type="int" name="ISIF">     2</i>
   <i name="PSTRESS">      0.00000000</i>
   <i name="EDIFFG">     -0.00500000</i>
   <i type="int" name="NFREE">     0</i>
   <i name="POTIM">      0.50000000</i>
   <i name="SMASS">     -3.00000000</i>
   <i name="SCALEE">      1.00000000</i>
  </separator>
  <separator name="ionic md" >
   <i name="TEBEG">      0.00010000</i>
   <i name="TEEND">      0.00010000</i>
   <i type="int" name="NBLOCK">     1</i>
   <i type="int" name="KBLOCK">     1</i>
   <i type="int" name="NPACO">   256</i>
   <i name="APACO">     10.00000000</i>
  </separator>
  <separator name="symmetry" >
   <i type="int" name="ISYM">     3</i>
   <i name="SYMPREC">      0.00001000</i>
  </separator>
  <separator name="dos" >
   <i type="int" name="LORBIT">     0</i>
   <v name="RWIGS">     -1.00000000     -1.00000000     -1.00000000</v>
   <i type="int" name="NEDOS">   301</i>
   <i name="EMIN">     10.00000000</i>
   <i name="EMAX">    -10.00000000</i>
   <i name="EFERMI">      0.00000000</i>
  </separator>
  <separator name="writing" >
   <i type="int" name="NWRITE">     2</i>
   <i type="logical" name="LWAVE"> T  </i>
   <i type="logical" name="LDOWNSAMPLE"> F  </i>
   <i type="logical" name="LCHARG"> T  </i>
   <i type="logical" name="LPARD"> F  </i>
   <i type="logical" name="LVTOT"> F  </i>
   <i type="logical" name="LVHAR"> F  </i>
   <i type="logical" name="LELF"> F  </i>
   <i type="logical" name="LOPTICS"> F  </i>
   <v name="STM">      0.00000000      0.00000000      0.00000000      0.00000000      0.00000000      0.00000000      0.00000000</v>
  </separator>
  <separator name="performance" >
   <i type="int" name="NPAR">     1</i>
   <i type="int" name="NSIM">     4</i>
   <i type="int" name="NBLK">    -1</i>
   <i type="logical" name="LPLANE"> T  </i>
   <i type="logical" name="LSCALAPACK"> T  </i>
   <i type="logical" name="LSCAAWARE"> F  </i>
   <i type="logical" name="LSCALU"> F  </i>
   <i type="logical" name="LASYNC"> F  </i>
   <i type="logical" name="LORBITALREAL"> F  </i>
  </separator>
  <separator name="miscellaneous" >
   <i type="int" name="IDIOT">     3</i>
   <i type="int" name="PHON_NSTRUCT">    -1</i>
   <i type="logical" name="LMUSIC"> F  </i>
   <v name="POMASS">     69.72300000     16.00000000     14.00100000</v>
   <v name="DARWINR">      0.00000000      0.00000000      0.00000000</v>
   <v name="DARWINV">      1.00000000      1.00000000      1.00000000</v>
   <i type="logical" name="LCORR"> T  </i>
  </separator>
  <i type="logical" name="GGA_COMPAT"> T  </i>
  <i type="logical" name="LBERRY"> F  </i>
  <i type="int" name="ICORELEVEL">     0</i>
  <i type="logical" name="LDAU"> F  </i>
  <i type="int" name="I_CONSTRAINED_M">     0</i>
  <separator name="electronic exchange-correlation" >
   <i type="string" name="GGA">--</i>
   <i type="int" name="VOSKOWN">     0</i>
   <i type="logical" name="LHFCALC"> T  </i>
   <i type="string" name="PRECFOCK">fast</i>
   <i type="logical" name="LSYMGRAD"> F  </i>
   <i type="logical" name="LHFONE"> F  </i>
   <i type="logical" name="LRHFCALC"> F  </i>
   <i type="logical" name="LTHOMAS"> F  </i>
   <i type="logical" name="LMODELHF"> F  </i>
   <i type="logical" name="LFOCKACE"> T  </i>
   <i name="ENCUT4O">     -1.00000000</i>
   <i type="int" name="EXXOEP">     0</i>
   <i type="int" name="FOURORBIT">     0</i>
   <i name="AEXX">      0.32000000</i>
   <i name="HFALPHA">     -1.00000000</i>
   <i name="MCALPHA">      0.00000000</i>
   <i name="ALDAX">      0.68000000</i>
   <i name="AGGAX">      0.68000000</i>
   <i name="ALDAC">      1.00000000</i>
   <i name="AGGAC">      1.00000000</i>
   <i type="int" name="NKREDX">     1</i>
   <i type="int" name="NKREDY">     1</i>
   <i type="int" name="NKREDZ">     1</i>
   <i type="logical" name="SHIFTRED"> F  </i>
   <i type="logical" name="ODDONLY"> F  </i>
   <i type="logical" name="EVENONLY"> F  </i>
   <i type="int" name="LMAXFOCK">     4</i>
   <i type="int" name="NMAXFOCKAE">     1</i>
   <i type="logical" name="LFOCKAEDFT"> F  </i>
   <i name="HFSCREEN">      0.20000000</i>
   <i name="HFSCREENC">      0.20000000</i>
   <i type="int" name="NBANDSGWLOW">     1</i>
  </separator>
  <separator name="vdW DFT" >
   <i type="logical" name="LUSE_VDW"> F  </i>
   <i type="int" name="IVDW_NL">     1</i>
   <i type="logical" name="LSPIN_VDW"> F  </i>
   <i name="Zab_VDW">     -0.84910000</i>
   <i name="PARAM1">      0.12340000</i>
   <i name="PARAM2">      1.00000000</i>
   <i name="PARAM3">      0.00000000</i>
  </separator>
  <separator name="model GW" >
   <i type="int" name="MODEL_GW">     0</i>
   <i name="MODEL_EPS0">      6.34402578</i>
   <i name="MODEL_ALPHA">      1.00000000</i>
  </separator>
  <separator name="linear response parameters" >
   <i type="logical" name="LEPSILON"> F  </i>
   <i type="logical" name="LRPA"> F  </i>
   <i type="logical" name="LNABLA"> F  </i>
   <i type="logical" name="LVEL"> F  </i>
   <i name="CSHIFT">      0.10000000</i>
   <i name="OMEGAMAX">     -1.00000000</i>
   <i name="DEG_THRESHOLD">      0.00200000</i>
   <i name="RTIME">     -0.10000000</i>
   <i name="WPLASMAI">      0.00000000</i>
   <v name="DFIELD">      0.00000000      0.00000000      0.00000000</v>
   <v name="WPLASMA">      0.00000000      0.00000000      0.00000000      0.00000000      0.00000000      0.00000000      0.00000000      0.00000000      0.00000000</v>
  </separator>
  <separator name="orbital magnetization" >
   <i type="logical" name="NUCIND"> F  </i>
   <v name="MAGPOS">      0.00000000      0.00000000      0.00000000</v>
   <i type="logical" name="LNICSALL"> T  </i>
   <i type="logical" name="ORBITALMAG"> F  </i>
   <i type="logical" name="LMAGBLOCH"> F  </i>
   <i type="logical" name="LCHIMAG"> F  </i>
   <i type="logical" name="LGAUGE"> T  </i>
   <i type="int" name="MAGATOM">     0</i>
   <v name="MAGDIPOL">      0.00000000      0.00000000      0.00000000</v>
   <v name="AVECCONST">      0.00000000      0.00000000      0.00000000</v>
  </separator>
  <separator name="response functions" >
   <i type="logical" name="LALL_IN_ONE"> F  </i>
   <i type="int" name="IALL_IN_ONE">    -1</i>
   <i type="int" name="NBANDS_WAVE">    -1</i>
   <i type="logical" name="LFINITE_TEMPERATURE"> F  </i>
   <i type="logical" name="LADDER"> F  </i>
   <i type="logical" name="LRPAFORCE"> F  </i>
   <i type="logical" name="LFXC"> F  </i>
   <i type="logical" name="LHARTREE"> T  </i>
   <i type="int" name="IBSE">     0</i>
   <v type="int" name="KPOINT">    -1     0     0     0</v>
   <i type="logical" name="LTCTC"> F  </i>
   <i type="logical" name="LTCTE"> F  </i>
   <i type="logical" name="LTETE"> F  </i>
   <i type="logical" name="LTRIPLET"> F  </i>
   <i type="logical" name="LFXCEPS"> F  </i>
   <i type="logical" name="LFXHEG"> F  </i>
   <i type="int" name="NATURALO">     2</i>
   <i type="logical" name="LHOLEGF"> F  </i>
   <i type="logical" name="L2ORDER"> F  </i>
   <i type="logical" name="LDMP1"> F  </i>
   <i type="logical" name="LMP2LT"> F  </i>
   <i type="logical" name="LSMP2LT"> F  </i>
   <i type="logical" name="LGWLF"> F  </i>
   <i name="ENCUTGW">     -1.60000002</i>
   <i name="ENCUTGWSOFT">     -1.60000002</i>
   <i name="ENCUTLF">     -1.00000000</i>
   <i type="logical" name="LESF_SPLINES"> F  </i>
   <i type="int" name="LMAXMP2">    -1</i>
   <i name="SCISSOR">      0.00000000</i>
   <i type="int" name="NOMEGA">     0</i>
   <i type="int" name="NOMEGAR">     0</i>
   <i type="int" name="NBANDSGW">    -1</i>
   <i type="int" name="NBANDSO">    -1</i>
   <i type="int" name="NBANDSV">    -1</i>
   <i type="int" name="NELMGW">     1</i>
   <i type="int" name="NELMHF">     1</i>
   <i type="int" name="DIM">     3</i>
   <i type="int" name="IESPILON">     4</i>
   <i type="int" name="ANTIRES">     0</i>
   <i name="OMEGAMAX">    -30.00000000</i>
   <i name="OMEGAMIN">    -30.00000000</i>
   <i name="OMEGATL">   -200.00000000</i>
   <i type="int" name="OMEGAGRID">     0</i>
   <i name="CSHIFT">     -0.10000000</i>
   <i type="logical" name="LSELFENERGY"> F  </i>
   <i type="logical" name="LSPECTRAL"> F  </i>
   <i type="logical" name="LSPECTRALGW"> F  </i>
   <i type="logical" name="LSINGLES"> F  </i>
   <i type="logical" name="LFERMIGW"> F  </i>
   <i type="logical" name="ODDONLYGW"> F  </i>
   <i type="logical" name="EVENONLYGW"> F  </i>
   <i type="int" name="NKREDLFX">     1</i>
   <i type="int" name="NKREDLFY">     1</i>
   <i type="int" name="NKREDLFZ">     1</i>
   <i type="int" name="MAXMEM">  2800</i>
   <i type="int" name="TELESCOPE">     0</i>
   <i type="int" name="NTAUPAR">    -1</i>
   <i type="int" name="NOMEGAPAR">    -1</i>
   <i name="DAMP_NEWTON">      0.80000001</i>
   <i name="LAMBDA">      1.00000000</i>
  </separator>
  <separator name="External order field" >
   <i name="OFIELD_KAPPA">      0.00000000</i>
   <v name="OFIELD_K">      0.00000000      0.00000000      0.00000000</v>
   <i name="OFIELD_Q6_NEAR">      0.00000000</i>
   <i name="OFIELD_Q6_FAR">      0.00000000</i>
   <i name="OFIELD_A">      0.00000000</i>
  </separator>
  <separator name="optional k-points parameters" >
   <i type="int" name="KPOINTS_OPT_MODE">     1</i>
   <i type="logical" name="LKPOINTS_OPT"> F  </i>
  </separator>
 </parameters>
 <atominfo>
  <atoms>     120 </atoms>
  <types>       3 </types>
  <array name="atoms" >
   <dimension dim="1">ion</dimension>
   <field type="string">element</field>
   <field type="int">atomtype</field>
   <set>
    <rc><c>Ga</c><c>   1</c></rc>
    <rc><c>Ga</c><c>   1</c></rc>
    <rc><c>Ga</c><c>   1</c></rc>
    <rc><c>Ga</c><c>   1</c></rc>
    <rc><c>Ga</c><c>   1</c></rc>
    <rc><c>Ga</c><c>   1</c></rc>
    <rc><c>Ga</c><c>   1</c></rc>
    <rc><c>Ga</c><c>   1</c></rc>
    <rc><c>Ga</c><c>   1</c></rc>
    <rc><c>Ga</c><c>   1</c></rc>
    <rc><c>Ga</c><c>   1</c></rc>
    <rc><c>Ga</c><c>   1</c></rc>
    <rc><c>Ga</c><c>   1</c></rc>
    <rc><c>Ga</c><c>   1</c></rc>
    <rc><c>Ga</c><c>   1</c></rc>
    <rc><c>Ga</c><c>   1</c></rc>
    <rc><c>Ga</c><c>   1</c></rc>
    <rc><c>Ga</c><c>   1</c></rc>
    <rc><c>Ga</c><c>   1</c></rc>
    <rc><c>Ga</c><c>   1</c></rc>
    <rc><c>Ga</c><c>   1</c></rc>
    <rc><c>Ga</c><c>   1</c></rc>
    <rc><c>Ga</c><c>   1</c></rc>
    <rc><c>Ga</c><c>   1</c></rc>
    <rc><c>Ga</c><c>   1</c></rc>
    <rc><c>Ga</c><c>   1</c></rc>
    <rc><c>Ga</c><c>   1</c></rc>
    <rc><c>Ga</c><c>   1</c></rc>
    <rc><c>Ga</c><c>   1</c></rc>
    <rc><c>Ga</c><c>   1</c></rc>
    <rc><c>Ga</c><c>   1</c></rc>
    <rc><c>Ga</c><c>   1</c></rc>
    <rc><c>Ga</c><c>   1</c></rc>
    <rc><c>Ga</c><c>   1</c></rc>
    <rc><c>Ga</c><c>   1</c></rc>
    <rc><c>Ga</c><c>   1</c></rc>
    <rc><c>Ga</c><c>   1</c></rc>
    <rc><c>Ga</c><c>   1</c></rc>
    <rc><c>Ga</c><c>   1</c></rc>
    <rc><c>Ga</c><c>   1</c></rc>
    <rc><c>Ga</c><c>   1</c></rc>
    <rc><c>Ga</c><c>   1</c></rc>
    <rc><c>Ga</c><c>   1</c></rc>
    <rc><c>Ga</c><c>   1</c></rc>
    <rc><c>Ga</c><c>   1</c></rc>
    <rc><c>Ga</c><c>   1</c></rc>
    <rc><c>Ga</c><c>   1</c></rc>
    <rc><c>Ga</c><c>   1</c></rc>
    <rc><c>O </c><c>   2</c></rc>
    <rc><c>O </c><c>   2</c></rc>
    <rc><c>O </c><c>   2</c></rc>
    <rc><c>O </c><c>   2</c></rc>
    <rc><c>O </c><c>   2</c></rc>
    <rc><c>O </c><c>   2</c></rc>
    <rc><c>O </c><c>   2</c></rc>
    <rc><c>O </c><c>   2</c></rc>
    <rc><c>O </c><c>   2</c></rc>
    <rc><c>O </c><c>   2</c></rc>
    <rc><c>O </c><c>   2</c></rc>
    <rc><c>O </c><c>   2</c></rc>
    <rc><c>O </c><c>   2</c></rc>
    <rc><c>O </c><c>   2</c></rc>
    <rc><c>O </c><c>   2</c></rc>
    <rc><c>O </c><c>   2</c></rc>
    <rc><c>O </c><c>   2</c></rc>
    <rc><c>O </c><c>   2</c></rc>
    <rc><c>O </c><c>   2</c></rc>
    <rc><c>O </c><c>   2</c></rc>
    <rc><c>O </c><c>   2</c></rc>
    <rc><c>O </c><c>   2</c></rc>
    <rc><c>O </c><c>   2</c></rc>
    <rc><c>O </c><c>   2</c></rc>
    <rc><c>O </c><c>   2</c></rc>
    <rc><c>O </c><c>   2</c></rc>
    <rc><c>O </c><c>   2</c></rc>
    <rc><c>O </c><c>   2</c></rc>
    <rc><c>O </c><c>   2</c></rc>
    <rc><c>O </c><c>   2</c></rc>
    <rc><c>O </c><c>   2</c></rc>
    <rc><c>O </c><c>   2</c></rc>
    <rc><c>O </c><c>   2</c></rc>
    <rc><c>O </c><c>   2</c></rc>
    <rc><c>O </c><c>   2</c></rc>
    <rc><c>O </c><c>   2</c></rc>
    <rc><c>O </c><c>   2</c></rc>
    <rc><c>O </c><c>   2</c></rc>
    <rc><c>O </c><c>   2</c></rc>
    <rc><c>O </c><c>   2</c></rc>
    <rc><c>O </c><c>   2</c></rc>
    <rc><c>O </c><c>   2</c></rc>
    <rc><c>O </c><c>   2</c></rc>
    <rc><c>O </c><c>   2</c></rc>
    <rc><c>O </c><c>   2</c></rc>
    <rc><c>O </c><c>   2</c></rc>
    <rc><c>O </c><c>   2</c></rc>
    <rc><c>O </c><c>   2</c></rc>
    <rc><c>O </c><c>   2</c></rc>
    <rc><c>O </c><c>   2</c></rc>
    <rc><c>O </c><c>   2</c></rc>
    <rc><c>O </c><c>   2</c></rc>
    <rc><c>O </c><c>   2</c></rc>
    <rc><c>O </c><c>   2</c></rc>
    <rc><c>O </c><c>   2</c></rc>
    <rc><c>O </c><c>   2</c></rc>
    <rc><c>O </c><c>   2</c></rc>
    <rc><c>O </c><c>   2</c></rc>
    <rc><c>O </c><c>   2</c></rc>
    <rc><c>O </c><c>   2</c></rc>
    <rc><c>O </c><c>   2</c></rc>
    <rc><c>O </c><c>   2</c></rc>
    <rc><c>O </c><c>   2</c></rc>
    <rc><c>O </c><c>   2</c></rc>
    <rc><c>O </c><c>   2</c></rc>
    <rc><c>O </c><c>   2</c></rc>
    <rc><c>O </c><c>   2</c></rc>
    <rc><c>O </c><c>   2</c></rc>
    <rc><c>O </c><c>   2</c></rc>
    <rc><c>O </c><c>   2</c></rc>
    <rc><c>O </c><c>   2</c></rc>
    <rc><c>N </c><c>   3</c></rc>
   </set>
  </array>
  <array name="atomtypes" >
   <dimension dim="1">type</dimension>
   <field type="int">atomspertype</field>
   <field type="string">element</field>
   <field>mass</field>
   <field>valence</field>
   <field type="string">pseudopotential</field>
   <set>
    <rc><c>  48</c><c>Ga</c><c>     69.72300000</c><c>     13.00000000</c><c>  PAW_PBE Ga_d 06Jul2010                </c></rc>
    <rc><c>  71</c><c>O </c><c>     16.00000000</c><c>      6.00000000</c><c>  PAW_PBE O 08Apr2002                   </c></rc>
    <rc><c>   1</c><c>N </c><c>     14.00100000</c><c>      5.00000000</c><c>  PAW_PBE N 08Apr2002                   </c></rc>
   </set>
  </array>
 </atominfo>
 <structure name="initialpos" >
  <crystal>
   <varray name="basis" >
    <v>       0.00000000      12.28047342       0.00000000 </v>
    <v>       9.14270205       0.00000000       0.00000000 </v>
    <v>       0.00000000      -2.76826177     -11.30069772 </v>
   </varray>
   <i name="volume">   1268.80515525 </i>
   <varray name="rec_basis" >
    <v>       0.00000000       0.08143009      -0.01994742 </v>
    <v>       0.10937686      -0.00000000       0.00000000 </v>
    <v>       0.00000000       0.00000000      -0.08849011 </v>
   </varray>
  </crystal>
  <varray name="positions" >
   <v>       0.65962855       0.00000000       0.15691423 </v>
   <v>       0.65734655       0.00000000       0.65618094 </v>
   <v>       0.65973554       0.33310626       0.15705585 </v>
   <v>       0.65693530       0.33290616       0.65647045 </v>
   <v>       0.65973554       0.66689374       0.15705585 </v>
   <v>       0.65693530       0.66709384       0.65647045 </v>
   <v>       0.84241413       0.16626270       0.34380080 </v>
   <v>       0.84003712       0.16645141       0.84289620 </v>
   <v>       0.84169291       0.50000000       0.34340981 </v>
   <v>       0.84035966       0.50000000       0.84248229 </v>
   <v>       0.84241413       0.83373730       0.34380080 </v>
   <v>       0.84003712       0.83354859       0.84289620 </v>
   <v>       0.59069819       0.16641870       0.39734940 </v>
   <v>       0.58995704       0.16674101       0.89766839 </v>
   <v>       0.59200053       0.50000000       0.39749647 </v>
   <v>       0.59187144       0.50000000       0.89858415 </v>
   <v>       0.59069819       0.83358130       0.39734940 </v>
   <v>       0.58995704       0.83325899       0.89766839 </v>
   <v>       0.90910663       0.00000000       0.10256947 </v>
   <v>       0.91006753       0.00000000       0.60289419 </v>
   <v>       0.90840281       0.33331519       0.10167451 </v>
   <v>       0.90829248       0.33303531       0.60257966 </v>
   <v>       0.90840281       0.66668481       0.10167451 </v>
   <v>       0.90829248       0.66696469       0.60257966 </v>
   <v>       0.15867170       0.16622943       0.15718693 </v>
   <v>       0.16063701       0.16177214       0.65109260 </v>
   <v>       0.15836638       0.50000000       0.15591951 </v>
   <v>       0.15848114       0.50000000       0.65720894 </v>
   <v>       0.15867170       0.83377057       0.15718693 </v>
   <v>       0.16063701       0.83822786       0.65109260 </v>
   <v>       0.33947802       0.00000000       0.34366464 </v>
   <v>       0.33942886       0.00000000       0.84488470 </v>
   <v>       0.34160174       0.33409353       0.34243820 </v>
   <v>       0.34051061       0.33320807       0.84318317 </v>
   <v>       0.34160174       0.66590647       0.34243820 </v>
   <v>       0.34051061       0.66679193       0.84318317 </v>
   <v>       0.09614476       0.00000000       0.40496829 </v>
   <v>       0.09037768       0.00000000       0.89806221 </v>
   <v>       0.09081835       0.33249084       0.39764382 </v>
   <v>       0.09082601       0.33280507       0.89621249 </v>
   <v>       0.09081835       0.66750916       0.39764382 </v>
   <v>       0.09082601       0.66719493       0.89621249 </v>
   <v>       0.40978837       0.16680876       0.10334954 </v>
   <v>       0.40449397       0.16478899       0.60228063 </v>
   <v>       0.40952201       0.50000000       0.10187799 </v>
   <v>       0.40865359       0.50000000       0.60254556 </v>
   <v>       0.40978837       0.83319124       0.10334954 </v>
   <v>       0.40449397       0.83521101       0.60228063 </v>
   <v>       0.99567324       0.16700696       0.12597581 </v>
   <v>       0.99566497       0.16757818       0.62871979 </v>
   <v>       0.99556315       0.50000000       0.12652768 </v>
   <v>       0.99507498       0.50000000       0.62711156 </v>
   <v>       0.99567324       0.83299304       0.12597581 </v>
   <v>       0.99566497       0.83242182       0.62871979 </v>
   <v>       0.50327520       0.00000000       0.37163412 </v>
   <v>       0.50316443       0.00000000       0.87436824 </v>
   <v>       0.50456274       0.33389494       0.37123759 </v>
   <v>       0.50427294       0.33434406       0.87474022 </v>
   <v>       0.50456274       0.66610506       0.37123759 </v>
   <v>       0.50427294       0.66565594       0.87474022 </v>
   <v>       0.67316655       0.16657785       0.28080774 </v>
   <v>       0.67143111       0.16641603       0.78034803 </v>
   <v>       0.67348184       0.50000000       0.28054487 </v>
   <v>       0.67144999       0.50000000       0.78000287 </v>
   <v>       0.67316655       0.83342215       0.28080774 </v>
   <v>       0.67143111       0.83358397       0.78034803 </v>
   <v>       0.82712962       0.00000000       0.21914110 </v>
   <v>       0.82627752       0.00000000       0.71910380 </v>
   <v>       0.82749772       0.33327089       0.21926075 </v>
   <v>       0.82587093       0.33347039       0.71926503 </v>
   <v>       0.82749772       0.66672911       0.21926075 </v>
   <v>       0.82587093       0.66652961       0.71926503 </v>
   <v>       0.83218623       0.00000000       0.44613001 </v>
   <v>       0.83129967       0.00000000       0.94586637 </v>
   <v>       0.83185586       0.33341355       0.44562244 </v>
   <v>       0.83079551       0.33360750       0.94526959 </v>
   <v>       0.83185586       0.66658645       0.44562244 </v>
   <v>       0.83079551       0.66639250       0.94526959 </v>
   <v>       0.66790252       0.16665668       0.05419153 </v>
   <v>       0.66724119       0.16662613       0.55401670 </v>
   <v>       0.66907807       0.50000000       0.05496712 </v>
   <v>       0.66686941       0.50000000       0.55451201 </v>
   <v>       0.66790252       0.83334332       0.05419153 </v>
   <v>       0.66724119       0.83337387       0.55401670 </v>
   <v>       0.49726480       0.00000000       0.12827045 </v>
   <v>       0.49494202       0.00000000       0.62680863 </v>
   <v>       0.49731889       0.33371273       0.12794509 </v>
   <v>       0.49475215       0.33186702       0.62662003 </v>
   <v>       0.49731889       0.66628727       0.12794509 </v>
   <v>       0.49475215       0.66813298       0.62662003 </v>
   <v>       0.00345559       0.16608892       0.36984827 </v>
   <v>       0.00227495       0.16674631       0.87327610 </v>
   <v>       0.00347933       0.50000000       0.37166921 </v>
   <v>       0.00300438       0.50000000       0.87253753 </v>
   <v>       0.00345559       0.83391108       0.36984827 </v>
   <v>       0.00227495       0.83325369       0.87327610 </v>
   <v>       0.17195761       0.00000000       0.27913981 </v>
   <v>       0.17424684       0.00000000       0.78576615 </v>
   <v>       0.17248580       0.33401234       0.28001687 </v>
   <v>       0.17203201       0.33319281       0.77954896 </v>
   <v>       0.17248580       0.66598766       0.28001687 </v>
   <v>       0.17203201       0.66680719       0.77954896 </v>
   <v>       0.32747392       0.16731964       0.21907147 </v>
   <v>       0.33127690       0.17051765       0.72517100 </v>
   <v>       0.32743383       0.50000000       0.21840608 </v>
   <v>       0.32796290       0.50000000       0.72015215 </v>
   <v>       0.32747392       0.83268036       0.21907147 </v>
   <v>       0.33127690       0.82948235       0.72517100 </v>
   <v>       0.33526021       0.16902043       0.44378875 </v>
   <v>       0.33281356       0.16770294       0.94788793 </v>
   <v>       0.33376563       0.50000000       0.44509096 </v>
   <v>       0.33186081       0.50000000       0.94599429 </v>
   <v>       0.33526021       0.83097957       0.44378875 </v>
   <v>       0.33281356       0.83229706       0.94788793 </v>
   <v>       0.16685668       0.00000000       0.05454774 </v>
   <v>       0.16635233       0.33318168       0.05365031 </v>
   <v>       0.16827892       0.33627962       0.55367961 </v>
   <v>       0.16635233       0.66681832       0.05365031 </v>
   <v>       0.16827892       0.66372038       0.55367961 </v>
   <v>       0.18278707       0.00000000       0.55635937 </v>
  </varray>
 </structure>
 <calculation>
  <scstep>
   <time name="total">    4.03    4.04</time>
   <energy>
    <i name="alphaZ">   5530.94812622 </i>
    <i name="ewald"> -88785.25979335 </i>
    <i name="hartreedc">  -2114.70620153 </i>
    <i name="XCdc">   2806.62516070 </i>
    <i name="pawpsdc">  60061.79476470 </i>
    <i name="pawaedc"> -89269.53496386 </i>
    <i name="eentropy">     -0.01128760 </i>
    <i name="bandstr"> -40233.69313743 </i>
    <i name="atom"> 133733.99279260 </i>
    <i name="e_fr_energy"> -18269.84453955 </i>
    <i name="e_wo_entrp"> -18269.83325194 </i>
    <i name="e_0_energy"> -18269.83889575 </i>
   </energy>
  </scstep>
  <scstep>
   <time name="total">    3.21    3.21</time>
   <energy>
    <i name="e_fr_energy"> -62399.44875734 </i>
    <i name="e_wo_entrp"> -62399.43068274 </i>
    <i name="e_0_energy"> -62399.43972004 </i>
   </energy>
  </scstep>
  <scstep>
   <time name="total">    3.34    3.34</time>
   <energy>
    <i name="e_fr_energy"> -66925.95105174 </i>
    <i name="e_wo_entrp"> -66925.91907474 </i>
    <i name="e_0_energy"> -66925.93506324 </i>
   </energy>
  </scstep>
  <scstep>
   <time name="total">    3.69    3.69</time>
   <energy>
    <i name="e_fr_energy"> -67450.32015571 </i>
    <i name="e_wo_entrp"> -67450.27031699 </i>
    <i name="e_0_energy"> -67450.29523635 </i>
   </energy>
  </scstep>
  <scstep>
   <time name="total">  237.52  237.49</time>
   <energy>
    <i name="e_fr_energy"> -37331.00677676 </i>
    <i name="e_wo_entrp"> -37330.98518521 </i>
    <i name="e_0_energy"> -37330.99598099 </i>
   </energy>
  </scstep>
  <scstep>
   <time name="total">  472.56  472.50</time>
   <energy>
    <i name="e_fr_energy">  18319.45513092 </i>
    <i name="e_wo_entrp">  18319.47699161 </i>
    <i name="e_0_energy">  18319.46606127 </i>
   </energy>
  </scstep>
  <scstep>
   <time name="total">  472.46  472.39</time>
   <energy>
    <i name="e_fr_energy">   5166.04479736 </i>
    <i name="e_wo_entrp">   5166.06834447 </i>
    <i name="e_0_energy">   5166.05657091 </i>
   </energy>
  </scstep>
  <scstep>
   <time name="total">  473.85  473.79</time>
   <energy>
    <i name="e_fr_energy">   1128.30097989 </i>
    <i name="e_wo_entrp">   1128.35558745 </i>
    <i name="e_0_energy">   1128.32828367 </i>
   </energy>
  </scstep>
  <scstep>
   <time name="total">  472.91  472.83</time>
   <energy>
    <i name="e_fr_energy">    305.13612911 </i>
    <i name="e_wo_entrp">    305.20126560 </i>
    <i name="e_0_energy">    305.16869736 </i>
   </energy>
  </scstep>
  <scstep>
   <time name="total">  472.64  472.56</time>
   <energy>
    <i name="e_fr_energy">   -100.14218132 </i>
    <i name="e_wo_entrp">   -100.12967072 </i>
    <i name="e_0_energy">   -100.13592602 </i>
   </energy>
  </scstep>
  <scstep>
   <time name="total">  471.16  471.08</time>
   <energy>
    <i name="e_fr_energy">   -358.29736054 </i>
    <i name="e_wo_entrp">   -358.29536017 </i>
    <i name="e_0_energy">   -358.29636036 </i>
   </energy>
  </scstep>
  <scstep>
   <time name="total">  470.67  470.60</time>
   <energy>
    <i name="e_fr_energy">   -638.35418256 </i>
    <i name="e_wo_entrp">   -638.35393312 </i>
    <i name="e_0_energy">   -638.35405784 </i>
   </energy>
  </scstep>
  <scstep>
   <time name="total">  470.71  470.64</time>
   <energy>
    <i name="e_fr_energy">   -788.58064887 </i>
    <i name="e_wo_entrp">   -788.57160084 </i>
    <i name="e_0_energy">   -788.57612486 </i>
   </energy>
  </scstep>
  <scstep>
   <time name="total">  470.57  470.50</time>
   <energy>
    <i name="e_fr_energy">   -867.78897977 </i>
    <i name="e_wo_entrp">   -867.78036150 </i>
    <i name="e_0_energy">   -867.78467064 </i>
   </energy>
  </scstep>
  <scstep>
   <time name="total">  470.28  470.22</time>
   <energy>
    <i name="e_fr_energy">   -910.95436130 </i>
    <i name="e_wo_entrp">   -910.95436126 </i>
    <i name="e_0_energy">   -910.95436128 </i>
   </energy>
  </scstep>
  <scstep>
   <time name="total">  470.71  470.65</time>
   <energy>
    <i name="e_fr_energy">   -930.99891641 </i>
    <i name="e_wo_entrp">   -930.99891641 </i>
    <i name="e_0_energy">   -930.99891641 </i>
   </energy>
  </scstep>
  <scstep>
   <time name="total">  470.33  470.27</time>
   <energy>
    <i name="e_fr_energy">   -942.17587390 </i>
    <i name="e_wo_entrp">   -942.17587390 </i>
    <i name="e_0_energy">   -942.17587390 </i>
   </energy>
  </scstep>
  <scstep>
   <time name="total">  470.32  470.26</time>
   <energy>
    <i name="e_fr_energy">   -946.76695183 </i>
    <i name="e_wo_entrp">   -946.76695183 </i>
    <i name="e_0_energy">   -946.76695183 </i>
   </energy>
  </scstep>
  <scstep>
   <time name="total">  470.04  469.98</time>
   <energy>
    <i name="e_fr_energy">   -949.16914579 </i>
    <i name="e_wo_entrp">   -949.16914579 </i>
    <i name="e_0_energy">   -949.16914579 </i>
   </energy>
  </scstep>
  <scstep>
   <time name="total">  470.31  470.25</time>
   <energy>
    <i name="e_fr_energy">   -950.50395951 </i>
    <i name="e_wo_entrp">   -950.50395951 </i>
    <i name="e_0_energy">   -950.50395951 </i>
   </energy>
  </scstep>
  <scstep>
   <time name="total">  470.22  470.16</time>
   <energy>
    <i name="e_fr_energy">   -951.13051217 </i>
    <i name="e_wo_entrp">   -951.13051217 </i>
    <i name="e_0_energy">   -951.13051217 </i>
   </energy>
  </scstep>
  <scstep>
   <time name="total">  470.28  470.21</time>
   <energy>
    <i name="e_fr_energy">   -951.43731312 </i>
    <i name="e_wo_entrp">   -951.43731312 </i>
    <i name="e_0_energy">   -951.43731312 </i>
   </energy>
  </scstep>
  <scstep>
   <time name="total">  470.40  470.33</time>
   <energy>
    <i name="e_fr_energy">   -951.59579637 </i>
    <i name="e_wo_entrp">   -951.59579637 </i>
    <i name="e_0_energy">   -951.59579637 </i>
   </energy>
  </scstep>
  <scstep>
   <time name="total">  470.19  470.11</time>
   <energy>
    <i name="e_fr_energy">   -951.66831656 </i>
    <i name="e_wo_entrp">   -951.66831656 </i>
    <i name="e_0_energy">   -951.66831656 </i>
   </energy>
  </scstep>
  <scstep>
   <time name="total">  470.46  470.39</time>
   <energy>
    <i name="e_fr_energy">   -951.70564081 </i>
    <i name="e_wo_entrp">   -951.70564081 </i>
    <i name="e_0_energy">   -951.70564081 </i>
   </energy>
  </scstep>
  <scstep>
   <time name="total">  470.11  470.04</time>
   <energy>
    <i name="e_fr_energy">   -951.72446333 </i>
    <i name="e_wo_entrp">   -951.72446333 </i>
    <i name="e_0_energy">   -951.72446333 </i>
   </energy>
  </scstep>
  <scstep>
   <time name="total">  470.44  470.36</time>
   <energy>
    <i name="e_fr_energy">   -951.73365896 </i>
    <i name="e_wo_entrp">   -951.73365896 </i>
    <i name="e_0_energy">   -951.73365896 </i>
   </energy>
  </scstep>
  <scstep>
   <time name="total">  470.34  470.27</time>
   <energy>
    <i name="e_fr_energy">   -951.73834184 </i>
    <i name="e_wo_entrp">   -951.73834184 </i>
    <i name="e_0_energy">   -951.73834184 </i>
   </energy>
  </scstep>
  <scstep>
   <time name="total">  470.07  469.98</time>
   <energy>
    <i name="e_fr_energy">   -951.74077969 </i>
    <i name="e_wo_entrp">   -951.74077969 </i>
    <i name="e_0_energy">   -951.74077969 </i>
   </energy>
  </scstep>
  <scstep>
   <time name="total">  470.24  470.17</time>
   <energy>
    <i name="e_fr_energy">   -951.74198078 </i>
    <i name="e_wo_entrp">   -951.74198078 </i>
    <i name="e_0_energy">   -951.74198078 </i>
   </energy>
  </scstep>
  <scstep>
   <time name="total">  470.31  470.24</time>
   <energy>
    <i name="e_fr_energy">   -951.74259588 </i>
    <i name="e_wo_entrp">   -951.74259588 </i>
    <i name="e_0_energy">   -951.74259588 </i>
   </energy>
  </scstep>
  <scstep>
   <time name="total">  470.45  470.39</time>
   <energy>
    <i name="e_fr_energy">   -951.74292583 </i>
    <i name="e_wo_entrp">   -951.74292583 </i>
    <i name="e_0_energy">   -951.74292583 </i>
   </energy>
  </scstep>
  <scstep>
   <time name="total">  470.38  470.32</time>
   <energy>
    <i name="e_fr_energy">   -951.74308580 </i>
    <i name="e_wo_entrp">   -951.74308580 </i>
    <i name="e_0_energy">   -951.74308580 </i>
   </energy>
  </scstep>
  <scstep>
   <time name="total">  470.33  470.26</time>
   <energy>
    <i name="e_fr_energy">   -951.74316737 </i>
    <i name="e_wo_entrp">   -951.74316737 </i>
    <i name="e_0_energy">   -951.74316737 </i>
   </energy>
  </scstep>
  <scstep>
   <time name="total">  470.09  470.02</time>
   <energy>
    <i name="e_fr_energy">   -951.74321061 </i>
    <i name="e_wo_entrp">   -951.74321061 </i>
    <i name="e_0_energy">   -951.74321061 </i>
   </energy>
  </scstep>
  <scstep>
   <time name="total">  470.62  470.55</time>
   <energy>
    <i name="e_fr_energy">   -951.74323123 </i>
    <i name="e_wo_entrp">   -951.74323123 </i>
    <i name="e_0_energy">   -951.74323123 </i>
   </energy>
  </scstep>
  <scstep>
   <time name="total">  470.04  469.97</time>
   <energy>
    <i name="e_fr_energy">   -951.74324214 </i>
    <i name="e_wo_entrp">   -951.74324214 </i>
    <i name="e_0_energy">   -951.74324214 </i>
   </energy>
  </scstep>
  <scstep>
   <time name="total">  701.31  701.21</time>
   <energy>
    <i name="alphaZ">   5530.94812622 </i>
    <i name="ewald"> -88785.25979335 </i>
    <i name="hartreedc"> -33814.75465003 </i>
    <i name="XCdc">   2915.00767532 </i>
    <i name="pawpsdc"> 121527.99713667 </i>
    <i name="pawaedc">-137103.13574820 </i>
    <i name="eentropy">     -0.00000000 </i>
    <i name="bandstr">  -8845.93350167 </i>
    <i name="atom"> 133733.99279260 </i>
    <i name="e_fr_energy">   -951.74325087 </i>
    <i name="e_wo_entrp">   -951.74325087 </i>
    <i name="e_0_energy">   -951.74325087 </i>
   </energy>
  </scstep>
  <structure>
   <crystal>
    <varray name="basis" >
     <v>       0.00000000      12.28047342       0.00000000 </v>
     <v>       9.14270205       0.00000000       0.00000000 </v>
     <v>       0.00000000      -2.76826177     -11.30069772 </v>
    </varray>
    <i name="volume">   1268.80515525 </i>
    <varray name="rec_basis" >
     <v>       0.00000000       0.08143009      -0.01994742 </v>
     <v>       0.10937686      -0.00000000       0.00000000 </v>
     <v>       0.00000000       0.00000000      -0.08849011 </v>
    </varray>
   </crystal>
   <varray name="positions" >
    <v>       0.65962855       0.00000000       0.15691423 </v>
    <v>       0.65734655       0.00000000       0.65618094 </v>
    <v>       0.65973554       0.33310626       0.15705585 </v>
    <v>       0.65693530       0.33290616       0.65647045 </v>
    <v>       0.65973554       0.66689374       0.15705585 </v>
    <v>       0.65693530       0.66709384       0.65647045 </v>
    <v>       0.84241413       0.16626270       0.34380080 </v>
    <v>       0.84003712       0.16645141       0.84289620 </v>
    <v>       0.84169291       0.50000000       0.34340981 </v>
    <v>       0.84035966       0.50000000       0.84248229 </v>
    <v>       0.84241413       0.83373730       0.34380080 </v>
    <v>       0.84003712       0.83354859       0.84289620 </v>
    <v>       0.59069819       0.16641870       0.39734940 </v>
    <v>       0.58995704       0.16674101       0.89766839 </v>
    <v>       0.59200053       0.50000000       0.39749647 </v>
    <v>       0.59187144       0.50000000       0.89858415 </v>
    <v>       0.59069819       0.83358130       0.39734940 </v>
    <v>       0.58995704       0.83325899       0.89766839 </v>
    <v>       0.90910663       0.00000000       0.10256947 </v>
    <v>       0.91006753       0.00000000       0.60289419 </v>
    <v>       0.90840281       0.33331519       0.10167451 </v>
    <v>       0.90829248       0.33303531       0.60257966 </v>
    <v>       0.90840281       0.66668481       0.10167451 </v>
    <v>       0.90829248       0.66696469       0.60257966 </v>
    <v>       0.15867170       0.16622943       0.15718693 </v>
    <v>       0.16063701       0.16177214       0.65109260 </v>
    <v>       0.15836638       0.50000000       0.15591951 </v>
    <v>       0.15848114       0.50000000       0.65720894 </v>
    <v>       0.15867170       0.83377057       0.15718693 </v>
    <v>       0.16063701       0.83822786       0.65109260 </v>
    <v>       0.33947802       0.00000000       0.34366464 </v>
    <v>       0.33942886       0.00000000       0.84488470 </v>
    <v>       0.34160174       0.33409353       0.34243820 </v>
    <v>       0.34051061       0.33320807       0.84318317 </v>
    <v>       0.34160174       0.66590647       0.34243820 </v>
    <v>       0.34051061       0.66679193       0.84318317 </v>
    <v>       0.09614476       0.00000000       0.40496829 </v>
    <v>       0.09037768       0.00000000       0.89806221 </v>
    <v>       0.09081835       0.33249084       0.39764382 </v>
    <v>       0.09082601       0.33280507       0.89621249 </v>
    <v>       0.09081835       0.66750916       0.39764382 </v>
    <v>       0.09082601       0.66719493       0.89621249 </v>
    <v>       0.40978837       0.16680876       0.10334954 </v>
    <v>       0.40449397       0.16478899       0.60228063 </v>
    <v>       0.40952201       0.50000000       0.10187799 </v>
    <v>       0.40865359       0.50000000       0.60254556 </v>
    <v>       0.40978837       0.83319124       0.10334954 </v>
    <v>       0.40449397       0.83521101       0.60228063 </v>
    <v>       0.99567324       0.16700696       0.12597581 </v>
    <v>       0.99566497       0.16757818       0.62871979 </v>
    <v>       0.99556315       0.50000000       0.12652768 </v>
    <v>       0.99507498       0.50000000       0.62711156 </v>
    <v>       0.99567324       0.83299304       0.12597581 </v>
    <v>       0.99566497       0.83242182       0.62871979 </v>
    <v>       0.50327520       0.00000000       0.37163412 </v>
    <v>       0.50316443       0.00000000       0.87436824 </v>
    <v>       0.50456274       0.33389494       0.37123759 </v>
    <v>       0.50427294       0.33434406       0.87474022 </v>
    <v>       0.50456274       0.66610506       0.37123759 </v>
    <v>       0.50427294       0.66565594       0.87474022 </v>
    <v>       0.67316655       0.16657785       0.28080774 </v>
    <v>       0.67143111       0.16641603       0.78034803 </v>
    <v>       0.67348184       0.50000000       0.28054487 </v>
    <v>       0.67144999       0.50000000       0.78000287 </v>
    <v>       0.67316655       0.83342215       0.28080774 </v>
    <v>       0.67143111       0.83358397       0.78034803 </v>
    <v>       0.82712962       0.00000000       0.21914110 </v>
    <v>       0.82627752       0.00000000       0.71910380 </v>
    <v>       0.82749772       0.33327089       0.21926075 </v>
    <v>       0.82587093       0.33347039       0.71926503 </v>
    <v>       0.82749772       0.66672911       0.21926075 </v>
    <v>       0.82587093       0.66652961       0.71926503 </v>
    <v>       0.83218623       0.00000000       0.44613001 </v>
    <v>       0.83129967       0.00000000       0.94586637 </v>
    <v>       0.83185586       0.33341355       0.44562244 </v>
    <v>       0.83079551       0.33360750       0.94526959 </v>
    <v>       0.83185586       0.66658645       0.44562244 </v>
    <v>       0.83079551       0.66639250       0.94526959 </v>
    <v>       0.66790252       0.16665668       0.05419153 </v>
    <v>       0.66724119       0.16662613       0.55401670 </v>
    <v>       0.66907807       0.50000000       0.05496712 </v>
    <v>       0.66686941       0.50000000       0.55451201 </v>
    <v>       0.66790252       0.83334332       0.05419153 </v>
    <v>       0.66724119       0.83337387       0.55401670 </v>
    <v>       0.49726480       0.00000000       0.12827045 </v>
    <v>       0.49494202       0.00000000       0.62680863 </v>
    <v>       0.49731889       0.33371273       0.12794509 </v>
    <v>       0.49475215       0.33186702       0.62662003 </v>
    <v>       0.49731889       0.66628727       0.12794509 </v>
    <v>       0.49475215       0.66813298       0.62662003 </v>
    <v>       0.00345559       0.16608892       0.36984827 </v>
    <v>       0.00227495       0.16674631       0.87327610 </v>
    <v>       0.00347933       0.50000000       0.37166921 </v>
    <v>       0.00300438       0.50000000       0.87253753 </v>
    <v>       0.00345559       0.83391108       0.36984827 </v>
    <v>       0.00227495       0.83325369       0.87327610 </v>
    <v>       0.17195761       0.00000000       0.27913981 </v>
    <v>       0.17424684       0.00000000       0.78576615 </v>
    <v>       0.17248580       0.33401234       0.28001687 </v>
    <v>       0.17203201       0.33319281       0.77954896 </v>
    <v>       0.17248580       0.66598766       0.28001687 </v>
    <v>       0.17203201       0.66680719       0.77954896 </v>
    <v>       0.32747392       0.16731964       0.21907147 </v>
    <v>       0.33127690       0.17051765       0.72517100 </v>
    <v>       0.32743383       0.50000000       0.21840608 </v>
    <v>       0.32796290       0.50000000       0.72015215 </v>
    <v>       0.32747392       0.83268036       0.21907147 </v>
    <v>       0.33127690       0.82948235       0.72517100 </v>
    <v>       0.33526021       0.16902043       0.44378875 </v>
    <v>       0.33281356       0.16770294       0.94788793 </v>
    <v>       0.33376563       0.50000000       0.44509096 </v>
    <v>       0.33186081       0.50000000       0.94599429 </v>
    <v>       0.33526021       0.83097957       0.44378875 </v>
    <v>       0.33281356       0.83229706       0.94788793 </v>
    <v>       0.16685668       0.00000000       0.05454774 </v>
    <v>       0.16635233       0.33318168       0.05365031 </v>
    <v>       0.16827892       0.33627962       0.55367961 </v>
    <v>       0.16635233       0.66681832       0.05365031 </v>
    <v>       0.16827892       0.66372038       0.55367961 </v>
    <v>       0.18278707       0.00000000       0.55635937 </v>
   </varray>
  </structure>
  <varray name="forces" >
   <v>       0.00000000       0.07778730       0.00220671 </v>
   <v>       0.00000000       0.06027463       0.01098716 </v>
   <v>      -0.00139844       0.07525557       0.00281107 </v>
   <v>      -0.00616255       0.05556466       0.01276885 </v>
   <v>       0.00139844       0.07525557       0.00281107 </v>
   <v>       0.00616255       0.05556466       0.01276885 </v>
   <v>      -0.01156787      -0.03265077      -0.00860503 </v>
   <v>      -0.00342691      -0.06195692      -0.00925641 </v>
   <v>       0.00000000      -0.05770550      -0.00941685 </v>
   <v>       0.00000000      -0.06926143      -0.00236165 </v>
   <v>       0.01156787      -0.03265077      -0.00860503 </v>
   <v>       0.00342691      -0.06195692      -0.00925641 </v>
   <v>       0.00103885      -0.03065086       0.01684165 </v>
   <v>      -0.00166763      -0.03761266       0.01278059 </v>
   <v>       0.00000000      -0.03755364       0.02672956 </v>
   <v>       0.00000000      -0.04836740       0.01722327 </v>
   <v>      -0.00103885      -0.03065086       0.01684165 </v>
   <v>       0.00166763      -0.03761266       0.01278059 </v>
   <v>       0.00000000       0.03072840      -0.02406452 </v>
   <v>       0.00000000       0.04649576      -0.01830246 </v>
   <v>      -0.00513099       0.03280387      -0.01909664 </v>
   <v>      -0.01020217       0.04878515      -0.02420426 </v>
   <v>       0.00513099       0.03280387      -0.01909664 </v>
   <v>       0.01020217       0.04878515      -0.02420426 </v>
   <v>      -0.02089072       0.06209388      -0.00252656 </v>
   <v>      -0.04732239       0.09668732       0.05631504 </v>
   <v>       0.00000000       0.06321209       0.00553688 </v>
   <v>       0.00000000       0.08497606       0.02617167 </v>
   <v>       0.02089072       0.06209388      -0.00252656 </v>
   <v>       0.04732239       0.09668732       0.05631504 </v>
   <v>       0.00000000      -0.09585230      -0.03246375 </v>
   <v>       0.00000000      -0.11226024       0.02454674 </v>
   <v>      -0.02759460      -0.07442809      -0.03739181 </v>
   <v>      -0.04508905      -0.07195486       0.04430017 </v>
   <v>       0.02759460      -0.07442809      -0.03739181 </v>
   <v>       0.04508905      -0.07195486       0.04430017 </v>
   <v>       0.00000000       0.01100426       0.04783528 </v>
   <v>       0.00000000       0.02520256       0.03016593 </v>
   <v>      -0.01231568      -0.00171501       0.00429288 </v>
   <v>      -0.00547123      -0.01249942       0.01675785 </v>
   <v>       0.01231568      -0.00171501       0.00429288 </v>
   <v>       0.00547123      -0.01249942       0.01675785 </v>
   <v>       0.00341551      -0.00181727       0.00459604 </v>
   <v>       0.00607385       0.02067098      -0.01211814 </v>
   <v>       0.00000000       0.01059780      -0.01050616 </v>
   <v>       0.00000000       0.00137564      -0.00985251 </v>
   <v>      -0.00341551      -0.00181727       0.00459604 </v>
   <v>      -0.00607385       0.02067098      -0.01211814 </v>
   <v>       0.00098552      -0.18562822       0.11221754 </v>
   <v>       0.00845720      -0.24776834       0.14503432 </v>
   <v>       0.00000000      -0.18071180       0.11876530 </v>
   <v>       0.00000000      -0.19753441       0.11379619 </v>
   <v>      -0.00098552      -0.18562822       0.11221754 </v>
   <v>      -0.00845720      -0.24776834       0.14503432 </v>
   <v>       0.00000000       0.20646558      -0.12549772 </v>
   <v>       0.00000000       0.20636927      -0.11715991 </v>
   <v>       0.00142232       0.18437281      -0.12295110 </v>
   <v>      -0.00478557       0.20449930      -0.11347695 </v>
   <v>      -0.00142232       0.18437281      -0.12295110 </v>
   <v>       0.00478557       0.20449930      -0.11347695 </v>
   <v>       0.00209683      -0.04341387      -0.10231856 </v>
   <v>       0.00323963      -0.03477874      -0.10822127 </v>
   <v>       0.00000000      -0.03238688      -0.11842494 </v>
   <v>       0.00000000      -0.03951869      -0.11468081 </v>
   <v>      -0.00209683      -0.04341387      -0.10231856 </v>
   <v>      -0.00323963      -0.03477874      -0.10822127 </v>
   <v>       0.00000000       0.02295028       0.12121894 </v>
   <v>       0.00000000       0.03173159       0.08922186 </v>
   <v>       0.00490286       0.02829509       0.12041676 </v>
   <v>       0.00459883       0.04340877       0.10120730 </v>
   <v>      -0.00490286       0.02829509       0.12041676 </v>
   <v>      -0.00459883       0.04340877       0.10120730 </v>
   <v>       0.00000000       0.40719919      -0.06955398 </v>
   <v>       0.00000000       0.39335216      -0.06079333 </v>
   <v>       0.00067127       0.39979940      -0.07573649 </v>
   <v>       0.00034072       0.39828809      -0.07039770 </v>
   <v>      -0.00067127       0.39979940      -0.07573649 </v>
   <v>      -0.00034072       0.39828809      -0.07039770 </v>
   <v>       0.00345068      -0.39496867       0.06151371 </v>
   <v>      -0.00092481      -0.40196794       0.07353466 </v>
   <v>       0.00000000      -0.39937228       0.07362242 </v>
   <v>       0.00000000      -0.39692913       0.08299182 </v>
   <v>      -0.00345068      -0.39496867       0.06151371 </v>
   <v>       0.00092481      -0.40196794       0.07353466 </v>
   <v>       0.00000000      -0.15666799       0.11294845 </v>
   <v>       0.00000000      -0.18319079       0.10806092 </v>
   <v>       0.00018624      -0.15448434       0.11648518 </v>
   <v>       0.04136843      -0.13561129       0.09672603 </v>
   <v>      -0.00018624      -0.15448434       0.11648518 </v>
   <v>      -0.04136843      -0.13561129       0.09672603 </v>
   <v>       0.07837668       0.10111936      -0.14335755 </v>
   <v>       0.00487388       0.15180327      -0.10582007 </v>
   <v>       0.00000000       0.13325089      -0.11845238 </v>
   <v>       0.00000000       0.15214748      -0.09617918 </v>
   <v>      -0.07837668       0.10111936      -0.14335755 </v>
   <v>      -0.00487388       0.15180327      -0.10582007 </v>
   <v>       0.00000000       0.05527885      -0.04008943 </v>
   <v>       0.00000000      -0.04212810      -0.22634132 </v>
   <v>      -0.00144363      -0.03578051      -0.09103154 </v>
   <v>       0.05991384      -0.05677062      -0.16348817 </v>
   <v>       0.00144363      -0.03578051      -0.09103154 </v>
   <v>      -0.05991384      -0.05677062      -0.16348817 </v>
   <v>       0.00986032       0.05511649       0.12796967 </v>
   <v>       0.02606697       0.07443630       0.09995103 </v>
   <v>       0.00000000       0.05243730       0.10482736 </v>
   <v>       0.00000000       0.05360438       0.10445301 </v>
   <v>      -0.00986032       0.05511649       0.12796967 </v>
   <v>      -0.02606697       0.07443630       0.09995103 </v>
   <v>       0.00450931       0.36585812      -0.05375044 </v>
   <v>      -0.00831065       0.39879963      -0.10990639 </v>
   <v>       0.00000000       0.38818459      -0.05329681 </v>
   <v>       0.00000000       0.40562694      -0.08745046 </v>
   <v>      -0.00450931       0.36585812      -0.05375044 </v>
   <v>       0.00831065       0.39879963      -0.10990639 </v>
   <v>       0.00000000      -0.39656356       0.07256229 </v>
   <v>       0.00925217      -0.38366321       0.07075665 </v>
   <v>       0.01229165      -0.39859342       0.09189344 </v>
   <v>      -0.00925217      -0.38366321       0.07075665 </v>
   <v>      -0.01229165      -0.39859342       0.09189344 </v>
   <v>       0.00000000      -0.47213491       0.00998568 </v>
  </varray>
  <varray name="stress" >
   <v>     -36.58364734       0.00000000       0.00000000 </v>
   <v>       0.00000000     -34.11529463       2.66463399 </v>
   <v>       0.00000000       2.66463411     -26.09378985 </v>
  </varray>
  <energy>
   <i name="e_fr_energy">   -951.74325087 </i>
   <i name="e_wo_entrp">   -951.74325087 </i>
   <i name="e_0_energy">   -951.74325087 </i>
  </energy>
  <time name="totalsc">16606.3516604.02</time>
  <eigenvalues>
   <array>
    <dimension dim="1">band</dimension>
    <dimension dim="2">kpoint</dimension>
    <dimension dim="3">spin</dimension>
    <field>eigene</field>
    <field>occ</field>
    <set>
     <set comment="spin 1">
      <set comment="kpoint 1">
       <r>  -18.6770    1.0000 </r>
       <r>  -18.4092    1.0000 </r>
       <r>  -18.3286    1.0000 </r>
       <r>  -18.2103    1.0000 </r>
       <r>  -18.1213    1.0000 </r>
       <r>  -17.9863    1.0000 </r>
       <r>  -17.9839    1.0000 </r>
       <r>  -17.8992    1.0000 </r>
       <r>  -17.8309    1.0000 </r>
       <r>  -17.8114    1.0000 </r>
       <r>  -17.8048    1.0000 </r>
       <r>  -17.7286    1.0000 </r>
       <r>  -17.7252    1.0000 </r>
       <r>  -17.6999    1.0000 </r>
       <r>  -17.6932    1.0000 </r>
       <r>  -17.6440    1.0000 </r>
       <r>  -17.6327    1.0000 </r>
       <r>  -17.6116    1.0000 </r>
       <r>  -17.5456    1.0000 </r>
       <r>  -17.5177    1.0000 </r>
       <r>  -17.5099    1.0000 </r>
       <r>  -17.5059    1.0000 </r>
       <r>  -17.4994    1.0000 </r>
       <r>  -17.4834    1.0000 </r>
       <r>  -17.4630    1.0000 </r>
       <r>  -17.4382    1.0000 </r>
       <r>  -17.3870    1.0000 </r>
       <r>  -17.3799    1.0000 </r>
       <r>  -17.3739    1.0000 </r>
       <r>  -17.3422    1.0000 </r>
       <r>  -17.3293    1.0000 </r>
       <r>  -17.3259    1.0000 </r>
       <r>  -17.2949    1.0000 </r>
       <r>  -17.2818    1.0000 </r>
       <r>  -17.2577    1.0000 </r>
       <r>  -17.2530    1.0000 </r>
       <r>  -17.2417    1.0000 </r>
       <r>  -17.2224    1.0000 </r>
       <r>  -17.2139    1.0000 </r>
       <r>  -17.2065    1.0000 </r>
       <r>  -17.2030    1.0000 </r>
       <r>  -17.1857    1.0000 </r>
       <r>  -17.1682    1.0000 </r>
       <r>  -17.1510    1.0000 </r>
       <r>  -17.1146    1.0000 </r>
       <r>  -17.0842    1.0000 </r>
       <r>  -17.0750    1.0000 </r>
       <r>  -17.0748    1.0000 </r>
       <r>  -17.0560    1.0000 </r>
       <r>  -17.0228    1.0000 </r>
       <r>  -17.0201    1.0000 </r>
       <r>  -16.9801    1.0000 </r>
       <r>  -16.9746    1.0000 </r>
       <r>  -16.9532    1.0000 </r>
       <r>  -16.9525    1.0000 </r>
       <r>  -16.9471    1.0000 </r>
       <r>  -16.9444    1.0000 </r>
       <r>  -16.9378    1.0000 </r>
       <r>  -16.9352    1.0000 </r>
       <r>  -16.9305    1.0000 </r>
       <r>  -16.9114    1.0000 </r>
       <r>  -16.9087    1.0000 </r>
       <r>  -16.8873    1.0000 </r>
       <r>  -16.8871    1.0000 </r>
       <r>  -16.8605    1.0000 </r>
       <r>  -16.8395    1.0000 </r>
       <r>  -16.8371    1.0000 </r>
       <r>  -16.8254    1.0000 </r>
       <r>  -16.7671    1.0000 </r>
       <r>  -16.7644    1.0000 </r>
       <r>  -16.7190    1.0000 </r>
       <r>  -13.1201    1.0000 </r>
       <r>  -13.0762    1.0000 </r>
       <r>  -13.0738    1.0000 </r>
       <r>  -13.0653    1.0000 </r>
       <r>  -13.0631    1.0000 </r>
       <r>  -13.0443    1.0000 </r>
       <r>  -13.0439    1.0000 </r>
       <r>  -13.0394    1.0000 </r>
       <r>  -13.0228    1.0000 </r>
       <r>  -13.0011    1.0000 </r>
       <r>  -12.9970    1.0000 </r>
       <r>  -12.9940    1.0000 </r>
       <r>  -12.9921    1.0000 </r>
       <r>  -12.9853    1.0000 </r>
       <r>  -12.9836    1.0000 </r>
       <r>  -12.9832    1.0000 </r>
       <r>  -12.9804    1.0000 </r>
       <r>  -12.9749    1.0000 </r>
       <r>  -12.9742    1.0000 </r>
       <r>  -12.9715    1.0000 </r>
       <r>  -12.9663    1.0000 </r>
       <r>  -12.9645    1.0000 </r>
       <r>  -12.9616    1.0000 </r>
       <r>  -12.9595    1.0000 </r>
       <r>  -12.9587    1.0000 </r>
       <r>  -12.9534    1.0000 </r>
       <r>  -12.9500    1.0000 </r>
       <r>  -12.9494    1.0000 </r>
       <r>  -12.9427    1.0000 </r>
       <r>  -12.9424    1.0000 </r>
       <r>  -12.9394    1.0000 </r>
       <r>  -12.9372    1.0000 </r>
       <r>  -12.9334    1.0000 </r>
       <r>  -12.9274    1.0000 </r>
       <r>  -12.9259    1.0000 </r>
       <r>  -12.9248    1.0000 </r>
       <r>  -12.9231    1.0000 </r>
       <r>  -12.9187    1.0000 </r>
       <r>  -12.9184    1.0000 </r>
       <r>  -12.9132    1.0000 </r>
       <r>  -12.9110    1.0000 </r>
       <r>  -12.9068    1.0000 </r>
       <r>  -12.9063    1.0000 </r>
       <r>  -12.8979    1.0000 </r>
       <r>  -12.8946    1.0000 </r>
       <r>  -12.8907    1.0000 </r>
       <r>  -12.8906    1.0000 </r>
       <r>  -12.8893    1.0000 </r>
       <r>  -12.8859    1.0000 </r>
       <r>  -12.8789    1.0000 </r>
       <r>  -12.8787    1.0000 </r>
       <r>  -12.8738    1.0000 </r>
       <r>  -12.8723    1.0000 </r>
       <r>  -12.8655    1.0000 </r>
       <r>  -12.8639    1.0000 </r>
       <r>  -12.8617    1.0000 </r>
       <r>  -12.8488    1.0000 </r>
       <r>  -12.8447    1.0000 </r>
       <r>  -12.8429    1.0000 </r>
       <r>  -12.8408    1.0000 </r>
       <r>  -12.8386    1.0000 </r>
       <r>  -12.8353    1.0000 </r>
       <r>  -12.8322    1.0000 </r>
       <r>  -12.8321    1.0000 </r>
       <r>  -12.8257    1.0000 </r>
       <r>  -12.8243    1.0000 </r>
       <r>  -12.8205    1.0000 </r>
       <r>  -12.8174    1.0000 </r>
       <r>  -12.8130    1.0000 </r>
       <r>  -12.8128    1.0000 </r>
       <r>  -12.8113    1.0000 </r>
       <r>  -12.8092    1.0000 </r>
       <r>  -12.8077    1.0000 </r>
       <r>  -12.8042    1.0000 </r>
       <r>  -12.7980    1.0000 </r>
       <r>  -12.7948    1.0000 </r>
       <r>  -12.7935    1.0000 </r>
       <r>  -12.7912    1.0000 </r>
       <r>  -12.7861    1.0000 </r>
       <r>  -12.7857    1.0000 </r>
       <r>  -12.7841    1.0000 </r>
       <r>  -12.7827    1.0000 </r>
       <r>  -12.7808    1.0000 </r>
       <r>  -12.7802    1.0000 </r>
       <r>  -12.7765    1.0000 </r>
       <r>  -12.7745    1.0000 </r>
       <r>  -12.7738    1.0000 </r>
       <r>  -12.7703    1.0000 </r>
       <r>  -12.7674    1.0000 </r>
       <r>  -12.7611    1.0000 </r>
       <r>  -12.7602    1.0000 </r>
       <r>  -12.7598    1.0000 </r>
       <r>  -12.7548    1.0000 </r>
       <r>  -12.7514    1.0000 </r>
       <r>  -12.7498    1.0000 </r>
       <r>  -12.7431    1.0000 </r>
       <r>  -12.7424    1.0000 </r>
       <r>  -12.7351    1.0000 </r>
       <r>  -12.7343    1.0000 </r>
       <r>  -12.7306    1.0000 </r>
       <r>  -12.7293    1.0000 </r>
       <r>  -12.7267    1.0000 </r>
       <r>  -12.7261    1.0000 </r>
       <r>  -12.7188    1.0000 </r>
       <r>  -12.7186    1.0000 </r>
       <r>  -12.7153    1.0000 </r>
       <r>  -12.7140    1.0000 </r>
       <r>  -12.7125    1.0000 </r>
       <r>  -12.7113    1.0000 </r>
       <r>  -12.7097    1.0000 </r>
       <r>  -12.7039    1.0000 </r>
       <r>  -12.7027    1.0000 </r>
       <r>  -12.7010    1.0000 </r>
       <r>  -12.6988    1.0000 </r>
       <r>  -12.6966    1.0000 </r>
       <r>  -12.6939    1.0000 </r>
       <r>  -12.6902    1.0000 </r>
       <r>  -12.6864    1.0000 </r>
       <r>  -12.6856    1.0000 </r>
       <r>  -12.6849    1.0000 </r>
       <r>  -12.6831    1.0000 </r>
       <r>  -12.6763    1.0000 </r>
       <r>  -12.6758    1.0000 </r>
       <r>  -12.6728    1.0000 </r>
       <r>  -12.6697    1.0000 </r>
       <r>  -12.6671    1.0000 </r>
       <r>  -12.6657    1.0000 </r>
       <r>  -12.6642    1.0000 </r>
       <r>  -12.6632    1.0000 </r>
       <r>  -12.6621    1.0000 </r>
       <r>  -12.6580    1.0000 </r>
       <r>  -12.6554    1.0000 </r>
       <r>  -12.6531    1.0000 </r>
       <r>  -12.6493    1.0000 </r>
       <r>  -12.6478    1.0000 </r>
       <r>  -12.6472    1.0000 </r>
       <r>  -12.6442    1.0000 </r>
       <r>  -12.6423    1.0000 </r>
       <r>  -12.6381    1.0000 </r>
       <r>  -12.6343    1.0000 </r>
       <r>  -12.6299    1.0000 </r>
       <r>  -12.6277    1.0000 </r>
       <r>  -12.6267    1.0000 </r>
       <r>  -12.6256    1.0000 </r>
       <r>  -12.6230    1.0000 </r>
       <r>  -12.6187    1.0000 </r>
       <r>  -12.6175    1.0000 </r>
       <r>  -12.6141    1.0000 </r>
       <r>  -12.6139    1.0000 </r>
       <r>  -12.6057    1.0000 </r>
       <r>  -12.6046    1.0000 </r>
       <r>  -12.6004    1.0000 </r>
       <r>  -12.5989    1.0000 </r>
       <r>  -12.5964    1.0000 </r>
       <r>  -12.5952    1.0000 </r>
       <r>  -12.5947    1.0000 </r>
       <r>  -12.5910    1.0000 </r>
       <r>  -12.5876    1.0000 </r>
       <r>  -12.5816    1.0000 </r>
       <r>  -12.5783    1.0000 </r>
       <r>  -12.5770    1.0000 </r>
       <r>  -12.5718    1.0000 </r>
       <r>  -12.5689    1.0000 </r>
       <r>  -12.5673    1.0000 </r>
       <r>  -12.5649    1.0000 </r>
       <r>  -12.5619    1.0000 </r>
       <r>  -12.5527    1.0000 </r>
       <r>  -12.5495    1.0000 </r>
       <r>  -12.5449    1.0000 </r>
       <r>  -12.5422    1.0000 </r>
       <r>  -12.5338    1.0000 </r>
       <r>  -12.5284    1.0000 </r>
       <r>  -12.5222    1.0000 </r>
       <r>  -12.5178    1.0000 </r>
       <r>  -12.5115    1.0000 </r>
       <r>  -12.5058    1.0000 </r>
       <r>  -12.4933    1.0000 </r>
       <r>  -12.4890    1.0000 </r>
       <r>  -12.4885    1.0000 </r>
       <r>  -12.4827    1.0000 </r>
       <r>  -12.4744    1.0000 </r>
       <r>  -12.4703    1.0000 </r>
       <r>  -12.4662    1.0000 </r>
       <r>  -12.4633    1.0000 </r>
       <r>  -12.4420    1.0000 </r>
       <r>  -12.4338    1.0000 </r>
       <r>  -12.4155    1.0000 </r>
       <r>  -12.4093    1.0000 </r>
       <r>  -12.4073    1.0000 </r>
       <r>  -12.3970    1.0000 </r>
       <r>  -12.3827    1.0000 </r>
       <r>  -12.3731    1.0000 </r>
       <r>  -12.3605    1.0000 </r>
       <r>  -12.3523    1.0000 </r>
       <r>  -12.3230    1.0000 </r>
       <r>  -12.2721    1.0000 </r>
       <r>  -12.2709    1.0000 </r>
       <r>  -12.2646    1.0000 </r>
       <r>  -12.2361    1.0000 </r>
       <r>  -12.2171    1.0000 </r>
[...]
       <r>   -12.0335   176.5773   574.6500 </r>
       <r>   -11.8961   124.9492   591.8138 </r>
       <r>   -11.7588   118.6288   608.1093 </r>
       <r>   -11.6214    72.7043   618.0964 </r>
       <r>   -11.4840    27.9751   621.9392 </r>
       <r>   -11.3467     0.4423   622.0000 </r>
       <r>   -11.2093     0.0000   622.0000 </r>
       <r>   -11.0719     0.0000   622.0000 </r>
       <r>   -10.9346     0.0000   622.0000 </r>
       <r>   -10.7972     0.0000   622.0000 </r>
       <r>   -10.6598     0.0000   622.0000 </r>
       <r>   -10.5225     0.0000   622.0000 </r>
       <r>   -10.3851     0.0000   622.0000 </r>
       <r>   -10.2477     0.0000   622.0000 </r>
       <r>   -10.1104     0.0000   622.0000 </r>
       <r>    -9.9730     0.0000   622.0000 </r>
       <r>    -9.8356     0.0000   622.0000 </r>
       <r>    -9.6983     0.0000   622.0000 </r>
       <r>    -9.5609     2.4349   622.3345 </r>
       <r>    -9.4235    12.0970   623.9962 </r>
       <r>    -9.2862     0.0278   624.0000 </r>
       <r>    -9.1488     0.0000   624.0000 </r>
       <r>    -9.0114     0.0000   624.0000 </r>
       <r>    -8.8741     0.0000   624.0000 </r>
       <r>    -8.7367     0.0000   624.0000 </r>
       <r>    -8.5993     0.0000   624.0000 </r>
       <r>    -8.4620     0.0000   624.0000 </r>
       <r>    -8.3246     0.0000   624.0000 </r>
       <r>    -8.1872     0.0000   624.0000 </r>
       <r>    -8.0499     0.0000   624.0000 </r>
       <r>    -7.9125     0.0000   624.0000 </r>
       <r>    -7.7751     0.0000   624.0000 </r>
       <r>    -7.6378     0.0000   624.0000 </r>
       <r>    -7.5004     0.0000   624.0000 </r>
       <r>    -7.3630     0.0000   624.0000 </r>
       <r>    -7.2257     0.0000   624.0000 </r>
       <r>    -7.0883     0.0000   624.0000 </r>
       <r>    -6.9510     0.0000   624.0000 </r>
       <r>    -6.8136     0.0000   624.0000 </r>
       <r>    -6.6762     0.0000   624.0000 </r>
       <r>    -6.5389     0.0000   624.0000 </r>
       <r>    -6.4015     0.0000   624.0000 </r>
       <r>    -6.2641     0.0000   624.0000 </r>
       <r>    -6.1268     0.0000   624.0000 </r>
       <r>    -5.9894     0.0000   624.0000 </r>
       <r>    -5.8520     0.0000   624.0000 </r>
       <r>    -5.7147     0.0000   624.0000 </r>
       <r>    -5.5773     0.0000   624.0000 </r>
       <r>    -5.4399     0.0000   624.0000 </r>
       <r>    -5.3026     0.0003   624.0000 </r>
       <r>    -5.1652     1.9975   624.2744 </r>
       <r>    -5.0278     7.3489   625.2839 </r>
       <r>    -4.8905    18.0871   627.7685 </r>
       <r>    -4.7531    27.0284   631.4812 </r>
       <r>    -4.6157    32.3334   635.9228 </r>
       <r>    -4.4784    32.4436   640.3794 </r>
       <r>    -4.3410    44.5962   646.5054 </r>
       <r>    -4.2036    47.4120   653.0182 </r>
       <r>    -4.0663    57.3669   660.8984 </r>
       <r>    -3.9289    45.7679   667.1854 </r>
       <r>    -3.7915    40.2655   672.7165 </r>
       <r>    -3.6542    54.7098   680.2318 </r>
       <r>    -3.5168    31.7070   684.5872 </r>
       <r>    -3.3794    35.6398   689.4829 </r>
       <r>    -3.2421    25.9794   693.0516 </r>
       <r>    -3.1047    34.7320   697.8226 </r>
       <r>    -2.9673    39.9709   703.3132 </r>
       <r>    -2.8300    39.6729   708.7629 </r>
       <r>    -2.6926    31.3698   713.0720 </r>
       <r>    -2.5552    30.1141   717.2087 </r>
       <r>    -2.4179    43.4268   723.1741 </r>
       <r>    -2.2805    33.2888   727.7468 </r>
       <r>    -2.1431    54.3965   735.2190 </r>
       <r>    -2.0058    33.2595   739.7877 </r>
       <r>    -1.8684    39.8985   745.2684 </r>
       <r>    -1.7311    70.4064   754.9399 </r>
       <r>    -1.5937    72.9503   764.9607 </r>
       <r>    -1.4563    51.8409   772.0819 </r>
       <r>    -1.3190    64.5510   780.9490 </r>
       <r>    -1.1816    67.0796   790.1634 </r>
       <r>    -1.0442    46.1859   796.5078 </r>
       <r>    -0.9069    51.9856   803.6488 </r>
       <r>    -0.7695    76.6640   814.1798 </r>
       <r>    -0.6321    62.6552   822.7865 </r>
       <r>    -0.4948    81.2364   833.9456 </r>
       <r>    -0.3574    63.0872   842.6117 </r>
       <r>    -0.2200    61.4451   851.0521 </r>
       <r>    -0.0827    69.8866   860.6521 </r>
       <r>     0.0547    78.3591   871.4160 </r>
       <r>     0.1921    81.6462   882.6314 </r>
       <r>     0.3294    70.1472   892.2672 </r>
       <r>     0.4668    64.3155   901.1020 </r>
       <r>     0.6042    78.1816   911.8415 </r>
       <r>     0.7415    94.6804   924.8473 </r>
       <r>     0.8789    92.4919   937.5525 </r>
       <r>     1.0163    86.7033   949.4626 </r>
       <r>     1.1536    91.0899   961.9753 </r>
       <r>     1.2910   127.7771   979.5275 </r>
       <r>     1.4284   119.7766   995.9807 </r>
       <r>     1.5657   127.3360  1013.4723 </r>
       <r>     1.7031   109.3872  1028.4983 </r>
       <r>     1.8405    63.1804  1037.1772 </r>
       <r>     1.9778    55.7859  1044.8402 </r>
       <r>     2.1152    37.0008  1049.9229 </r>
       <r>     2.2526     0.5614  1050.0000 </r>
       <r>     2.3899     0.0060  1050.0008 </r>
       <r>     2.5273     4.3307  1050.5957 </r>
       <r>     2.6647     8.0151  1051.6967 </r>
       <r>     2.8020     9.2221  1052.9635 </r>
       <r>     2.9394     2.9118  1053.3635 </r>
       <r>     3.0768     4.6320  1053.9998 </r>
       <r>     3.2141     0.0016  1054.0000 </r>
       <r>     3.3515     0.0000  1054.0000 </r>
       <r>     3.4889     0.0000  1054.0000 </r>
       <r>     3.6262     0.0000  1054.0000 </r>
       <r>     3.7636     0.4781  1054.0657 </r>
       <r>     3.9009    13.6115  1055.9354 </r>
       <r>     4.0383     0.4701  1056.0000 </r>
       <r>     4.1757     0.0000  1056.0000 </r>
       <r>     4.3130     0.0000  1056.0000 </r>
       <r>     4.4504     0.0000  1056.0000 </r>
       <r>     4.5878     0.0000  1056.0000 </r>
       <r>     4.7251     0.0000  1056.0000 </r>
       <r>     4.8625     0.0000  1056.0000 </r>
       <r>     4.9999     0.0000  1056.0000 </r>
       <r>     5.1372     0.0000  1056.0000 </r>
       <r>     5.2746     0.0000  1056.0000 </r>
       <r>     5.4120     0.0000  1056.0000 </r>
       <r>     5.5493     0.0000  1056.0000 </r>
       <r>     5.6867     0.0000  1056.0000 </r>
       <r>     5.8241     0.0000  1056.0000 </r>
       <r>     5.9614     0.0000  1056.0000 </r>
       <r>     6.0988     0.0000  1056.0000 </r>
       <r>     6.2362     0.0000  1056.0000 </r>
       <r>     6.3735     0.0000  1056.0000 </r>
       <r>     6.5109     0.0000  1056.0000 </r>
       <r>     6.6483     0.0003  1056.0000 </r>
       <r>     6.7856     1.0981  1056.1509 </r>
       <r>     6.9230     0.7215  1056.2500 </r>
       <r>     7.0604     0.0000  1056.2500 </r>
       <r>     7.1977     0.0000  1056.2500 </r>
       <r>     7.3351     0.0000  1056.2500 </r>
       <r>     7.4725     0.0065  1056.2509 </r>
       <r>     7.6098     2.0271  1056.5293 </r>
       <r>     7.7472     5.0674  1057.2254 </r>
       <r>     7.8846     0.2027  1057.2533 </r>
       <r>     8.0219     3.4897  1057.7326 </r>
       <r>     8.1593     3.7205  1058.2437 </r>
       <r>     8.2967     0.0458  1058.2500 </r>
       <r>     8.4340     0.4012  1058.3051 </r>
       <r>     8.5714     7.4650  1059.3305 </r>
       <r>     8.7088     5.8256  1060.1308 </r>
       <r>     8.8461     4.9710  1060.8136 </r>
       <r>     8.9835     6.2129  1061.6671 </r>
       <r>     9.1208     2.6989  1062.0378 </r>
       <r>     9.2582     5.8155  1062.8367 </r>
       <r>     9.3956    12.4167  1064.5423 </r>
       <r>     9.5329     3.2906  1064.9943 </r>
       <r>     9.6703     2.4044  1065.3246 </r>
       <r>     9.8077    11.1163  1066.8516 </r>
       <r>     9.9450    15.9115  1069.0373 </r>
       <r>    10.0824    10.7980  1070.5206 </r>
       <r>    10.2198     6.4707  1071.4094 </r>
       <r>    10.3571    19.4616  1074.0828 </r>
       <r>    10.4945    27.5768  1077.8709 </r>
       <r>    10.6319    35.1806  1082.7035 </r>
       <r>    10.7692    42.8189  1088.5854 </r>
       <r>    10.9066    47.0325  1095.0460 </r>
       <r>    11.0440    28.3277  1098.9373 </r>
       <r>    11.1813    20.5402  1101.7588 </r>
       <r>    11.3187    33.6093  1106.3756 </r>
       <r>    11.4561    29.5064  1110.4288 </r>
       <r>    11.5934    33.9849  1115.0971 </r>
       <r>    11.7308    41.7415  1120.8310 </r>
       <r>    11.8682    35.2461  1125.6726 </r>
       <r>    12.0055    33.7313  1130.3061 </r>
       <r>    12.1429    21.5406  1133.2651 </r>
       <r>    12.2803    31.8387  1137.6386 </r>
       <r>    12.4176    39.6058  1143.0791 </r>
       <r>    12.5550    48.2040  1149.7007 </r>
       <r>    12.6924    47.1543  1156.1781 </r>
       <r>    12.8297    21.6763  1159.1557 </r>
       <r>    12.9671    11.3520  1160.7150 </r>
       <r>    13.1045     9.3058  1161.9933 </r>
       <r>    13.2418    25.5516  1165.5033 </r>
       <r>    13.3792    18.8165  1168.0880 </r>
       <r>    13.5166    18.0492  1170.5673 </r>
       <r>    13.6539    24.6187  1173.9491 </r>
       <r>    13.7913    20.8738  1176.8165 </r>
       <r>    13.9287    29.5696  1180.8783 </r>
       <r>    14.0660    33.0177  1185.4138 </r>
       <r>    14.2034    27.0130  1189.1245 </r>
       <r>    14.3408    22.5771  1192.2258 </r>
       <r>    14.4781    15.4372  1194.3463 </r>
       <r>    14.6155    14.0911  1196.2820 </r>
       <r>    14.7528    20.5958  1199.1111 </r>
       <r>    14.8902    24.2054  1202.4361 </r>
       <r>    15.0276    20.9240  1205.3104 </r>
       <r>    15.1649    24.1497  1208.6277 </r>
       <r>    15.3023    25.4549  1212.1244 </r>
       <r>    15.4397    20.2021  1214.8994 </r>
       <r>    15.5770    32.9933  1219.4316 </r>
       <r>    15.7144    30.7882  1223.6608 </r>
       <r>    15.8518    25.5732  1227.1737 </r>
       <r>    15.9891    20.4303  1229.9802 </r>
       <r>    16.1265    25.0013  1233.4145 </r>
       <r>    16.2639    23.5284  1236.6465 </r>
       <r>    16.4012    23.1923  1239.8323 </r>
       <r>    16.5386    20.5070  1242.6493 </r>
       <r>    16.6760    18.1111  1245.1371 </r>
       <r>    16.8133    17.8964  1247.5955 </r>
       <r>    16.9507    25.2564  1251.0648 </r>
       <r>    17.0881    16.2066  1253.2911 </r>
       <r>    17.2254    19.7607  1256.0055 </r>
       <r>    17.3628    15.8178  1258.1783 </r>
       <r>    17.5002    12.2221  1259.8572 </r>
       <r>    17.6375     8.6755  1261.0490 </r>
       <r>    17.7749     7.5292  1262.0832 </r>
       <r>    17.9123     6.0304  1262.9116 </r>
       <r>    18.0496     3.1380  1263.3426 </r>
       <r>    18.1870     3.6518  1263.8443 </r>
       <r>    18.3244     3.7418  1264.3583 </r>
       <r>    18.4617     4.4719  1264.9726 </r>
       <r>    18.5991     3.7082  1265.4819 </r>
       <r>    18.7365     0.9700  1265.6152 </r>
       <r>    18.8738     2.7888  1265.9983 </r>
       <r>    19.0112     0.0125  1266.0000 </r>
       <r>    19.1486     0.0000  1266.0000 </r>
       <r>    19.2859     0.0000  1266.0000 </r>
       <r>    19.4233     0.0000  1266.0000 </r>
       <r>    19.5607     0.0000  1266.0000 </r>
       <r>    19.6980     0.0000  1266.0000 </r>
       <r>    19.8354     0.0000  1266.0000 </r>
       <r>    19.9727     0.0000  1266.0000 </r>
       <r>    20.1101     0.0000  1266.0000 </r>
       <r>    20.2475     0.0000  1266.0000 </r>
       <r>    20.3848     0.0000  1266.0000 </r>
       <r>    20.5222     0.0000  1266.0000 </r>
       <r>    20.6596     0.0000  1266.0000 </r>
      </set>
     </set>
    </array>
   </total>
  </dos>
 </calculation>
 <structure name="finalpos" >
  <crystal>
   <varray name="basis" >
    <v>       0.00000000      12.28047342       0.00000000 </v>
    <v>       9.14270205       0.00000000       0.00000000 </v>
    <v>       0.00000000      -2.76826177     -11.30069772 </v>
   </varray>
   <i name="volume">   1268.80515525 </i>
   <varray name="rec_basis" >
    <v>       0.00000000       0.08143009      -0.01994742 </v>
    <v>       0.10937686      -0.00000000       0.00000000 </v>
    <v>       0.00000000       0.00000000      -0.08849011 </v>
   </varray>
  </crystal>
  <varray name="positions" >
   <v>       0.65962855       0.00000000       0.15691423 </v>
   <v>       0.65734655       0.00000000       0.65618094 </v>
   <v>       0.65973554       0.33310626       0.15705585 </v>
   <v>       0.65693530       0.33290616       0.65647045 </v>
   <v>       0.65973554       0.66689374       0.15705585 </v>
   <v>       0.65693530       0.66709384       0.65647045 </v>
   <v>       0.84241413       0.16626270       0.34380080 </v>
   <v>       0.84003712       0.16645141       0.84289620 </v>
   <v>       0.84169291       0.50000000       0.34340981 </v>
   <v>       0.84035966       0.50000000       0.84248229 </v>
   <v>       0.84241413       0.83373730       0.34380080 </v>
   <v>       0.84003712       0.83354859       0.84289620 </v>
   <v>       0.59069819       0.16641870       0.39734940 </v>
   <v>       0.58995704       0.16674101       0.89766839 </v>
   <v>       0.59200053       0.50000000       0.39749647 </v>
   <v>       0.59187144       0.50000000       0.89858415 </v>
   <v>       0.59069819       0.83358130       0.39734940 </v>
   <v>       0.58995704       0.83325899       0.89766839 </v>
   <v>       0.90910663       0.00000000       0.10256947 </v>
   <v>       0.91006753       0.00000000       0.60289419 </v>
   <v>       0.90840281       0.33331519       0.10167451 </v>
   <v>       0.90829248       0.33303531       0.60257966 </v>
   <v>       0.90840281       0.66668481       0.10167451 </v>
   <v>       0.90829248       0.66696469       0.60257966 </v>
   <v>       0.15867170       0.16622943       0.15718693 </v>
   <v>       0.16063701       0.16177214       0.65109260 </v>
   <v>       0.15836638       0.50000000       0.15591951 </v>
   <v>       0.15848114       0.50000000       0.65720894 </v>
   <v>       0.15867170       0.83377057       0.15718693 </v>
   <v>       0.16063701       0.83822786       0.65109260 </v>
   <v>       0.33947802       0.00000000       0.34366464 </v>
   <v>       0.33942886       0.00000000       0.84488470 </v>
   <v>       0.34160174       0.33409353       0.34243820 </v>
   <v>       0.34051061       0.33320807       0.84318317 </v>
   <v>       0.34160174       0.66590647       0.34243820 </v>
   <v>       0.34051061       0.66679193       0.84318317 </v>
   <v>       0.09614476       0.00000000       0.40496829 </v>
   <v>       0.09037768       0.00000000       0.89806221 </v>
   <v>       0.09081835       0.33249084       0.39764382 </v>
   <v>       0.09082601       0.33280507       0.89621249 </v>
   <v>       0.09081835       0.66750916       0.39764382 </v>
   <v>       0.09082601       0.66719493       0.89621249 </v>
   <v>       0.40978837       0.16680876       0.10334954 </v>
   <v>       0.40449397       0.16478899       0.60228063 </v>
   <v>       0.40952201       0.50000000       0.10187799 </v>
   <v>       0.40865359       0.50000000       0.60254556 </v>
   <v>       0.40978837       0.83319124       0.10334954 </v>
   <v>       0.40449397       0.83521101       0.60228063 </v>
   <v>       0.99567324       0.16700696       0.12597581 </v>
   <v>       0.99566497       0.16757818       0.62871979 </v>
   <v>       0.99556315       0.50000000       0.12652768 </v>
   <v>       0.99507498       0.50000000       0.62711156 </v>
   <v>       0.99567324       0.83299304       0.12597581 </v>
   <v>       0.99566497       0.83242182       0.62871979 </v>
   <v>       0.50327520       0.00000000       0.37163412 </v>
   <v>       0.50316443       0.00000000       0.87436824 </v>
   <v>       0.50456274       0.33389494       0.37123759 </v>
   <v>       0.50427294       0.33434406       0.87474022 </v>
   <v>       0.50456274       0.66610506       0.37123759 </v>
   <v>       0.50427294       0.66565594       0.87474022 </v>
   <v>       0.67316655       0.16657785       0.28080774 </v>
   <v>       0.67143111       0.16641603       0.78034803 </v>
   <v>       0.67348184       0.50000000       0.28054487 </v>
   <v>       0.67144999       0.50000000       0.78000287 </v>
   <v>       0.67316655       0.83342215       0.28080774 </v>
   <v>       0.67143111       0.83358397       0.78034803 </v>
   <v>       0.82712962       0.00000000       0.21914110 </v>
   <v>       0.82627752       0.00000000       0.71910380 </v>
   <v>       0.82749772       0.33327089       0.21926075 </v>
   <v>       0.82587093       0.33347039       0.71926503 </v>
   <v>       0.82749772       0.66672911       0.21926075 </v>
   <v>       0.82587093       0.66652961       0.71926503 </v>
   <v>       0.83218623       0.00000000       0.44613001 </v>
   <v>       0.83129967       0.00000000       0.94586637 </v>
   <v>       0.83185586       0.33341355       0.44562244 </v>
   <v>       0.83079551       0.33360750       0.94526959 </v>
   <v>       0.83185586       0.66658645       0.44562244 </v>
   <v>       0.83079551       0.66639250       0.94526959 </v>
   <v>       0.66790252       0.16665668       0.05419153 </v>
   <v>       0.66724119       0.16662613       0.55401670 </v>
   <v>       0.66907807       0.50000000       0.05496712 </v>
   <v>       0.66686941       0.50000000       0.55451201 </v>
   <v>       0.66790252       0.83334332       0.05419153 </v>
   <v>       0.66724119       0.83337387       0.55401670 </v>
   <v>       0.49726480       0.00000000       0.12827045 </v>
   <v>       0.49494202       0.00000000       0.62680863 </v>
   <v>       0.49731889       0.33371273       0.12794509 </v>
   <v>       0.49475215       0.33186702       0.62662003 </v>
   <v>       0.49731889       0.66628727       0.12794509 </v>
   <v>       0.49475215       0.66813298       0.62662003 </v>
   <v>       0.00345559       0.16608892       0.36984827 </v>
   <v>       0.00227495       0.16674631       0.87327610 </v>
   <v>       0.00347933       0.50000000       0.37166921 </v>
   <v>       0.00300438       0.50000000       0.87253753 </v>
   <v>       0.00345559       0.83391108       0.36984827 </v>
   <v>       0.00227495       0.83325369       0.87327610 </v>
   <v>       0.17195761       0.00000000       0.27913981 </v>
   <v>       0.17424684       0.00000000       0.78576615 </v>
   <v>       0.17248580       0.33401234       0.28001687 </v>
   <v>       0.17203201       0.33319281       0.77954896 </v>
   <v>       0.17248580       0.66598766       0.28001687 </v>
   <v>       0.17203201       0.66680719       0.77954896 </v>
   <v>       0.32747392       0.16731964       0.21907147 </v>
   <v>       0.33127690       0.17051765       0.72517100 </v>
   <v>       0.32743383       0.50000000       0.21840608 </v>
   <v>       0.32796290       0.50000000       0.72015215 </v>
   <v>       0.32747392       0.83268036       0.21907147 </v>
   <v>       0.33127690       0.82948235       0.72517100 </v>
   <v>       0.33526021       0.16902043       0.44378875 </v>
   <v>       0.33281356       0.16770294       0.94788793 </v>
   <v>       0.33376563       0.50000000       0.44509096 </v>
   <v>       0.33186081       0.50000000       0.94599429 </v>
   <v>       0.33526021       0.83097957       0.44378875 </v>
   <v>       0.33281356       0.83229706       0.94788793 </v>
   <v>       0.16685668       0.00000000       0.05454774 </v>
   <v>       0.16635233       0.33318168       0.05365031 </v>
   <v>       0.16827892       0.33627962       0.55367961 </v>
   <v>       0.16635233       0.66681832       0.05365031 </v>
   <v>       0.16827892       0.66372038       0.55367961 </v>
   <v>       0.18278707       0.00000000       0.55635937 </v>
  </varray>
 </structure>
</modeling>
