       N       E                     dE             d eps       ncg     rms          rms(c)
DAV:   1     0.217894773240E+05    0.21789E+05   -0.31787E+05 10000   0.281E+03
DAV:   2     0.483889143382E+04   -0.16951E+05   -0.15976E+05 10000   0.815E+02
DAV:   3    -0.143428617878E+03   -0.49823E+04   -0.46988E+04 12856   0.321E+02
DAV:   4    -0.763427261140E+03   -0.62000E+03   -0.60506E+03 12272   0.121E+02
DAV:   5    -0.807738534941E+03   -0.44311E+02   -0.43972E+02 14384   0.349E+01    0.601E+01
RMM:   6    -0.702454777485E+03    0.10528E+03   -0.37231E+02 13087   0.235E+01    0.191E+01
RMM:   7    -0.705747557752E+03   -0.32928E+01   -0.65260E+01 13862   0.976E+00    0.209E+01
RMM:   8    -0.705052425354E+03    0.69513E+00   -0.12720E+01 15002   0.462E+00    0.152E+01
RMM:   9    -0.706177470484E+03   -0.11250E+01   -0.41495E+00 13484   0.274E+00    0.180E+01
RMM:  10    -0.703037656275E+03    0.31398E+01   -0.46330E+00 12218   0.276E+00    0.783E+00
RMM:  11    -0.703069284288E+03   -0.31628E-01   -0.13835E+00 14631   0.149E+00    0.116E+01
RMM:  12    -0.702741216071E+03    0.32807E+00   -0.82777E-01 12742   0.106E+00    0.794E+00
RMM:  13    -0.702450606712E+03    0.29061E+00   -0.12119E-01 15337   0.491E-01    0.592E+00
RMM:  14    -0.702240742800E+03    0.20986E+00   -0.11166E-01 13254   0.337E-01    0.242E+00
RMM:  15    -0.702298738922E+03   -0.57996E-01   -0.86135E-02 12918   0.307E-01    0.540E+00
RMM:  16    -0.702229222620E+03    0.69516E-01   -0.26246E-02 14554   0.213E-01    0.218E+00
RMM:  17    -0.702286464316E+03   -0.57242E-01   -0.57896E-02 13320   0.223E-01    0.341E+00
RMM:  18    -0.702257257226E+03    0.29207E-01   -0.84933E-03 14042   0.145E-01    0.270E+00
RMM:  19    -0.702232448562E+03    0.24809E-01   -0.25238E-03 13600   0.610E-02    0.136E+00
RMM:  20    -0.702231390641E+03    0.10579E-02   -0.14040E-03 12477   0.433E-02    0.544E-01
RMM:  21    -0.702233071227E+03   -0.16806E-02   -0.50021E-04 12098   0.335E-02    0.462E-01
RMM:  22    -0.702233117103E+03   -0.45876E-04   -0.58157E-04 11353   0.251E-02    0.360E-01
RMM:  23    -0.702233069001E+03    0.48103E-04   -0.18145E-04 10360   0.262E-02    0.594E-02
RMM:  24    -0.702233106854E+03   -0.37854E-04   -0.61665E-05  9558   0.117E-02    0.383E-02
RMM:  25    -0.702233112145E+03   -0.52911E-05   -0.15913E-05  6411   0.651E-03
   1 F= -.70223311E+03 E0= -.70220827E+03  d E =-.702233E+03
       N       E                     dE             d eps       ncg     rms          rms(c)
DAV:   1    -0.701809060032E+03    0.42405E+00   -0.12896E+02 11480   0.162E+01    0.388E+00
RMM:   2    -0.703069387894E+03   -0.12603E+01   -0.77625E+00 13999   0.560E+00    0.760E+00
RMM:   3    -0.703049186085E+03    0.20202E-01   -0.21262E+00 14901   0.219E+00    0.623E+00
RMM:   4    -0.702660472841E+03    0.38871E+00   -0.32249E-01 15499   0.850E-01    0.428E+00
RMM:   5    -0.702639823871E+03    0.20649E-01   -0.59410E-02 15252   0.340E-01    0.359E+00
RMM:   6    -0.702578948856E+03    0.60875E-01   -0.32475E-02 12996   0.249E-01    0.147E+00
RMM:   7    -0.702547554297E+03    0.31395E-01   -0.35538E-02 13065   0.222E-01    0.653E-01
RMM:   8    -0.702541959890E+03    0.55944E-02   -0.17977E-02 13161   0.164E-01    0.892E-01
RMM:   9    -0.702534566146E+03    0.73937E-02   -0.14903E-02 13460   0.155E-01    0.325E-01
RMM:  10    -0.702534271250E+03    0.29490E-03   -0.54415E-03 14900   0.974E-02    0.189E-01
RMM:  11    -0.702534213414E+03    0.57836E-04   -0.10859E-03 13568   0.468E-02    0.774E-02
RMM:  12    -0.702534239717E+03   -0.26303E-04   -0.26698E-04 11959   0.222E-02    0.694E-02
RMM:  13    -0.702534236247E+03    0.34706E-05   -0.10618E-04 10085   0.138E-02    0.177E-02
RMM:  14    -0.702534242675E+03   -0.64283E-05   -0.26418E-05  8515   0.821E-03
   2 F= -.70253424E+03 E0= -.70250597E+03  d E =-.301131E+00
       N       E                     dE             d eps       ncg     rms          rms(c)
DAV:   1    -0.702533757079E+03    0.47917E-03   -0.31885E-01 11288   0.815E-01    0.211E-01
RMM:   2    -0.702539652984E+03   -0.58959E-02   -0.17009E-02 13807   0.250E-01    0.870E-01
RMM:   3    -0.702534721271E+03    0.49317E-02   -0.33706E-03 14409   0.959E-02    0.142E-01
RMM:   4    -0.702535065979E+03   -0.34471E-03   -0.55125E-04 13766   0.373E-02    0.104E-01
RMM:   5    -0.702535053464E+03    0.12515E-04   -0.94091E-05 11069   0.172E-02    0.134E-01
RMM:   6    -0.702534998098E+03    0.55366E-04   -0.33103E-05  7588   0.932E-03    0.435E-02
RMM:   7    -0.702534980646E+03    0.17451E-04   -0.43228E-05  8549   0.903E-03    0.210E-02
RMM:   8    -0.702534970173E+03    0.10473E-04   -0.72956E-05  9118   0.104E-02    0.131E-02
RMM:   9    -0.702534969340E+03    0.83284E-06   -0.13300E-05  6127   0.645E-03
   3 F= -.70253497E+03 E0= -.70250684E+03  d E =-.301857E+00
       N       E                     dE             d eps       ncg     rms          rms(c)
DAV:   1    -0.702422662822E+03    0.11231E+00   -0.49051E+01 10750   0.101E+01    0.226E+00
RMM:   2    -0.703204866883E+03   -0.78220E+00   -0.21657E+00 13641   0.285E+00    0.919E+00
RMM:   3    -0.702690396834E+03    0.51447E+00   -0.51057E-01 14855   0.115E+00    0.476E+00
RMM:   4    -0.702627145808E+03    0.63251E-01   -0.93057E-02 15341   0.454E-01    0.174E+00
RMM:   5    -0.702629585827E+03   -0.24400E-02   -0.22404E-02 15216   0.208E-01    0.102E+00
RMM:   6    -0.702622295233E+03    0.72906E-02   -0.51415E-03 14449   0.969E-02    0.470E-01
RMM:   7    -0.702620124902E+03    0.21703E-02   -0.34925E-03 13583   0.723E-02    0.305E-01
RMM:   8    -0.702618925989E+03    0.11989E-02   -0.45235E-03 13148   0.776E-02    0.203E-01
RMM:   9    -0.702618733864E+03    0.19213E-03   -0.11679E-03 13867   0.440E-02    0.690E-02
RMM:  10    -0.702618734099E+03   -0.23496E-06   -0.16053E-04 11260   0.199E-02    0.279E-02
RMM:  11    -0.702618740699E+03   -0.65999E-05   -0.60906E-05  9738   0.103E-02
   4 F= -.70261874E+03 E0= -.70259055E+03  d E =-.837714E-01
       N       E                     dE             d eps       ncg     rms          rms(c)
DAV:   1    -0.702618735453E+03   -0.13548E-05   -0.19249E-03 11496   0.655E-02    0.175E-02
RMM:   2    -0.702618790655E+03   -0.55201E-04   -0.11716E-04 11918   0.226E-02    0.116E-01
RMM:   3    -0.702618744759E+03    0.45896E-04   -0.26557E-05  6900   0.106E-02    0.490E-02
RMM:   4    -0.702618744732E+03    0.27081E-07   -0.82456E-06  5929   0.668E-03
   5 F= -.70261874E+03 E0= -.70259056E+03  d E =-.837754E-01
       N       E                     dE             d eps       ncg     rms          rms(c)
DAV:   1    -0.702570925390E+03    0.47819E-01   -0.22522E+01 10630   0.690E+00    0.138E+00
RMM:   2    -0.702861832244E+03   -0.29091E+00   -0.91448E-01 13380   0.187E+00    0.592E+00
RMM:   3    -0.702664167205E+03    0.19767E+00   -0.19797E-01 14960   0.747E-01    0.218E+00
RMM:   4    -0.702664710572E+03   -0.54337E-03   -0.37007E-02 15321   0.289E-01    0.155E+00
RMM:   5    -0.702664994910E+03   -0.28434E-03   -0.98050E-03 14995   0.139E-01    0.149E+00
RMM:   6    -0.702657212865E+03    0.77820E-02   -0.29631E-03 13962   0.800E-02    0.260E-01
RMM:   7    -0.702657282129E+03   -0.69264E-04   -0.14336E-03 13235   0.479E-02    0.193E-01
RMM:   8    -0.702656686412E+03    0.59572E-03   -0.17190E-03 13320   0.485E-02    0.184E-01
RMM:   9    -0.702656529647E+03    0.15677E-03   -0.72486E-04 13149   0.332E-02    0.495E-02
RMM:  10    -0.702656548543E+03   -0.18897E-04   -0.11725E-04 10919   0.169E-02    0.457E-02
RMM:  11    -0.702656544190E+03    0.43530E-05   -0.35481E-05  9171   0.898E-03
   6 F= -.70265654E+03 E0= -.70262855E+03  d E =-.377995E-01
       N       E                     dE             d eps       ncg     rms          rms(c)
DAV:   1    -0.702655278097E+03    0.12704E-02   -0.53224E-01 11600   0.106E+00    0.209E-01
RMM:   2    -0.702663395389E+03   -0.81173E-02   -0.21121E-02 13345   0.282E-01    0.124E+00
RMM:   3    -0.702656777960E+03    0.66174E-02   -0.46787E-03 14737   0.116E-01    0.345E-01
RMM:   4    -0.702657523710E+03   -0.74575E-03   -0.83177E-04 14042   0.481E-02    0.278E-01
RMM:   5    -0.702657378744E+03    0.14497E-03   -0.22641E-04 11905   0.242E-02    0.130E-01
RMM:   6    -0.702657293811E+03    0.84933E-04   -0.60191E-05  9407   0.122E-02    0.396E-02
RMM:   7    -0.702657278870E+03    0.14941E-04   -0.41238E-05  9042   0.954E-03    0.297E-02
RMM:   8    -0.702657265225E+03    0.13645E-04   -0.63278E-05  9809   0.998E-03    0.107E-02
RMM:   9    -0.702657265381E+03   -0.15590E-06   -0.12416E-05  6012   0.658E-03
   7 F= -.70265727E+03 E0= -.70262927E+03  d E =-.385206E-01
       N       E                     dE             d eps       ncg     rms          rms(c)
DAV:   1    -0.702617841595E+03    0.39424E-01   -0.15232E+01 10496   0.565E+00    0.887E-01
RMM:   2    -0.702727072415E+03   -0.10923E+00   -0.57108E-01 13342   0.150E+00    0.364E+00
RMM:   3    -0.702677847750E+03    0.49225E-01   -0.11836E-01 15117   0.579E-01    0.139E+00
RMM:   4    -0.702688021805E+03   -0.10174E-01   -0.18597E-02 15326   0.219E-01    0.168E+00
RMM:   5    -0.702680878454E+03    0.71434E-02   -0.53488E-03 14796   0.104E-01    0.987E-01
RMM:   6    -0.702677365758E+03    0.35127E-02   -0.18750E-03 14149   0.629E-02    0.250E-01
RMM:   7    -0.702676978235E+03    0.38752E-03   -0.18731E-03 12620   0.507E-02    0.164E-01
RMM:   8    -0.702676806556E+03    0.17168E-03   -0.82880E-04 12889   0.352E-02    0.872E-02
RMM:   9    -0.702676811405E+03   -0.48485E-05   -0.18870E-04 11569   0.202E-02    0.537E-02
RMM:  10    -0.702676793935E+03    0.17470E-04   -0.42863E-05 10080   0.106E-02    0.192E-02
RMM:  11    -0.702676796133E+03   -0.21977E-05   -0.21436E-05  7614   0.700E-03
   8 F= -.70267680E+03 E0= -.70264935E+03  d E =-.195308E-01
       N       E                     dE             d eps       ncg     rms          rms(c)
DAV:   1    -0.702676441455E+03    0.35248E-03   -0.14056E-01 11568   0.542E-01    0.877E-02
RMM:   2    -0.702677507465E+03   -0.10660E-02   -0.52463E-03 13286   0.142E-01    0.381E-01
RMM:   3    -0.702677041628E+03    0.46584E-03   -0.10960E-03 14935   0.554E-02    0.204E-01
RMM:   4    -0.702677034628E+03    0.69995E-05   -0.18619E-04 12271   0.224E-02    0.123E-01
RMM:   5    -0.702677022937E+03    0.11692E-04   -0.59733E-05  9485   0.141E-02    0.957E-02
RMM:   6    -0.702676981567E+03    0.41370E-04   -0.18818E-05  7397   0.727E-03    0.209E-02
RMM:   7    -0.702676979291E+03    0.22757E-05   -0.16663E-05  7054   0.624E-03
   9 F= -.70267698E+03 E0= -.70264954E+03  d E =-.197139E-01
       N       E                     dE             d eps       ncg     rms          rms(c)
DAV:   1    -0.702658940536E+03    0.18041E-01   -0.72380E+00 10558   0.395E+00    0.491E-01
RMM:   2    -0.702691627780E+03   -0.32687E-01   -0.24860E-01 13121   0.103E+00    0.158E+00
RMM:   3    -0.702687854905E+03    0.37729E-02   -0.57592E-02 15011   0.406E-01    0.664E-01
RMM:   4    -0.702692217647E+03   -0.43627E-02   -0.82787E-03 15235   0.147E-01    0.115E+00
RMM:   5    -0.702687647275E+03    0.45704E-02   -0.18351E-03 14741   0.656E-02    0.390E-01
RMM:   6    -0.702687668609E+03   -0.21333E-04   -0.59376E-04 12957   0.367E-02    0.149E-01
RMM:   7    -0.702687371887E+03    0.29672E-03   -0.75786E-04 12630   0.340E-02    0.705E-02
RMM:   8    -0.702687338347E+03    0.33540E-04   -0.36920E-04 12328   0.246E-02    0.408E-02
RMM:   9    -0.702687331732E+03    0.66149E-05   -0.54278E-05 10028   0.126E-02
  10 F= -.70268733E+03 E0= -.70266003E+03  d E =-.103524E-01
       N       E                     dE             d eps       ncg     rms          rms(c)
DAV:   1    -0.702684688143E+03    0.26502E-02   -0.82345E-01 11208   0.133E+00    0.170E-01
RMM:   2    -0.702688491990E+03   -0.38038E-02   -0.28478E-02 13110   0.348E-01    0.537E-01
RMM:   3    -0.702687985079E+03    0.50691E-03   -0.66439E-03 15003   0.137E-01    0.216E-01
RMM:   4    -0.702688254010E+03   -0.26893E-03   -0.88821E-04 14778   0.494E-02    0.258E-01
RMM:   5    -0.702688051875E+03    0.20213E-03   -0.18319E-04 12107   0.217E-02    0.175E-01
RMM:   6    -0.702687974472E+03    0.77403E-04   -0.67515E-05  9225   0.133E-02    0.482E-02
RMM:   7    -0.702687950211E+03    0.24262E-04   -0.98303E-05 10323   0.135E-02    0.209E-02
RMM:   8    -0.702687949620E+03    0.59122E-06   -0.40822E-05  9221   0.956E-03
  11 F= -.70268795E+03 E0= -.70266071E+03  d E =-.109703E-01
       N       E                     dE             d eps       ncg     rms          rms(c)
DAV:   1    -0.702669330039E+03    0.18620E-01   -0.63344E+00 10478   0.365E+00    0.429E-01
RMM:   2    -0.702692337985E+03   -0.23008E-01   -0.20734E-01 12825   0.935E-01    0.100E+00
RMM:   3    -0.702694673720E+03   -0.23357E-02   -0.51684E-02 15127   0.379E-01    0.607E-01
RMM:   4    -0.702695150313E+03   -0.47659E-03   -0.60866E-03 15130   0.129E-01    0.528E-01
RMM:   5    -0.702694288486E+03    0.86183E-03   -0.12182E-03 15124   0.512E-02    0.396E-01
RMM:   6    -0.702693951218E+03    0.33727E-03   -0.37580E-04 12324   0.273E-02    0.155E-01
RMM:   7    -0.702693713859E+03    0.23736E-03   -0.57145E-04 12205   0.297E-02    0.814E-02
RMM:   8    -0.702693682032E+03    0.31826E-04   -0.49931E-04 12613   0.276E-02    0.630E-02
RMM:   9    -0.702693659576E+03    0.22457E-04   -0.53143E-05  9860   0.126E-02    0.248E-02
RMM:  10    -0.702693653808E+03    0.57680E-05   -0.17652E-05  7092   0.702E-03
  12 F= -.70269365E+03 E0= -.70266640E+03  d E =-.570419E-02
       N       E                     dE             d eps       ncg     rms          rms(c)
DAV:   1    -0.702693542689E+03    0.11689E-03   -0.42045E-02 11600   0.298E-01    0.361E-02
RMM:   2    -0.702693707677E+03   -0.16499E-03   -0.14271E-03 12827   0.764E-02    0.887E-02
RMM:   3    -0.702693712149E+03   -0.44726E-05   -0.34213E-04 13726   0.309E-02    0.480E-02
RMM:   4    -0.702693717180E+03   -0.50312E-05   -0.43998E-05  8670   0.127E-02
  13 F= -.70269372E+03 E0= -.70266642E+03  d E =-.576756E-02
       N       E                     dE             d eps       ncg     rms          rms(c)
DAV:   1    -0.702686499027E+03    0.72131E-02   -0.26409E+00 10502   0.237E+00    0.270E-01
RMM:   2    -0.702696705182E+03   -0.10206E-01   -0.88666E-02 12986   0.612E-01    0.730E-01
RMM:   3    -0.702697521531E+03   -0.81635E-03   -0.20736E-02 15037   0.242E-01    0.599E-01
RMM:   4    -0.702697982752E+03   -0.46122E-03   -0.29725E-03 15075   0.882E-02    0.544E-01
RMM:   5    -0.702696957309E+03    0.10254E-02   -0.64997E-04 14010   0.391E-02    0.213E-01
RMM:   6    -0.702696856645E+03    0.10066E-03   -0.20237E-04 10961   0.203E-02    0.908E-02
RMM:   7    -0.702696753710E+03    0.10294E-03   -0.24850E-04 11012   0.200E-02    0.540E-02
RMM:   8    -0.702696725383E+03    0.28327E-04   -0.22201E-04 10983   0.188E-02    0.294E-02
RMM:   9    -0.702696720725E+03    0.46575E-05   -0.28604E-05  8941   0.100E-02
  14 F= -.70269672E+03 E0= -.70266935E+03  d E =-.300354E-02
       N       E                     dE             d eps       ncg     rms          rms(c)
DAV:   1    -0.702696635494E+03    0.89889E-04   -0.28411E-02 11584   0.247E-01    0.325E-02
RMM:   2    -0.702696753467E+03   -0.11797E-03   -0.10106E-03 13008   0.634E-02    0.793E-02
RMM:   3    -0.702696758985E+03   -0.55180E-05   -0.21629E-04 12987   0.251E-02    0.671E-02
RMM:   4    -0.702696771225E+03   -0.12240E-04   -0.39007E-05  8110   0.119E-02    0.793E-02
RMM:   5    -0.702696750708E+03    0.20517E-04   -0.12644E-05  6277   0.733E-03    0.241E-02
RMM:   6    -0.702696750824E+03   -0.11580E-06   -0.46947E-06  5861   0.498E-03
  15 F= -.70269675E+03 E0= -.70266939E+03  d E =-.303364E-02
       N       E                     dE             d eps       ncg     rms          rms(c)
DAV:   1    -0.702692710938E+03    0.40398E-02   -0.14853E+00 10560   0.180E+00    0.272E-01
RMM:   2    -0.702713230939E+03   -0.20520E-01   -0.52089E-02 13138   0.469E-01    0.249E+00
RMM:   3    -0.702694776608E+03    0.18454E-01   -0.13127E-02 14739   0.202E-01    0.336E-01
RMM:   4    -0.702698832334E+03   -0.40557E-02   -0.22405E-03 14882   0.828E-02    0.352E-01
RMM:   5    -0.702698590106E+03    0.24223E-03   -0.46388E-04 13087   0.336E-02    0.226E-01
RMM:   6    -0.702698363298E+03    0.22681E-03   -0.14144E-04 10423   0.182E-02    0.609E-02
RMM:   7    -0.702698316327E+03    0.46972E-04   -0.17230E-04 10905   0.170E-02    0.392E-02
RMM:   8    -0.702698305263E+03    0.11064E-04   -0.83848E-05 10079   0.126E-02    0.147E-02
RMM:   9    -0.702698305114E+03    0.14836E-06   -0.14258E-05  6212   0.747E-03
  16 F= -.70269831E+03 E0= -.70267091E+03  d E =-.155429E-02
       N       E                     dE             d eps       ncg     rms          rms(c)
DAV:   1    -0.702698238685E+03    0.66577E-04   -0.22670E-02 11584   0.223E-01    0.348E-02
RMM:   2    -0.702698550586E+03   -0.31190E-03   -0.81377E-04 13075   0.568E-02    0.293E-01
RMM:   3    -0.702698277317E+03    0.27327E-03   -0.18909E-04 12717   0.242E-02    0.396E-02
RMM:   4    -0.702698334120E+03   -0.56803E-04   -0.35239E-05  7894   0.117E-02    0.491E-02
RMM:   5    -0.702698327245E+03    0.68743E-05   -0.10754E-05  6095   0.719E-03
  17 F= -.70269833E+03 E0= -.70267097E+03  d E =-.157642E-02
       N       E                     dE             d eps       ncg     rms          rms(c)
DAV:   1    -0.702696017833E+03    0.23163E-02   -0.76681E-01 10566   0.132E+00    0.154E-01
RMM:   2    -0.702701108672E+03   -0.50908E-02   -0.26595E-02 13243   0.347E-01    0.993E-01
RMM:   3    -0.702698537502E+03    0.25712E-02   -0.64715E-03 14884   0.140E-01    0.154E-01
RMM:   4    -0.702699400606E+03   -0.86310E-03   -0.92687E-04 14891   0.525E-02    0.273E-01
RMM:   5    -0.702699098705E+03    0.30190E-03   -0.18250E-04 12291   0.229E-02    0.726E-02
RMM:   6    -0.702699117212E+03   -0.18507E-04   -0.58489E-05  9188   0.121E-02    0.513E-02
RMM:   7    -0.702699091885E+03    0.25327E-04   -0.56674E-05  9403   0.109E-02    0.356E-02
RMM:   8    -0.702699078187E+03    0.13698E-04   -0.69516E-05  9850   0.111E-02    0.104E-02
RMM:   9    -0.702699077974E+03    0.21307E-06   -0.12677E-05  6080   0.715E-03
  18 F= -.70269908E+03 E0= -.70267163E+03  d E =-.750729E-03
       N       E                     dE             d eps       ncg     rms          rms(c)
DAV:   1    -0.702699076796E+03    0.13912E-05   -0.16933E-04 10384   0.203E-02    0.313E-03
RMM:   2    -0.702699077964E+03   -0.11673E-05   -0.83635E-06  5819   0.740E-03
  19 F= -.70269908E+03 E0= -.70267163E+03  d E =-.750718E-03
       N       E                     dE             d eps       ncg     rms          rms(c)
DAV:   1    -0.702697856819E+03    0.12200E-02   -0.46613E-01 10688   0.102E+00    0.120E-01
RMM:   2    -0.702700014777E+03   -0.21580E-02   -0.15141E-02 12957   0.263E-01    0.471E-01
RMM:   3    -0.702699698047E+03    0.31673E-03   -0.38969E-03 14945   0.107E-01    0.252E-01
RMM:   4    -0.702699760146E+03   -0.62099E-04   -0.57174E-04 14305   0.405E-02    0.151E-01
RMM:   5    -0.702699689176E+03    0.70970E-04   -0.11923E-04 11318   0.193E-02    0.106E-01
RMM:   6    -0.702699648742E+03    0.40434E-04   -0.36771E-05  8408   0.997E-03    0.385E-02
RMM:   7    -0.702699639635E+03    0.91070E-05   -0.23360E-05  7923   0.796E-03
  20 F= -.70269964E+03 E0= -.70267217E+03  d E =-.561672E-03
       N       E                     dE             d eps       ncg     rms          rms(c)
DAV:   1    -0.702699005201E+03    0.64354E-03   -0.18068E-01 11104   0.637E-01    0.770E-02
RMM:   2    -0.702699861629E+03   -0.85643E-03   -0.57249E-03 12890   0.165E-01    0.311E-01
RMM:   3    -0.702699703205E+03    0.15842E-03   -0.15329E-03 14818   0.676E-02    0.159E-01
RMM:   4    -0.702699733806E+03   -0.30601E-04   -0.23357E-04 12779   0.262E-02    0.964E-02
RMM:   5    -0.702699710895E+03    0.22911E-04   -0.56314E-05  9900   0.152E-02    0.743E-02
RMM:   6    -0.702699689845E+03    0.21050E-04   -0.18143E-05  7086   0.726E-03    0.223E-02
RMM:   7    -0.702699688089E+03    0.17554E-05   -0.96123E-06  6107   0.587E-03
  21 F= -.70269969E+03 E0= -.70267218E+03  d E =-.610126E-03
       N       E                     dE             d eps       ncg     rms          rms(c)
DAV:   1    -0.702699037648E+03    0.65220E-03   -0.28492E-01 10992   0.789E-01    0.104E-01
RMM:   2    -0.702701250356E+03   -0.22127E-02   -0.86615E-03 12562   0.197E-01    0.692E-01
RMM:   3    -0.702699786892E+03    0.14635E-02   -0.23674E-03 14820   0.849E-02    0.105E-01
RMM:   4    -0.702700122479E+03   -0.33559E-03   -0.35064E-04 13250   0.330E-02    0.104E-01
RMM:   5    -0.702700058568E+03    0.63911E-04   -0.69835E-05 10404   0.162E-02    0.469E-02
RMM:   6    -0.702700058868E+03   -0.29944E-06   -0.23914E-05  7559   0.781E-03
  22 F= -.70270006E+03 E0= -.70267255E+03  d E =-.370778E-03
       N       E                     dE             d eps       ncg     rms          rms(c)
DAV:   1    -0.702699450507E+03    0.60806E-03   -0.21179E-01 11072   0.679E-01    0.913E-02
RMM:   2    -0.702701361035E+03   -0.19105E-02   -0.63641E-03 12618   0.163E-01    0.672E-01
RMM:   3    -0.702699913145E+03    0.14479E-02   -0.16565E-03 14738   0.706E-02    0.872E-02
RMM:   4    -0.702700213511E+03   -0.30037E-03   -0.25610E-04 12784   0.277E-02    0.810E-02
RMM:   5    -0.702700168633E+03    0.44878E-04   -0.50967E-05  9570   0.136E-02    0.268E-02
RMM:   6    -0.702700183253E+03   -0.14620E-04   -0.24084E-05  7990   0.716E-03    0.698E-02
RMM:   7    -0.702700162475E+03    0.20778E-04   -0.16891E-05  7109   0.652E-03    0.204E-02
RMM:   8    -0.702700162701E+03   -0.22543E-06   -0.89906E-06  5891   0.549E-03
  23 F= -.70270016E+03 E0= -.70267261E+03  d E =-.474611E-03
       N       E                     dE             d eps       ncg     rms          rms(c)
DAV:   1    -0.702696883820E+03    0.32787E-02   -0.85247E-01 10952   0.136E+00    0.181E-01
RMM:   2    -0.702703574249E+03   -0.66904E-02   -0.26160E-02 12613   0.336E-01    0.118E+00
RMM:   3    -0.702699166289E+03    0.44080E-02   -0.69096E-03 14860   0.144E-01    0.179E-01
RMM:   4    -0.702700138150E+03   -0.97186E-03   -0.10269E-03 14952   0.552E-02    0.190E-01
RMM:   5    -0.702699944060E+03    0.19409E-03   -0.18461E-04 12248   0.217E-02    0.916E-02
RMM:   6    -0.702699934930E+03    0.91303E-05   -0.59375E-05  8941   0.115E-02
  24 F= -.70269993E+03 E0= -.70267242E+03  d E =-.246841E-03
       N       E                     dE             d eps       ncg     rms          rms(c)
DAV:   1    -0.702698243852E+03    0.17002E-02   -0.52478E-01 10944   0.107E+00    0.141E-01
RMM:   2    -0.702701769545E+03   -0.35257E-02   -0.16235E-02 12554   0.265E-01    0.869E-01
RMM:   3    -0.702699782772E+03    0.19868E-02   -0.43835E-03 14851   0.114E-01    0.179E-01
RMM:   4    -0.702700298430E+03   -0.51566E-03   -0.64517E-04 14548   0.443E-02    0.144E-01
RMM:   5    -0.702700202780E+03    0.95650E-04   -0.12245E-04 11186   0.187E-02    0.924E-02
RMM:   6    -0.702700179821E+03    0.22959E-04   -0.39886E-05  8454   0.102E-02    0.451E-02
RMM:   7    -0.702700170164E+03    0.96565E-05   -0.14818E-05  6926   0.707E-03
  25 F= -.70270017E+03 E0= -.70267260E+03  d E =-.482075E-03
       N       E                     dE             d eps       ncg     rms          rms(c)
DAV:   1    -0.702699550343E+03    0.62948E-03   -0.23234E-01 10928   0.739E-01    0.904E-02
RMM:   2    -0.702701705513E+03   -0.21552E-02   -0.78427E-03 13096   0.195E-01    0.736E-01
RMM:   3    -0.702700152263E+03    0.15533E-02   -0.21115E-03 14387   0.824E-02    0.999E-02
RMM:   4    -0.702700583475E+03   -0.43121E-03   -0.32076E-04 13448   0.323E-02    0.168E-01
RMM:   5    -0.702700464505E+03    0.11897E-03   -0.62367E-05 10507   0.164E-02    0.269E-02
RMM:   6    -0.702700477854E+03   -0.13349E-04   -0.25538E-05  7580   0.814E-03    0.319E-02
RMM:   7    -0.702700469254E+03    0.85997E-05   -0.14189E-05  6554   0.662E-03
  26 F= -.70270047E+03 E0= -.70267292E+03  d E =-.299090E-03
       N       E                     dE             d eps       ncg     rms          rms(c)
DAV:   1    -0.702700110507E+03    0.36735E-03   -0.99401E-02 11392   0.483E-01    0.639E-02
RMM:   2    -0.702701227761E+03   -0.11173E-02   -0.33338E-03 13048   0.130E-01    0.553E-01
RMM:   3    -0.702700317098E+03    0.91066E-03   -0.97047E-04 14189   0.561E-02    0.589E-02
RMM:   4    -0.702700557798E+03   -0.24070E-03   -0.15280E-04 12480   0.227E-02    0.117E-01
RMM:   5    -0.702700502150E+03    0.55648E-04   -0.33382E-05  8343   0.127E-02    0.169E-02
RMM:   6    -0.702700508871E+03   -0.67209E-05   -0.12565E-05  6086   0.636E-03
  27 F= -.70270051E+03 E0= -.70267301E+03  d E =-.338707E-03
       N       E                     dE             d eps       ncg     rms          rms(c)
DAV:   1    -0.702700124809E+03    0.37734E-03   -0.16887E-01 10904   0.608E-01    0.831E-02
RMM:   2    -0.702701695721E+03   -0.15709E-02   -0.55412E-03 12857   0.153E-01    0.636E-01
RMM:   3    -0.702700515135E+03    0.11806E-02   -0.13756E-03 14728   0.646E-02    0.887E-02
RMM:   4    -0.702700817733E+03   -0.30260E-03   -0.22035E-04 12606   0.259E-02    0.123E-01
RMM:   5    -0.702700754826E+03    0.62906E-04   -0.49996E-05  9362   0.137E-02    0.538E-02
RMM:   6    -0.702700748834E+03    0.59920E-05   -0.18436E-05  7290   0.692E-03
  28 F= -.70270075E+03 E0= -.70267325E+03  d E =-.239963E-03
       N       E                     dE             d eps       ncg     rms          rms(c)
DAV:   1    -0.702700555030E+03    0.19980E-03   -0.63540E-02 11064   0.373E-01    0.531E-02
RMM:   2    -0.702701257012E+03   -0.70198E-03   -0.20383E-03 12822   0.920E-02    0.440E-01
RMM:   3    -0.702700661052E+03    0.59596E-03   -0.50625E-04 14348   0.396E-02    0.494E-02
RMM:   4    -0.702700793990E+03   -0.13294E-03   -0.84029E-05 10319   0.168E-02    0.704E-02
RMM:   5    -0.702700776582E+03    0.17407E-04   -0.21348E-05  7317   0.917E-03    0.236E-02
RMM:   6    -0.702700776427E+03    0.15544E-06   -0.77604E-06  5958   0.540E-03
  29 F= -.70270078E+03 E0= -.70267324E+03  d E =-.267556E-03
       N       E                     dE             d eps       ncg     rms          rms(c)
DAV:   1    -0.702700480097E+03    0.29649E-03   -0.11509E-01 10920   0.508E-01    0.650E-02
RMM:   2    -0.702701421148E+03   -0.94105E-03   -0.39314E-03 13043   0.133E-01    0.447E-01
RMM:   3    -0.702700822251E+03    0.59890E-03   -0.99071E-04 14649   0.548E-02    0.701E-02
RMM:   4    -0.702700991754E+03   -0.16950E-03   -0.16157E-04 12407   0.220E-02    0.121E-01
RMM:   5    -0.702700928205E+03    0.63549E-04   -0.36121E-05  8705   0.126E-02    0.275E-02
RMM:   6    -0.702700932742E+03   -0.45362E-05   -0.12081E-05  6329   0.594E-03
  30 F= -.70270093E+03 E0= -.70267337E+03  d E =-.156315E-03
       N       E                     dE             d eps       ncg     rms          rms(c)
DAV:   1    -0.702700872431E+03    0.55775E-04   -0.17674E-02 11600   0.200E-01    0.245E-02
RMM:   2    -0.702700966287E+03   -0.93856E-04   -0.57867E-04 13019   0.507E-02    0.117E-01
RMM:   3    -0.702700935001E+03    0.31285E-04   -0.13396E-04 12520   0.206E-02    0.443E-02
RMM:   4    -0.702700944371E+03   -0.93696E-05   -0.23012E-05  7062   0.102E-02
  31 F= -.70270094E+03 E0= -.70267337E+03  d E =-.167944E-03
       N       E                     dE             d eps       ncg     rms          rms(c)
DAV:   1    -0.702700920994E+03    0.14008E-04   -0.33815E-03 10950   0.878E-02    0.194E-02
RMM:   2    -0.702700974814E+03   -0.53820E-04   -0.14836E-04 12244   0.249E-02    0.992E-02
RMM:   3    -0.702700932759E+03    0.42055E-04   -0.36695E-05  7522   0.113E-02    0.265E-02
RMM:   4    -0.702700939560E+03   -0.68009E-05   -0.10246E-05  5975   0.723E-03
  32 F= -.70270094E+03 E0= -.70267341E+03  d E =-.163134E-03
       N       E                     dE             d eps       ncg     rms          rms(c)
DAV:   1    -0.702700932749E+03    0.10376E-07   -0.11489E-03 10922   0.512E-02    0.195E-02
RMM:   2    -0.702701009870E+03   -0.77121E-04   -0.78172E-05  9470   0.157E-02    0.142E-01
RMM:   3    -0.702700935052E+03    0.74818E-04   -0.22305E-05  6700   0.925E-03    0.559E-02
RMM:   4    -0.702700936430E+03   -0.13780E-05   -0.87347E-06  5938   0.629E-03
  33 F= -.70270094E+03 E0= -.70267340E+03  d E =-.160003E-03
       N       E                     dE             d eps       ncg     rms          rms(c)
DAV:   1    -0.702700632688E+03    0.30236E-03   -0.11205E-01 10722   0.501E-01    0.126E-01
RMM:   2    -0.702705110645E+03   -0.44780E-02   -0.50337E-03 13288   0.135E-01    0.114E+00
RMM:   3    -0.702700381747E+03    0.47289E-02   -0.13186E-03 14110   0.629E-02    0.164E-01
RMM:   4    -0.702701061735E+03   -0.67999E-03   -0.26131E-04 12484   0.279E-02    0.102E-01
RMM:   5    -0.702701058595E+03    0.31394E-05   -0.63673E-05  9457   0.145E-02
  34 F= -.70270106E+03 E0= -.70267364E+03  d E =-.122165E-03
       N       E                     dE             d eps       ncg     rms          rms(c)
DAV:   1    -0.702701044177E+03    0.17558E-04   -0.48569E-04 11863   0.362E-02    0.262E-02
RMM:   2    -0.702701184407E+03   -0.14023E-03   -0.71651E-05  8396   0.138E-02    0.215E-01
RMM:   3    -0.702701019824E+03    0.16458E-03   -0.26717E-05  6931   0.961E-03    0.433E-02
RMM:   4    -0.702701042048E+03   -0.22223E-04   -0.97444E-06  6110   0.590E-03    0.214E-02
RMM:   5    -0.702701042421E+03   -0.37318E-06   -0.51604E-06  5952   0.439E-03
  35 F= -.70270104E+03 E0= -.70267349E+03  d E =-.105991E-03
       N       E                     dE             d eps       ncg     rms          rms(c)
DAV:   1    -0.702700890907E+03    0.15114E-03   -0.54751E-02 10658   0.345E-01    0.379E-02
RMM:   2    -0.702701067451E+03   -0.17654E-03   -0.18041E-03 12812   0.889E-02    0.387E-02
RMM:   3    -0.702701148082E+03   -0.80630E-04   -0.45448E-04 14215   0.360E-02    0.124E-01
RMM:   4    -0.702701112170E+03    0.35912E-04   -0.66817E-05 10013   0.149E-02    0.608E-02
RMM:   5    -0.702701107923E+03    0.42473E-05   -0.19759E-05  6854   0.913E-03
  36 F= -.70270111E+03 E0= -.70267363E+03  d E =-.655017E-04
       N       E                     dE             d eps       ncg     rms          rms(c)
DAV:   1    -0.702701106869E+03    0.53008E-05   -0.80673E-04 11486   0.424E-02    0.151E-02
RMM:   2    -0.702701127581E+03   -0.20712E-04   -0.39186E-05  7334   0.127E-02    0.679E-02
RMM:   3    -0.702701105399E+03    0.22182E-04   -0.97499E-06  6010   0.720E-03    0.170E-02
RMM:   4    -0.702701107176E+03   -0.17771E-05   -0.42783E-06  5831   0.473E-03
  37 F= -.70270111E+03 E0= -.70267360E+03  d E =-.647555E-04
       N       E                     dE             d eps       ncg     rms          rms(c)
DAV:   1    -0.702701096584E+03    0.88152E-05   -0.30564E-03 10910   0.822E-02    0.140E-02
RMM:   2    -0.702701148880E+03   -0.52296E-04   -0.11954E-04 10772   0.222E-02    0.122E-01
RMM:   3    -0.702701099207E+03    0.49673E-04   -0.26983E-05  6891   0.105E-02    0.152E-02
RMM:   4    -0.702701109288E+03   -0.10080E-04   -0.76694E-06  5871   0.691E-03    0.215E-02
RMM:   5    -0.702701107756E+03    0.15315E-05   -0.29893E-06  5816   0.441E-03
  38 F= -.70270111E+03 E0= -.70267362E+03  d E =-.653354E-04
       N       E                     dE             d eps       ncg     rms          rms(c)
DAV:   1    -0.702700967642E+03    0.14165E-03   -0.51553E-02 10698   0.335E-01    0.663E-02
RMM:   2    -0.702702459991E+03   -0.14923E-02   -0.20110E-03 13103   0.892E-02    0.703E-01
RMM:   3    -0.702700854100E+03    0.16059E-02   -0.52948E-04 13395   0.416E-02    0.649E-02
RMM:   4    -0.702701171546E+03   -0.31745E-03   -0.10710E-04 10817   0.201E-02    0.601E-02
RMM:   5    -0.702701169368E+03    0.21776E-05   -0.26656E-05  7289   0.104E-02
  39 F= -.70270117E+03 E0= -.70267374E+03  d E =-.616121E-04
       N       E                     dE             d eps       ncg     rms          rms(c)
DAV:   1    -0.702701158559E+03    0.12987E-04   -0.33535E-03 11414   0.861E-02    0.234E-02
RMM:   2    -0.702701322561E+03   -0.16400E-03   -0.15370E-04 11414   0.238E-02    0.238E-01
RMM:   3    -0.702701132333E+03    0.19023E-03   -0.42361E-05  7823   0.126E-02    0.204E-02
RMM:   4    -0.702701169978E+03   -0.37645E-04   -0.11942E-05  6045   0.797E-03    0.281E-02
RMM:   5    -0.702701167882E+03    0.20965E-05   -0.45358E-06  5912   0.532E-03
  40 F= -.70270117E+03 E0= -.70267371E+03  d E =-.601257E-04
       N       E                     dE             d eps       ncg     rms          rms(c)
DAV:   1    -0.702701111937E+03    0.58042E-04   -0.24785E-02 10598   0.227E-01    0.262E-02
RMM:   2    -0.702701218507E+03   -0.10657E-03   -0.81896E-04 12845   0.590E-02    0.968E-02
RMM:   3    -0.702701206919E+03    0.11588E-04   -0.20049E-04 12686   0.240E-02    0.455E-02
RMM:   4    -0.702701219924E+03   -0.13005E-04   -0.33570E-05  7527   0.121E-02    0.565E-02
RMM:   5    -0.702701207644E+03    0.12280E-04   -0.10148E-05  6091   0.645E-03    0.152E-02
RMM:   6    -0.702701208182E+03   -0.53800E-06   -0.37642E-06  5825   0.454E-03
  41 F= -.70270121E+03 E0= -.70267375E+03  d E =-.402997E-04
       N       E                     dE             d eps       ncg     rms          rms(c)
DAV:   1    -0.702701201961E+03    0.56820E-05   -0.19460E-03 11398   0.642E-02    0.903E-03
RMM:   2    -0.702701220440E+03   -0.18479E-04   -0.76109E-05  9264   0.179E-02    0.627E-02
RMM:   3    -0.702701206841E+03    0.13600E-04   -0.15713E-05  6189   0.855E-03    0.124E-02
RMM:   4    -0.702701209922E+03   -0.30817E-05   -0.50066E-06  5823   0.579E-03
  42 F= -.70270121E+03 E0= -.70267378E+03  d E =-.420404E-04
       N       E                     dE             d eps       ncg     rms          rms(c)
DAV:   1    -0.702701205784E+03    0.10570E-05   -0.49204E-04  9934   0.320E-02    0.676E-03
RMM:   2    -0.702701209966E+03   -0.41824E-05   -0.17283E-05  5913   0.934E-03
  43 F= -.70270121E+03 E0= -.70267377E+03  d E =-.420841E-04
       N       E                     dE             d eps       ncg     rms          rms(c)
DAV:   1    -0.702701207235E+03   -0.14515E-05   -0.27525E-04 10095   0.237E-02    0.123E-02
RMM:   2    -0.702701260456E+03   -0.53221E-04   -0.24939E-05  6843   0.794E-03    0.137E-01
RMM:   3    -0.702701197568E+03    0.62888E-04   -0.99643E-06  5931   0.596E-03    0.159E-02
RMM:   4    -0.702701208301E+03   -0.10733E-04   -0.32179E-06  5570   0.348E-03    0.832E-03
RMM:   5    -0.702701208480E+03   -0.17886E-06   -0.11167E-06  5457   0.227E-03
  44 F= -.70270121E+03 E0= -.70267376E+03  d E =-.405983E-04
       N       E                     dE             d eps       ncg     rms          rms(c)
DAV:   1    -0.702701148579E+03    0.59722E-04   -0.24837E-02 10744   0.223E-01    0.418E-02
RMM:   2    -0.702701546500E+03   -0.39792E-03   -0.86906E-04 12884   0.568E-02    0.318E-01
RMM:   3    -0.702701189696E+03    0.35680E-03   -0.20513E-04 12495   0.247E-02    0.728E-02
RMM:   4    -0.702701239101E+03   -0.49405E-04   -0.41674E-05  7966   0.130E-02    0.439E-02
RMM:   5    -0.702701235153E+03    0.39478E-05   -0.10565E-05  6089   0.706E-03
  45 F= -.70270124E+03 E0= -.70267379E+03  d E =-.266731E-04
       N       E                     dE             d eps       ncg     rms          rms(c)
DAV:   1    -0.702701232918E+03    0.61826E-05   -0.10930E-03 11117   0.475E-02    0.132E-02
RMM:   2    -0.702701266317E+03   -0.33399E-04   -0.51996E-05  8084   0.135E-02    0.926E-02
RMM:   3    -0.702701232782E+03    0.33535E-04   -0.11773E-05  6087   0.781E-03    0.254E-02
RMM:   4    -0.702701235952E+03   -0.31703E-05   -0.41838E-06  5839   0.497E-03
  46 F= -.70270124E+03 E0= -.70267380E+03  d E =-.274720E-04
