 running    4 mpi-ranks, on    1 nodes
 distrk:  each k-point on    1 cores,    4 groups
 distr:  one band on    1 cores,    1 groups
 OpenACC runtime initialized ...    4 GPUs detected
 vasp.6.4.2 20Jul23 (build Nov 12 2023 22:16:35) complex                         
 POSCAR found type information on POSCAR O 
 POSCAR found :  1 types and       2 ions
 -----------------------------------------------------------------------------
|                                                                             |
|           W    W    AA    RRRRR   N    N  II  N    N   GGGG   !!!           |
|           W    W   A  A   R    R  NN   N  II  NN   N  G    G  !!!           |
|           W    W  A    A  R    R  N N  N  II  N N  N  G       !!!           |
|           W WW W  AAAAAA  RRRRR   N  N N  II  N  N N  G  GGG   !            |
|           WW  WW  A    A  R   R   N   NN  II  N   NN  G    G                |
|           W    W  A    A  R    R  N    N  II  N    N   GGGG   !!!           |
|                                                                             |
|     You use a magnetic or noncollinear calculation, but did not specify     |
|     the initial magnetic moment with the MAGMOM tag. Note that a            |
|     default of 1 will be used for all atoms. This ferromagnetic setup       |
|     may break the symmetry of the crystal, in particular it may rule        |
|     out finding an antiferromagnetic solution. Thence, we recommend         |
|     setting the initial magnetic moment manually or verifying carefully     |
|     that this magnetic setup is desired.                                    |
|                                                                             |
 -----------------------------------------------------------------------------

 scaLAPACK will be used selectively (only on CPU)
 -----------------------------------------------------------------------------
|                                                                             |
|               ----> ADVICE to this user running VASP <----                  |
|                                                                             |
|     You have a (more or less) 'small supercell' and for smaller cells       |
|     it is recommended to use the reciprocal-space projection scheme!        |
|     The real-space optimization is not efficient for small cells and it     |
|     is also less accurate ...                                               |
|     Therefore, set LREAL=.FALSE. in the INCAR file.                         |
|                                                                             |
 -----------------------------------------------------------------------------

 LDA part: xc-table for Pade appr. of Perdew
 POSCAR, INCAR and KPOINTS ok, starting setup
 FFT: planning ... GRIDC
 FFT: planning ... GRID_SOFT
 FFT: planning ... GRID
 WAVECAR not read
 initial charge from wavefunction
 entering main loop
       N       E                     dE             d eps       ncg     rms          ort
DAV:   1    -0.743794772334E+03   -0.74379E+03   -0.14199E+04    88   0.709E+02
DAV:   2    -0.932323776977E+03   -0.18853E+03   -0.18744E+03    88   0.502E+02
DAV:   3    -0.944823462303E+03   -0.12500E+02   -0.12379E+02    88   0.153E+02
DAV:   4    -0.945330480722E+03   -0.50702E+00   -0.50666E+00    88   0.325E+01
DAV:   5    -0.884268645206E+03    0.61062E+02   -0.13807E+01    88   0.263E+01
 gam= 0.000 g(H,U,f)=  0.608E+03 0.121E+03 0.840E-17 ort(H,U,f) = 0.000E+00 0.000E+00 0.000E+00
SDA:   6     0.235885081061E+03    0.11202E+04   -0.13807E+01    88   0.729E+03 0.000E+00
 gam= 0.000 trial= 0.400  step= 0.715 mean= 0.400
 gam= 0.330 g(H,U,f)=  0.222E+03 0.186E+02 0.548-157 ort(H,U,f) =-0.306E+03-0.337E+02 0.197-156
CGA:   7     0.920870967143E+02   -0.14380E+03   -0.26064E+03    88   0.241E+03-0.339E+03
 gam= 0.330 trial= 0.416  step= 0.395 mean= 0.416
 gam= 0.567 g(H,U,f)=  0.117E+03 0.198E+02 0.325-113 ort(H,U,f) = 0.208E+02 0.949E+01 0.104-112
CGA:   8     0.672213745259E+02   -0.24866E+02   -0.25397E+02    88   0.137E+03 0.303E+02
 gam= 0.567 trial= 0.415  step= 0.584 mean= 0.415
 gam= 0.621 g(H,U,f)=  0.806E+02 0.420E+01 0.496E-28 ort(H,U,f) =-0.681E+00 0.157E+02 0.250E-27
CGA:   9     0.200892925728E+02   -0.47132E+02   -0.44898E+02    88   0.848E+02 0.150E+02
 gam= 0.621 trial= 0.423  step= 0.415 mean= 0.423
 gam= 0.502 g(H,U,f)=  0.372E+02 0.533E+01 0.177E-46 ort(H,U,f) = 0.109E+02-0.442E+01 0.164E-45
CGA:  10     0.606413427164E+00   -0.19483E+02   -0.19527E+02    88   0.426E+02 0.644E+01
 gam= 0.502 trial= 0.423  step= 0.471 mean= 0.423
 gam= 0.277 g(H,U,f)=  0.951E+01 0.229E+01 0.402E-23 ort(H,U,f) = 0.273E+01 0.119E+01-0.117E-21
CGA:  11    -0.102925431713E+02   -0.10899E+02   -0.10785E+02    88   0.118E+02 0.393E+01
 gam= 0.277 trial= 0.425  step= 0.489 mean= 0.425
 gam= 0.385 g(H,U,f)=  0.401E+01 0.534E+00 0.643E-44 ort(H,U,f) = 0.659E+00 0.501E+00-0.939E-43
CGA:  12    -0.134898839133E+02   -0.31973E+01   -0.31509E+01    88   0.454E+01 0.116E+01
 gam= 0.385 trial= 0.428  step= 0.499 mean= 0.428
 gam= 0.354 g(H,U,f)=  0.115E+01 0.452E+00 0.683E-20 ort(H,U,f) =-0.242E+00 0.496E+00-0.197E-19
CGA:  13    -0.147463688543E+02   -0.12565E+01   -0.12451E+01    88   0.161E+01 0.254E+00
 gam= 0.354 trial= 0.432  step= 0.617 mean= 0.432
 gam= 0.453 g(H,U,f)=  0.495E+00 0.232E+00 0.333E-97 ort(H,U,f) =-0.278E+00 0.380E+00-0.274E-98
CGA:  14    -0.152774329617E+02   -0.53106E+00   -0.52270E+00    88   0.727E+00 0.102E+00
 gam= 0.453 trial= 0.441  step= 0.641 mean= 0.441
 gam= 0.511 g(H,U,f)=  0.278E+00 0.934E-01 0.479E-24 ort(H,U,f) =-0.149E+00 0.187E+00 0.559E-24
CGA:  15    -0.155290946223E+02   -0.25166E+00   -0.24781E+00    88   0.371E+00 0.379E-01
 gam= 0.511 trial= 0.451  step= 0.674 mean= 0.451
 gam= 0.443 g(H,U,f)=  0.135E+00 0.295E-01 0.463E-20 ort(H,U,f) =-0.490E-01 0.563E-01 0.126E-19
CGA:  16    -0.156613901010E+02   -0.13230E+00   -0.13165E+00    88   0.165E+00 0.731E-02
 gam= 0.443 trial= 0.462  step= 0.619 mean= 0.462
 gam= 0.449 g(H,U,f)=  0.591E-01 0.148E-01 0.149E-87 ort(H,U,f) = 0.764E-03 0.536E-02 0.708E-87
CGA:  17    -0.157137607423E+02   -0.52371E-01   -0.51953E-01    88   0.739E-01 0.612E-02
 gam= 0.449 trial= 0.470  step= 0.621 mean= 0.470
 gam= 0.462 g(H,U,f)=  0.228E-01 0.114E-01 0.636E-63 ort(H,U,f) = 0.625E-03 0.265E-02 0.753E-62
CGA:  18    -0.157378195136E+02   -0.24059E-01   -0.23794E-01    88   0.342E-01 0.328E-02
 gam= 0.462 trial= 0.478  step= 0.686 mean= 0.478
 gam= 0.550 g(H,U,f)=  0.120E-01 0.679E-02 0.457E-17 ort(H,U,f) =-0.449E-02 0.570E-02-0.405E-16
CGA:  19    -0.157501945686E+02   -0.12375E-01   -0.12229E-01    88   0.188E-01 0.120E-02
 gam= 0.550 trial= 0.488  step= 0.727 mean= 0.488
 gam= 0.567 g(H,U,f)=  0.799E-02 0.267E-02 0.107E-15 ort(H,U,f) =-0.327E-02 0.364E-02-0.184E-15
CGA:  20    -0.157573239904E+02   -0.71294E-02   -0.70719E-02    88   0.107E-01 0.374E-03
 gam= 0.567 trial= 0.500  step= 0.709 mean= 0.500
 gam= 0.530 g(H,U,f)=  0.459E-02 0.106E-02 0.139-103 ort(H,U,f) =-0.102E-02 0.110E-02 0.628-105
CGA:  21    -0.157611856876E+02   -0.38617E-02   -0.38511E-02    88   0.565E-02 0.757E-04
 gam= 0.530 trial= 0.510  step= 0.667 mean= 0.510
 gam= 0.454 g(H,U,f)=  0.197E-02 0.595E-03 0.845E-18 ort(H,U,f) =-0.196E-03 0.204E-03 0.119E-17
CGA:  22    -0.157630855431E+02   -0.18999E-02   -0.18990E-02    88   0.257E-02 0.755E-05
 gam= 0.454 trial= 0.518  step= 0.691 mean= 0.518
 gam= 0.483 g(H,U,f)=  0.868E-03 0.373E-03 0.135E-12 ort(H,U,f) =-0.164E-03 0.166E-03 0.384E-12
CGA:  23    -0.157639743891E+02   -0.88885E-03   -0.88873E-03    88   0.124E-02 0.151E-05
 gam= 0.483 trial= 0.527  step= 0.711 mean= 0.527
 gam= 0.533 g(H,U,f)=  0.459E-03 0.202E-03 0.141E-63 ort(H,U,f) =-0.179E-03 0.181E-03 0.921E-63
CGA:  24    -0.157644161247E+02   -0.44174E-03   -0.44154E-03    88   0.661E-03 0.222E-05
 gam= 0.533 trial= 0.536  step= 0.718 mean= 0.536
 gam= 0.552 g(H,U,f)=  0.275E-03 0.895E-04 0.618E-24 ort(H,U,f) =-0.110E-03 0.112E-03-0.130E-22
CGA:  25    -0.157646541212E+02   -0.23800E-03   -0.23785E-03    88   0.365E-03 0.186E-05
 gam= 0.552 trial= 0.545  step= 0.712 mean= 0.545
 gam= 0.533 g(H,U,f)=  0.156E-03 0.391E-04 0.479E-28 ort(H,U,f) =-0.363E-04 0.374E-04-0.131E-27
CGA:  26    -0.157647845622E+02   -0.13044E-03   -0.13036E-03    88   0.195E-03 0.102E-05
 gam= 0.533 trial= 0.554  step= 0.680 mean= 0.554
 gam= 0.504 g(H,U,f)=  0.757E-04 0.224E-04 0.496E-18 ort(H,U,f) =-0.778E-05 0.790E-05-0.202E-18
CGA:  27    -0.157648509019E+02   -0.66340E-04   -0.66333E-04    88   0.982E-04 0.114E-06
 gam= 0.504 trial= 0.560  step= 0.673 mean= 0.560
 gam= 0.484 g(H,U,f)=  0.331E-04 0.143E-04 0.364E-15 ort(H,U,f) =-0.602E-05 0.547E-05 0.358E-15
CGA:  28    -0.157648839086E+02   -0.33007E-04   -0.33037E-04    88   0.475E-04-0.551E-06
 gam= 0.484 trial= 0.566  step= 0.730 mean= 0.566
 gam= 0.544 g(H,U,f)=  0.178E-04 0.805E-05 0.145E-15 ort(H,U,f) =-0.688E-05 0.613E-05 0.364E-15
CGA:  29    -0.157649010798E+02   -0.17171E-04   -0.17232E-04    88   0.258E-04-0.750E-06
 gam= 0.544 trial= 0.574  step= 0.734 mean= 0.574
 gam= 0.563 g(H,U,f)=  0.106E-04 0.392E-05 0.558E-17 ort(H,U,f) =-0.478E-05 0.417E-05 0.385E-16
CGA:  30    -0.157649103635E+02   -0.92837E-05   -0.93322E-05    88   0.146E-04-0.604E-06
 gam= 0.563 trial= 0.582  step= 0.757 mean= 0.582
 final diagonalization
   1 F= -.15764910E+02 E0= -.15764910E+02  d E =-.195092E-15  mag=     2.0000
 writing wavefunctions
Warning: ieee_invalid is signaling
Warning: ieee_divide_by_zero is signaling
Warning: ieee_underflow is signaling
Warning: ieee_inexact is signaling
FORTRAN STOP
Warning: ieee_invalid is signaling
Warning: ieee_divide_by_zero is signaling
Warning: ieee_underflow is signaling
Warning: ieee_inexact is signaling
FORTRAN STOP
Warning: ieee_invalid is signaling
Warning: ieee_divide_by_zero is signaling
Warning: ieee_underflow is signaling
Warning: ieee_inexact is signaling
FORTRAN STOP
Warning: ieee_invalid is signaling
Warning: ieee_divide_by_zero is signaling
Warning: ieee_underflow is signaling
Warning: ieee_inexact is signaling
FORTRAN STOP
