 vasp.6.4.2 20Jul23 (build Nov 12 2023 22:16:35) complex                         
 executed on              LinuxNV date 2025.03.09  14:17:39
 running    4 mpi-ranks, on    1 nodes
 distrk:  each k-point on    1 cores,    4 groups
 distr:  one band on NCORE=   1 cores,    1 groups
 OpenACC runtime initialized ...    4 GPUs detected


--------------------------------------------------------------------------------------------------------


 INCAR:
   PREC = Normal
   ENCUT = 450
   NELM = 500
   IBRION = -1
   ISPIN = 2
   NSW = 0
   ISIF = 2
   EDIFF = 1E-5
   EDIFFG = -5E-3
   ISTART = 0
   ICHARG = 0
   ISMEAR = 0
   SIGMA = 0.01
   LWAVE = .T.
   LCHARG = .T.
   LREAL = Auto
   LPLANE = .TRUE.
   NPAR = 1
   KPAR = 4
   NCORE = 1
   ALGO = All
   LHFCALC = .TRUE.
   HSE06 = .TRUE.
   HFSCREEN = 0.18
   TIME = 0.4
   AEXX = 0.35
   LMAXFOCK = 4
   PRECFOCK = Fast

 POTCAR:    PAW_PBE O 08Apr2002                   
 -----------------------------------------------------------------------------
|                                                                             |
|           W    W    AA    RRRRR   N    N  II  N    N   GGGG   !!!           |
|           W    W   A  A   R    R  NN   N  II  NN   N  G    G  !!!           |
|           W    W  A    A  R    R  N N  N  II  N N  N  G       !!!           |
|           W WW W  AAAAAA  RRRRR   N  N N  II  N  N N  G  GGG   !            |
|           WW  WW  A    A  R   R   N   NN  II  N   NN  G    G                |
|           W    W  A    A  R    R  N    N  II  N    N   GGGG   !!!           |
|                                                                             |
|     You use a magnetic or noncollinear calculation, but did not specify     |
|     the initial magnetic moment with the MAGMOM tag. Note that a            |
|     default of 1 will be used for all atoms. This ferromagnetic setup       |
|     may break the symmetry of the crystal, in particular it may rule        |
|     out finding an antiferromagnetic solution. Thence, we recommend         |
|     setting the initial magnetic moment manually or verifying carefully     |
|     that this magnetic setup is desired.                                    |
|                                                                             |
 -----------------------------------------------------------------------------

 POTCAR:    PAW_PBE O 08Apr2002                   
   SHA256 =  818f92134a0a090dccd8ba1447fa70422a3b330e708bb4f08108d8ae51209ddf O/POTCAR              
   COPYR  = (c) Copyright 08Apr2002 Georg Kresse                                                    
   COPYR  = This file is part of the software VASP. Any use, copying, and all other rights are regul
   COPYR  = If you do not have a valid VASP license, you may not use, copy or distribute this file. 
   VRHFIN =O: s2p4                                                                                  
   LEXCH  = PE                                                                                      
   EATOM  =   432.3788 eV,   31.7789 Ry                                                             
                                                                                                    
   TITEL  = PAW_PBE O 08Apr2002                                                                     
   LULTRA =        F    use ultrasoft PP ?                                                          
   IUNSCR =        1    unscreen: 0-lin 1-nonlin 2-no                                               
   RPACOR =    1.200    partial core radius                                                         
   POMASS =   16.000; ZVAL   =    6.000    mass and valenz                                          
   RCORE  =    1.520    outmost cutoff radius                                                       
   RWIGS  =    1.550; RWIGS  =    0.820    wigner-seitz radius (au A)                               
   ENMAX  =  400.000; ENMIN  =  300.000 eV                                                          
   ICORE  =        2    local potential                                                             
   LCOR   =        T    correct aug charges                                                         
   LPAW   =        T    paw PP                                                                      
   EAUG   =  605.392                                                                                
   DEXC   =    0.000                                                                                
   RMAX   =    1.553    core radius for proj-oper                                                   
   RAUG   =    1.300    factor for augmentation sphere                                              
   RDEP   =    1.550    radius for radial grids                                                     
   RDEPT  =    1.329    core radius for aug-charge                                                  
                                                                                                    
   Atomic configuration                                                                             
    4 entries                                                                                       
     n  l   j            E        occ.                                                              
     1  0  0.50      -514.6923   2.0000                                                             
     2  0  0.50       -23.9615   2.0000                                                             
     2  1  0.50        -9.0305   4.0000                                                             
     3  2  1.50        -9.5241   0.0000                                                             
   Description                                                                                      
     l       E           TYP  RCUT    TYP  RCUT                                                     
     0    -23.9615318     23  1.200                                                                 
     0     -9.5240782     23  1.200                                                                 
     1     -9.0304911     23  1.520                                                                 
     1      8.1634956     23  1.520                                                                 
     2     -9.5240782      7  1.500                                                                 
  local pseudopotential read in
  partial core-charges read in
  partial kinetic energy density read in
  kinetic energy density of atom read in
  atomic valenz-charges read in
  non local Contribution for L=            0  read in
    real space projection operators read in
  non local Contribution for L=            0  read in
    real space projection operators read in
  non local Contribution for L=            1  read in
    real space projection operators read in
  non local Contribution for L=            1  read in
    real space projection operators read in
    PAW grid and wavefunctions read in
 
   number of l-projection  operators is LMAX  =            4
   number of lm-projection operators is LMMAX =            8
 
 -----------------------------------------------------------------------------
|                                                                             |
|               ----> ADVICE to this user running VASP <----                  |
|                                                                             |
|     You have a (more or less) 'small supercell' and for smaller cells       |
|     it is recommended to use the reciprocal-space projection scheme!        |
|     The real-space optimization is not efficient for small cells and it     |
|     is also less accurate ...                                               |
|     Therefore, set LREAL=.FALSE. in the INCAR file.                         |
|                                                                             |
 -----------------------------------------------------------------------------

 Optimization of the real space projectors (new method)

 maximal supplied QI-value         = 24.76
 optimisation between [QCUT,QGAM] = [ 10.64, 21.54] = [ 31.73,129.89] Ry 
 Optimized for a Real-space Cutoff    1.23 Angstroem

   l    n(q)    QCUT    max X(q) W(low)/X(q) W(high)/X(q)  e(spline) 
   0      8    10.645    20.381    0.38E-03    0.60E-03    0.15E-06
   0      8    10.645    15.268    0.40E-03    0.65E-03    0.17E-06
   1      7    10.645     5.964    0.30E-03    0.63E-03    0.18E-06
   1      7    10.645     5.382    0.24E-03    0.53E-03    0.16E-06
  PAW_PBE O 08Apr2002                   :
 energy of atom  1       EATOM= -432.3788
 kinetic energy error for atom=    0.0389 (will be added to EATOM!!)
 
 
 POSCAR: O
  positions in direct lattice
  velocities in cartesian coordinates
 exchange correlation table for  LEXCH =        8
   RHO(1)=    0.500       N(1)  =     2000
   RHO(2)=  100.500       N(2)  =     4000
 


--------------------------------------------------------------------------------------------------------


 ion  position               nearest neighbor table
   1  0.000  0.000  0.998-   2 1.23
   2  0.000  0.000  0.137-   1 1.23
 
  LATTYP: Found a simple orthorhombic cell.
 ALAT       =     7.5000000000
 B/A-ratio  =     1.0666666667
 C/A-ratio  =     1.1866666667
  
  Lattice vectors:
  
 A1 = (   7.5000000000,   0.0000000000,   0.0000000000)
 A2 = (   0.0000000000,   8.0000000000,   0.0000000000)
 A3 = (   0.0000000000,   0.0000000000,   8.9000000000)


Analysis of symmetry for initial positions (statically):
=====================================================================
 Subroutine PRICEL returns:
 Original cell was already a primitive cell.
 

 Routine SETGRP: Setting up the symmetry group for a 
 simple orthorhombic supercell.


 Subroutine GETGRP returns: Found  8 space group operations
 (whereof  4 operations were pure point group operations)
 out of a pool of  8 trial point group operations.


The static configuration has the point symmetry C_2v.
 The point group associated with its full space group is D_2h.


Analysis of symmetry for dynamics (positions and initial velocities):
=====================================================================
 Subroutine PRICEL returns:
 Original cell was already a primitive cell.
 

 Routine SETGRP: Setting up the symmetry group for a 
 simple orthorhombic supercell.


 Subroutine GETGRP returns: Found  8 space group operations
 (whereof  4 operations were pure point group operations)
 out of a pool of  8 trial point group operations.


The dynamic configuration has the point symmetry C_2v.
 The point group associated with its full space group is D_2h.


Analysis of structural, dynamic, and magnetic symmetry:
=====================================================================
 Subroutine PRICEL returns:
 Original cell was already a primitive cell.
 

 Routine SETGRP: Setting up the symmetry group for a 
 simple orthorhombic supercell.


 Subroutine GETGRP returns: Found  8 space group operations
 (whereof  4 operations were pure point group operations)
 out of a pool of  8 trial point group operations.


The overall configuration has the point symmetry C_2v.
 The point group associated with its full space group is D_2h.


 Subroutine INISYM returns: Found  8 space group operations
 (whereof  4 operations are pure point group operations),
 and found     1 'primitive' translations


----------------------------------------------------------------------------------------

                                     Primitive cell                                     

  volume of cell :     534.0000

  direct lattice vectors                    reciprocal lattice vectors
     7.500000000  0.000000000  0.000000000     0.133333333  0.000000000  0.000000000
     0.000000000  8.000000000  0.000000000     0.000000000  0.125000000  0.000000000
     0.000000000  0.000000000  8.900000000     0.000000000  0.000000000  0.112359551

  length of vectors
     7.500000000  8.000000000  8.900000000     0.133333333  0.125000000  0.112359551

  position of ions in fractional coordinates (direct lattice)
     0.000000000  0.000000000  0.998121102
     0.000000000  0.000000000  0.136710359

  ion indices of the primitive-cell ions
   primitive index   ion index
                 1           1
                 2           2

----------------------------------------------------------------------------------------

 
 
 KPOINTS: Automatic mesh                          

Automatic generation of k-mesh.
 Grid dimensions read from file:
 generate k-points for:    2    2    2

 Generating k-lattice:

  Cartesian coordinates                     Fractional coordinates (reciprocal lattice)
     0.066666667  0.000000000  0.000000000     0.500000000  0.000000000  0.000000000
     0.000000000  0.062500000  0.000000000     0.000000000  0.500000000  0.000000000
     0.000000000  0.000000000  0.056179775     0.000000000  0.000000000  0.500000000

  Length of vectors
     0.066666667  0.062500000  0.056179775

  Shift w.r.t. Gamma in fractional coordinates (k-lattice)
     0.000000000  0.000000000  0.000000000

 
 Subroutine IBZKPT returns following result:
 ===========================================
 
 Found      8 irreducible k-points:
 
 Following reciprocal coordinates:
            Coordinates               Weight
  0.000000  0.000000  0.000000      1.000000
  0.500000  0.000000  0.000000      1.000000
  0.000000  0.500000  0.000000      1.000000
  0.500000  0.500000  0.000000      1.000000
  0.000000  0.000000  0.500000      1.000000
  0.500000  0.000000  0.500000      1.000000
  0.000000  0.500000  0.500000      1.000000
  0.500000  0.500000  0.500000      1.000000
 
 Following cartesian coordinates:
            Coordinates               Weight
  0.000000  0.000000  0.000000      1.000000
  0.066667  0.000000  0.000000      1.000000
  0.000000  0.062500  0.000000      1.000000
  0.066667  0.062500  0.000000      1.000000
  0.000000  0.000000  0.056180      1.000000
  0.066667  0.000000  0.056180      1.000000
  0.000000  0.062500  0.056180      1.000000
  0.066667  0.062500  0.056180      1.000000
 
 
 Subroutine IBZKPT_HF returns following result:
 ==============================================
 
 Found      8 k-points in 1st BZ
 the following      8 k-points will be used (e.g. in the exchange kernel)
 Following reciprocal coordinates:   # in IRBZ
  0.000000  0.000000  0.000000    0.12500000   1 t-inv F
  0.500000  0.000000  0.000000    0.12500000   2 t-inv F
  0.000000  0.500000  0.000000    0.12500000   3 t-inv F
  0.500000  0.500000  0.000000    0.12500000   4 t-inv F
  0.000000  0.000000  0.500000    0.12500000   5 t-inv F
  0.500000  0.000000  0.500000    0.12500000   6 t-inv F
  0.000000  0.500000  0.500000    0.12500000   7 t-inv F
  0.500000  0.500000  0.500000    0.12500000   8 t-inv F


--------------------------------------------------------------------------------------------------------




 Dimension of arrays:
   k-points           NKPTS =      8   k-points in BZ     NKDIM =      8   number of bands    NBANDS=     11
   number of dos      NEDOS =    301   number of ions     NIONS =      2
   non local maximal  LDIM  =      4   non local SUM 2l+1 LMDIM =      8
   total plane-waves  NPLWV =  80640
   max r-space proj   IRMAX =   1218   max aug-charges    IRDMAX=   2158
   dimension x,y,z NGX =    40 NGY =   42 NGZ =   48
   dimension x,y,z NGXF=    80 NGYF=   84 NGZF=   96
   support grid    NGXF=    80 NGYF=   84 NGZF=   96
   ions per type =               2
   NGX,Y,Z   is equivalent  to a cutoff of   8.87,  8.73,  8.97 a.u.
   NGXF,Y,Z  is equivalent  to a cutoff of  17.73, 17.46, 17.93 a.u.

 SYSTEM =  unknown system                          
 POSCAR =  O                                       

 Startparameter for this run:
   NWRITE =      2    write-flag & timer
   PREC   = normal    normal or accurate (medium, high low for compatibility)
   ISTART =      0    job   : 0-new  1-cont  2-samecut
   ICHARG =      0    charge: 1-file 2-atom 10-const
   ISPIN  =      2    spin polarized calculation?
   LNONCOLLINEAR =      F non collinear calculations
   LSORBIT =      F    spin-orbit coupling
   INIWAV =      1    electr: 0-lowe 1-rand  2-diag
   LASPH  =      F    aspherical Exc in radial PAW
 Electronic Relaxation 1
   ENCUT  =  450.0 eV  33.07 Ry    5.75 a.u.  12.97 13.84 15.39*2*pi/ulx,y,z
   ENINI  =  450.0     initial cutoff
   ENAUG  =  605.4 eV  augmentation charge cutoff
   NELM   =    500;   NELMIN=  2; NELMDL= -5     # of ELM steps 
   EDIFF  = 0.1E-04   stopping-criterion for ELM
   LREAL  =      T    real-space projection
   NLSPLINE    = F    spline interpolate recip. space projectors
   LCOMPAT=      F    compatible to vasp.4.4
   GGA_COMPAT  = T    GGA compatible to vasp.4.4-vasp.4.6
   LMAXPAW     = -100 max onsite density
   LMAXMIX     =    2 max onsite mixed and CHGCAR
   VOSKOWN=      0    Vosko Wilk Nusair interpolation
   ROPT   =   -0.00050
 Ionic relaxation
   EDIFFG = -.5E-02   stopping-criterion for IOM
   NSW    =      0    number of steps for IOM
   NBLOCK =      1;   KBLOCK =      1    inner block; outer block 
   IBRION =     -1    ionic relax: 0-MD 1-quasi-New 2-CG
   NFREE  =      0    steps in history (QN), initial steepest desc. (CG)
   ISIF   =      2    stress and relaxation
   IWAVPR =     10    prediction:  0-non 1-charg 2-wave 3-comb
   ISYM   =      3    0-nonsym 1-usesym 2-fastsym
   LCORR  =      T    Harris-Foulkes like correction to forces

   POTIM  = 0.5000    time-step for ionic-motion
   TEIN   =    0.0    initial temperature
   TEBEG  =    0.0;   TEEND  =   0.0 temperature during run
   SMASS  =  -3.00    Nose mass-parameter (am)
   estimated Nose-frequenzy (Omega)   =  0.10E-29 period in steps = 0.13E+47 mass=  -0.129E-26a.u.
   SCALEE = 1.0000    scale energy and forces
   NPACO  =    256;   APACO  = 10.0  distance and # of slots for P.C.
   PSTRESS=    0.0 pullay stress

  Mass of Ions in am
   POMASS =  16.00
  Ionic Valenz
   ZVAL   =   6.00
  Atomic Wigner-Seitz radii
   RWIGS  =  -1.00
  virtual crystal weights 
   VCA    =   1.00
   NELECT =      12.0000    total number of electrons
   NUPDOWN=      -1.0000    fix difference up-down

 DOS related values:
   EMIN   =  10.00;   EMAX   =-10.00  energy-range for DOS
   EFERMI =   0.00;   METHOD = LEGACY      
   ISMEAR =     0;   SIGMA  =   0.01  broadening in eV -4-tet -1-fermi 0-gaus

 Electronic relaxation 2 (details)
   IALGO  =     58    algorithm
   LDIAG  =      T    sub-space diagonalisation (order eigenvalues)
   LSUBROT=      F    optimize rotation matrix (better conditioning)
   TURBO    =      0    0=normal 1=particle mesh
   IRESTART =      0    0=no restart 2=restart with 2 vectors
   NREBOOT  =      0    no. of reboots
   NMIN     =      0    reboot dimension
   EREF     =   0.00    reference energy to select bands
   IMIX   =      4    mixing-type and parameters
     AMIX     =   0.40;   BMIX     =  1.00
     AMIX_MAG =   1.60;   BMIX_MAG =  1.00
     AMIN     =   0.10
     WC   =   100.;   INIMIX=   1;  MIXPRE=   1;  MAXMIX= -45

 Intra band minimization:
   WEIMIN = 0.0000     energy-eigenvalue tresh-hold
   EBREAK =  0.23E-06  absolut break condition
   DEPER  =   0.30     relativ break condition  

   TIME   =   0.40     timestep for ELM

  volume/ion in A,a.u.               =     267.00      1801.80
  Fermi-wavevector in a.u.,A,eV,Ry     =   0.461978  0.873012  2.903808  0.213424
  Thomas-Fermi vector in A             =   1.449321
 
 Write flags
   LWAVE        =      T    write WAVECAR
   LDOWNSAMPLE  =      F    k-point downsampling of WAVECAR
   LCHARG       =      T    write CHGCAR
   LVTOT        =      F    write LOCPOT, total local potential
   LVHAR        =      F    write LOCPOT, Hartree potential only
   LELF         =      F    write electronic localiz. function (ELF)
   LORBIT       =      0    0 simple, 1 ext, 2 COOP (PROOUT), +10 PAW based schemes


 Dipole corrections
   LMONO  =      F    monopole corrections only (constant potential shift)
   LDIPOL =      F    correct potential (dipole corrections)
   IDIPOL =      0    1-x, 2-y, 3-z, 4-all directions 
   EPSILON=  1.0000000 bulk dielectric constant

 Exchange correlation treatment:
   GGA     =    --    GGA type
   LEXCH   =     8    internal setting for exchange type
   LIBXC   =     F    Libxc                    
   VOSKOWN =     0    Vosko Wilk Nusair interpolation
   EXXOEP  =     0    0=HF, 1=EXX-LHF (local Hartree Fock) 2=EXX OEP
   LHFCALC =     T    Hartree Fock is set to
   LSYMGRAD=     F    symmetrize gradient (conserves proper symmetry)
   PRECFOCK=fast      Normal, Fast or Accurate (Low or Medium for compatibility)
   LRHFCALC=     F    long range Hartree Fock
   LRSCOR  =     F    long range correlation only (use DFT for short range part)
   LTHOMAS =     F    Thomas Fermi screening in HF
   LMODELHF=     F    short range full HF, long range fraction AEXX
   FOCKCORR=     1    mode to apply convergence corrections
   LFOCKACE=     T    use Adeptively-Compressed-Exchange operator
   ENCUT4O =  -1.0   cutoff for four orbital integrals eV
   LMAXFOCK=     4    L truncation for augmentation on plane wave grid
   LMAXFOCKAE=  -1    L truncation for all-electron charge restoration on plane wave grid
   NMAXFOCKAE=   1    number of basis functions for all-electron charge restoration
   LFOCKAEDFT=     F  apply the AE augmentation even for DFT
   NKREDX  =     1    reduce k-point grid by
   NKREDY  =     1    reduce k-point grid by
   NKREDZ  =     1    reduce k-point grid by
   SHIFTRED=     F    shift reduced grid of Gamma
   HFKIDENT=     F    idential grid for each k-point
   ODDONLY =     F    use only odd q-grid points
   EVENONLY=     F    use only even q-grid points
   HFALPHA =   -1.0000 decay constant for conv. correction
   MCALPHA =    0.0000 extent of test-charge in conv. correction in multipole expansion
   AEXX    =    0.3500 exact exchange contribution
   HFSCREEN=    0.1800 screening length (either q_TF or 0.3 A-1)
   HFSCREENC=   0.1800 screening length for correlation (either q_TF or 0.3 A-1)
   HFRCUT  =    0.0000 spherical cutoff for potential kernel
   ALDAX   =    0.6500 LDA exchange part
   AGGAX   =    0.6500 GGA exchange part
   ALDAC   =    1.0000 LDA correlation
   AGGAC   =    1.0000 GGA correlation
   ENCUTFOCK=  -1.0 apply spherical cutoff to Coloumb kernel
   NBANDSGWLOW=     1    first orbital included in HF term
   NBLOCK_FOCK=    64    blocking factor in FOCK_ACC

 Linear response parameters
   LEPSILON=     F    determine dielectric tensor
   LRPA    =     F    only Hartree local field effects (RPA)
   LNABLA  =     F    use nabla operator in PAW spheres
   LVEL    =     F    velocity operator in full k-point grid
   CSHIFT  =0.1000    complex shift for real part using Kramers Kronig
   OMEGAMAX=  -1.0    maximum frequency
   DEG_THRESHOLD= 0.2000000E-02 threshold for treating states as degnerate
   RTIME   =   -0.100 relaxation time in fs
  (WPLASMAI=    0.000 imaginary part of plasma frequency in eV, 0.658/RTIME)
   DFIELD  = 0.0000000 0.0000000 0.0000000 field for delta impulse in time
 
  Optional k-point grid parameters
   LKPOINTS_OPT  =     F    use optional k-point grid
   KPOINTS_OPT_MODE=     1    mode for optional k-point grid
 
 Orbital magnetization related:
   ORBITALMAG=     F  switch on orbital magnetization
   LCHIMAG   =     F  perturbation theory with respect to B field
   DQ        =  0.001000  dq finite difference perturbation B field
   LLRAUG    =     F  two centre corrections for induced B field
   LBONE     =     F  B-component reconstruction in AE one-centre
   LVGVCALC  =     T  calculate vGv susceptibility
   LVGVAPPL  =     F  apply vGv susceptibility instead of pGv for G=0

 Random number generation:
   RANDOM_GENERATOR = DEFAULT
   PCG_SEED         = not used


--------------------------------------------------------------------------------------------------------


 Static calculation
 charge density and potential will be updated during run
 spin polarized calculation
 Conjugate gradient for all bands (Freysoldt, et al. PRB 79, 241103 (2009))
 preconditioned conjugated gradient                                        
 perform sub-space diagonalisation
    before iterative eigenvector-optimisation
 modified Broyden-mixing scheme, WC =      100.0
 initial mixing is a Kerker type mixing with AMIX =  0.4000 and BMIX =      1.0000
 Hartree-type preconditioning will be used
 using additional bands             5
 real space projection scheme for non local part
 use partial core corrections
 no Harris-corrections to forces 
 use gradient corrections 
 use of overlap-Matrix (Vanderbilt PP)
 Gauss-broadening in eV      SIGMA  =   0.01


--------------------------------------------------------------------------------------------------------


  energy-cutoff  :      450.00
  volume of cell :      534.00
      direct lattice vectors                 reciprocal lattice vectors
     7.500000000  0.000000000  0.000000000     0.133333333  0.000000000  0.000000000
     0.000000000  8.000000000  0.000000000     0.000000000  0.125000000  0.000000000
     0.000000000  0.000000000  8.900000000     0.000000000  0.000000000  0.112359551

  length of vectors
     7.500000000  8.000000000  8.900000000     0.133333333  0.125000000  0.112359551


 
 k-points in units of 2pi/SCALE and weight: Automatic mesh                          
   0.00000000  0.00000000  0.00000000       0.125
   0.06666667  0.00000000  0.00000000       0.125
   0.00000000  0.06250000  0.00000000       0.125
   0.06666667  0.06250000  0.00000000       0.125
   0.00000000  0.00000000  0.05617978       0.125
   0.06666667  0.00000000  0.05617978       0.125
   0.00000000  0.06250000  0.05617978       0.125
   0.06666667  0.06250000  0.05617978       0.125
 
 k-points in reciprocal lattice and weights: Automatic mesh                          
   0.00000000  0.00000000  0.00000000       0.125
   0.50000000  0.00000000  0.00000000       0.125
   0.00000000  0.50000000  0.00000000       0.125
   0.50000000  0.50000000  0.00000000       0.125
   0.00000000  0.00000000  0.50000000       0.125
   0.50000000  0.00000000  0.50000000       0.125
   0.00000000  0.50000000  0.50000000       0.125
   0.50000000  0.50000000  0.50000000       0.125
 
 position of ions in fractional coordinates (direct lattice) 
   0.00000000  0.00000000  0.99812110
   0.00000000  0.00000000  0.13671036
 
 position of ions in cartesian coordinates  (Angst):
   0.00000000  0.00000000  8.88327781
   0.00000000  0.00000000  1.21672219
 


--------------------------------------------------------------------------------------------------------


 k-point   1 :   0.0000 0.0000 0.0000  plane waves:   11565
 k-point   2 :   0.5000 0.0000 0.0000  plane waves:   11594
 k-point   3 :   0.0000 0.5000 0.0000  plane waves:   11568
 k-point   4 :   0.5000 0.5000 0.0000  plane waves:   11596
 k-point   5 :   0.0000 0.0000 0.5000  plane waves:   11570
 k-point   6 :   0.5000 0.0000 0.5000  plane waves:   11560
 k-point   7 :   0.0000 0.5000 0.5000  plane waves:   11576
 k-point   8 :   0.5000 0.5000 0.5000  plane waves:   11576

 maximum and minimum number of plane-waves per node :     11596    11560

 maximum number of plane-waves:     11596
 maximum index in each direction: 
   IXMAX=   12   IYMAX=   13   IZMAX=   15
   IXMIN=  -13   IYMIN=  -14   IZMIN=  -15


 serial   3D FFT for wavefunctions
 parallel 3D FFT for charge:
    minimum data exchange during FFTs selected (reduces bandwidth)


 FFT grid for exact exchange (Hartree Fock) 
  NGX = 28; NGY = 30; NGZ = 36

 
 Radii for the augmentation spheres in the non-local exchange
 for species   1 augmentation radius   0.974 (default was   0.722)
       energy cutoff for augmentation   1800.0
 Maximum index for augmentation-charges in exchange           228
  SETUP_FOCK is finished

 total amount of memory used by VASP MPI-rank0   204479. kBytes
=======================================================================

   base      :      30000. kBytes
   nonlr-proj:        244. kBytes
   fftplans  :      22416. kBytes
   grid      :      53706. kBytes
   one-center:         12. kBytes
   HF        :          4. kBytes
   wavefun   :      98097. kBytes
 
     INWAV:  cpu time      0.0000: real time      0.0001
 Broyden mixing: mesh for mixing (old mesh)
   NGX = 25   NGY = 27   NGZ = 31
  (NGX  = 80   NGY  = 84   NGZ  = 96)
  gives a total of  20925 points

 charge density for first step will be calculated from the start-wavefunctions


--------------------------------------------------------------------------------------------------------


 Maximum index for non-local projection operator          1151
 Maximum index for augmentation-charges          1907 (set IRDMAX)


--------------------------------------------------------------------------------------------------------


 initial charge from wavefunction
 First call to EWALD:  gamma=   0.218
 Maximum number of real-space cells 3x 3x 3
 Maximum number of reciprocal cells 3x 3x 3

    FEWALD:  cpu time      0.0021: real time      0.0021


--------------------------------------- Ionic step        1  -------------------------------------------




--------------------------------------- Iteration      1(   1)  ---------------------------------------


    POTLOK:  cpu time      0.0443: real time      0.0443
    SETDIJ:  cpu time      0.0200: real time      0.0200
    TRIAL :  cpu time      0.2184: real time      0.2260
    CORREC:  cpu time      0.0001: real time      0.0001
    --------------------------------------------
      LOOP:  cpu time      0.3088: real time      0.3164

 eigenvalue-minimisations  :   704
 total energy-change (2. order) :-0.7437948E+03  (-0.1419894E+04)
 number of electron      12.0000007 magnetization       0.2500001
 augmentation part       -0.1105337 magnetization      -0.0188525

 Free energy of the ion-electron system (eV)
  ---------------------------------------------------
  alpha Z        PSCENC =         1.04085735
  Ewald energy   TEWEN  =        62.39013857
  -Hartree energ DENC   =        -2.37317484
  -exchange      EXHF   =         0.00000000
  -V(xc)+E(xc)   XCENC  =        14.22242441
  PAW double counting   =        19.78564630     -106.69480540
  entropy T*S    EENTRO =        -0.00000000
  eigenvalues    EBANDS =     -1588.55573369
  atomic energy  EATOM  =       856.38987498
  ---------------------------------------------------
  free energy    TOTEN  =      -743.79477233 eV

  energy without entropy =     -743.79477233  energy(sigma->0) =     -743.79477233
  exchange ACFDT corr.  =         0.00000000  see jH, gK, PRB 81, 115126


--------------------------------------------------------------------------------------------------------




--------------------------------------- Iteration      1(   2)  ---------------------------------------


    TRIAL :  cpu time      0.0956: real time      0.0956
    CORREC:  cpu time      0.0003: real time      0.0003
    --------------------------------------------
      LOOP:  cpu time      0.0963: real time      0.0970

 eigenvalue-minimisations  :   439
 total energy-change (2. order) :-0.1885290E+03  (-0.1874399E+03)
 number of electron      12.0000007 magnetization       0.2500001
 augmentation part       -0.1105337 magnetization      -0.0188525

 Free energy of the ion-electron system (eV)
  ---------------------------------------------------
  alpha Z        PSCENC =         1.04085735
  Ewald energy   TEWEN  =        62.39013857
  -Hartree energ DENC   =        -2.37317484
  -exchange      EXHF   =         0.00000000
  -V(xc)+E(xc)   XCENC  =        14.22242441
  PAW double counting   =        19.78564630     -106.69480540
  entropy T*S    EENTRO =        -0.00000000
  eigenvalues    EBANDS =     -1777.08473833
  atomic energy  EATOM  =       856.38987498
  ---------------------------------------------------
  free energy    TOTEN  =      -932.32377698 eV

  energy without entropy =     -932.32377698  energy(sigma->0) =     -932.32377698
  exchange ACFDT corr.  =         0.00000000  see jH, gK, PRB 81, 115126


--------------------------------------------------------------------------------------------------------




--------------------------------------- Iteration      1(   3)  ---------------------------------------


    TRIAL :  cpu time      0.0920: real time      0.0920
    CORREC:  cpu time      0.0004: real time      0.0004
    --------------------------------------------
      LOOP:  cpu time      0.0925: real time      0.0929

 eigenvalue-minimisations  :   430
 total energy-change (2. order) :-0.1249969E+02  (-0.1237909E+02)
 number of electron      12.0000007 magnetization       0.2500001
 augmentation part       -0.1105337 magnetization      -0.0188525

 Free energy of the ion-electron system (eV)
  ---------------------------------------------------
  alpha Z        PSCENC =         1.04085735
  Ewald energy   TEWEN  =        62.39013857
  -Hartree energ DENC   =        -2.37317484
  -exchange      EXHF   =         0.00000000
  -V(xc)+E(xc)   XCENC  =        14.22242441
  PAW double counting   =        19.78564630     -106.69480540
  entropy T*S    EENTRO =        -0.00001504
  eigenvalues    EBANDS =     -1789.58440862
  atomic energy  EATOM  =       856.38987498
  ---------------------------------------------------
  free energy    TOTEN  =      -944.82346230 eV

  energy without entropy =     -944.82344727  energy(sigma->0) =     -944.82345479
  exchange ACFDT corr.  =         0.00000000  see jH, gK, PRB 81, 115126


--------------------------------------------------------------------------------------------------------




--------------------------------------- Iteration      1(   4)  ---------------------------------------


    TRIAL :  cpu time      0.0824: real time      0.0823
    CORREC:  cpu time      0.0003: real time      0.0003
    --------------------------------------------
      LOOP:  cpu time      0.0828: real time      0.0832

 eigenvalue-minimisations  :   409
 total energy-change (2. order) :-0.5070184E+00  (-0.5066596E+00)
 number of electron      12.0000007 magnetization       0.2500001
 augmentation part       -0.1105337 magnetization      -0.0188525

 Free energy of the ion-electron system (eV)
  ---------------------------------------------------
  alpha Z        PSCENC =         1.04085735
  Ewald energy   TEWEN  =        62.39013857
  -Hartree energ DENC   =        -2.37317484
  -exchange      EXHF   =         0.00000000
  -V(xc)+E(xc)   XCENC  =        14.22242441
  PAW double counting   =        19.78564630     -106.69480540
  entropy T*S    EENTRO =        -0.00000000
  eigenvalues    EBANDS =     -1790.09144207
  atomic energy  EATOM  =       856.38987498
  ---------------------------------------------------
  free energy    TOTEN  =      -945.33048072 eV

  energy without entropy =     -945.33048072  energy(sigma->0) =     -945.33048072
  exchange ACFDT corr.  =         0.00000000  see jH, gK, PRB 81, 115126


--------------------------------------------------------------------------------------------------------




--------------------------------------- Iteration      1(   5)  ---------------------------------------


    POTLOK:  cpu time      1.3013: real time      1.3012
    SETDIJ:  cpu time      0.0771: real time      0.0771
    TRIAL :  cpu time      0.1708: real time      0.1708
    CORREC:  cpu time      0.0001: real time      0.0001
    CHARGE:  cpu time      0.0417: real time      0.0417
    --------------------------------------------
      LOOP:  cpu time      1.5914: real time      1.5914

 eigenvalue-minimisations  :   394
 total energy-change (2. order) : 0.6106184E+02  (-0.1380743E+01)
 number of electron      11.9999827 magnetization       1.9999935
 augmentation part        2.2140864 magnetization       0.7554298

 Free energy of the ion-electron system (eV)
  ---------------------------------------------------
  alpha Z        PSCENC =         1.04085735
  Ewald energy   TEWEN  =        62.39013857
  -Hartree energ DENC   =        -2.37317484
  -exchange      EXHF   =        76.59897714
  -V(xc)+E(xc)   XCENC  =        10.20867582
  PAW double counting   =        21.42072561      -21.63308286
  entropy T*S    EENTRO =        -0.00000000
  eigenvalues    EBANDS =     -1888.31163696
  atomic energy  EATOM  =       856.38987498
  ---------------------------------------------------
  free energy    TOTEN  =      -884.26864521 eV

  energy without entropy =     -884.26864521  energy(sigma->0) =     -884.26864521
  exchange ACFDT corr.  =        -0.00000004  see jH, gK, PRB 81, 115126


--------------------------------------------------------------------------------------------------------




--------------------------------------- Iteration      1(   6)  ---------------------------------------


    POTLOK:  cpu time      1.1920: real time      1.1919
    SETDIJ:  cpu time      0.0672: real time      0.0672
    TRIAL :  cpu time      0.1783: real time      0.1783
    CORREC:  cpu time      1.5638: real time      1.5636
    CHARGE:  cpu time      0.0396: real time      0.0396
    --------------------------------------------
      LOOP:  cpu time      3.0412: real time      3.0411

 eigenvalue-minimisations  :     0
 total energy-change (2. order) : 0.1120154E+04  (-0.2606386E+03)
 number of electron      11.9999931 magnetization       1.9999971
 augmentation part        0.8939434 magnetization       0.3425922

 Free energy of the ion-electron system (eV)
  ---------------------------------------------------
  alpha Z        PSCENC =         1.04085735
  Ewald energy   TEWEN  =        62.39013857
  -Hartree energ DENC   =     -1278.69566235
  -exchange      EXHF   =        79.00382713
  -V(xc)+E(xc)   XCENC  =        53.51575747
  PAW double counting   =      1262.66184528    -1272.70321303
  entropy T*S    EENTRO =        -0.00000000
  eigenvalues    EBANDS =       472.28165566
  atomic energy  EATOM  =       856.38987498
  ---------------------------------------------------
  free energy    TOTEN  =       235.88508106 eV

  energy without entropy =      235.88508106  energy(sigma->0) =      235.88508106
  exchange ACFDT corr.  =         0.00000000  see jH, gK, PRB 81, 115126


--------------------------------------------------------------------------------------------------------




--------------------------------------- Iteration      1(   7)  ---------------------------------------


    POTLOK:  cpu time      1.2908: real time      1.2907
    SETDIJ:  cpu time      0.0856: real time      0.0856
    TRIAL :  cpu time      0.1756: real time      0.1755
    CORREC:  cpu time      1.5354: real time      1.5352
    CHARGE:  cpu time      0.0396: real time      0.0396
    --------------------------------------------
      LOOP:  cpu time      3.1276: real time      3.1275

 eigenvalue-minimisations  :     0
 total energy-change (2. order) :-0.1437980E+03  (-0.2539749E+02)
 number of electron      11.9999931 magnetization       1.9999966
 augmentation part        0.9012806 magnetization       0.4006492

 Free energy of the ion-electron system (eV)
  ---------------------------------------------------
  alpha Z        PSCENC =         1.04085735
  Ewald energy   TEWEN  =        62.39013857
  -Hartree energ DENC   =      -577.30343506
  -exchange      EXHF   =        39.07414423
  -V(xc)+E(xc)   XCENC  =        30.04870246
  PAW double counting   =       762.72702521     -764.77120064
  entropy T*S    EENTRO =        -0.00000000
  eigenvalues    EBANDS =      -317.50901037
  atomic energy  EATOM  =       856.38987498
  ---------------------------------------------------
  free energy    TOTEN  =        92.08709671 eV

  energy without entropy =       92.08709671  energy(sigma->0) =       92.08709671
  exchange ACFDT corr.  =         0.00000000  see jH, gK, PRB 81, 115126


--------------------------------------------------------------------------------------------------------




--------------------------------------- Iteration      1(   8)  ---------------------------------------


    POTLOK:  cpu time      1.2855: real time      1.2853
    SETDIJ:  cpu time      0.0739: real time      0.0739
    TRIAL :  cpu time      0.1755: real time      0.1755
    CORREC:  cpu time      1.5527: real time      1.5525
    CHARGE:  cpu time      0.0397: real time      0.0397
    --------------------------------------------
      LOOP:  cpu time      3.1276: real time      3.1275

 eigenvalue-minimisations  :     0
 total energy-change (2. order) :-0.2486572E+02  (-0.4489826E+02)
 number of electron      11.9999920 magnetization       1.9999956
 augmentation part        1.0781809 magnetization       0.5184876

 Free energy of the ion-electron system (eV)
  ---------------------------------------------------
  alpha Z        PSCENC =         1.04085735
  Ewald energy   TEWEN  =        62.39013857
  -Hartree energ DENC   =      -629.26689118
  -exchange      EXHF   =        42.40119622
  -V(xc)+E(xc)   XCENC  =        31.66777550
  PAW double counting   =      1089.46930622    -1091.19487565
  entropy T*S    EENTRO =        -0.00000000
  eigenvalues    EBANDS =      -295.67600747
  atomic energy  EATOM  =       856.38987498
  ---------------------------------------------------
  free energy    TOTEN  =        67.22137453 eV

  energy without entropy =       67.22137453  energy(sigma->0) =       67.22137453
  exchange ACFDT corr.  =        -1.71936892  see jH, gK, PRB 81, 115126


--------------------------------------------------------------------------------------------------------




--------------------------------------- Iteration      1(   9)  ---------------------------------------


    POTLOK:  cpu time      1.2770: real time      1.2769
    SETDIJ:  cpu time      0.0898: real time      0.0898
    TRIAL :  cpu time      0.1756: real time      0.1755
    CORREC:  cpu time      1.5395: real time      1.5394
    CHARGE:  cpu time      0.0392: real time      0.0392
    --------------------------------------------
      LOOP:  cpu time      3.1218: real time      3.1216

 eigenvalue-minimisations  :     0
 total energy-change (2. order) :-0.4713208E+02  (-0.1952686E+02)
 number of electron      11.9999912 magnetization       1.9999954
 augmentation part        1.1947643 magnetization       0.5428640

 Free energy of the ion-electron system (eV)
  ---------------------------------------------------
  alpha Z        PSCENC =         1.04085735
  Ewald energy   TEWEN  =        62.39013857
  -Hartree energ DENC   =      -730.34203775
  -exchange      EXHF   =        48.00969890
  -V(xc)+E(xc)   XCENC  =        35.06478977
  PAW double counting   =      1289.92723532    -1291.64180008
  entropy T*S    EENTRO =        -0.00000000
  eigenvalues    EBANDS =      -250.74946449
  atomic energy  EATOM  =       856.38987498
  ---------------------------------------------------
  free energy    TOTEN  =        20.08929257 eV

  energy without entropy =       20.08929257  energy(sigma->0) =       20.08929257
  exchange ACFDT corr.  =         0.00000000  see jH, gK, PRB 81, 115126


--------------------------------------------------------------------------------------------------------




--------------------------------------- Iteration      1(  10)  ---------------------------------------


    POTLOK:  cpu time      1.2874: real time      1.2872
    SETDIJ:  cpu time      0.1326: real time      0.1326
    TRIAL :  cpu time      0.5792: real time      0.6454
    CORREC:  cpu time      1.5409: real time      1.5406
    CHARGE:  cpu time      0.0395: real time      0.0395
    --------------------------------------------
      LOOP:  cpu time      3.5803: real time      3.6464

 eigenvalue-minimisations  :     0
 total energy-change (2. order) :-0.1948288E+02  (-0.1078523E+02)
 number of electron      11.9999917 magnetization       1.9999955
 augmentation part        1.1611987 magnetization       0.5227586

 Free energy of the ion-electron system (eV)
  ---------------------------------------------------
  alpha Z        PSCENC =         1.04085735
  Ewald energy   TEWEN  =        62.39013857
  -Hartree energ DENC   =      -799.31448249
  -exchange      EXHF   =        52.02796919
  -V(xc)+E(xc)   XCENC  =        37.30454930
  PAW double counting   =      1221.30609826    -1223.10721353
  entropy T*S    EENTRO =        -0.00000000
  eigenvalues    EBANDS =      -207.43137820
  atomic energy  EATOM  =       856.38987498
  ---------------------------------------------------
  free energy    TOTEN  =         0.60641343 eV

  energy without entropy =        0.60641343  energy(sigma->0) =        0.60641343
  exchange ACFDT corr.  =         0.00000000  see jH, gK, PRB 81, 115126


--------------------------------------------------------------------------------------------------------




--------------------------------------- Iteration      1(  11)  ---------------------------------------


    POTLOK:  cpu time      1.2774: real time      1.2772
    SETDIJ:  cpu time      0.0842: real time      0.0842
    TRIAL :  cpu time      0.1748: real time      0.1747
    CORREC:  cpu time      1.5568: real time      1.5566
    CHARGE:  cpu time      0.0393: real time      0.0393
    --------------------------------------------
      LOOP:  cpu time      3.1331: real time      3.1329

 eigenvalue-minimisations  :     0
 total energy-change (2. order) :-0.1089896E+02  (-0.3150939E+01)
 number of electron      11.9999921 magnetization       1.9999956
 augmentation part        1.1224258 magnetization       0.5096910

 Free energy of the ion-electron system (eV)
  ---------------------------------------------------
  alpha Z        PSCENC =         1.04085735
  Ewald energy   TEWEN  =        62.39013857
  -Hartree energ DENC   =      -799.06600470
  -exchange      EXHF   =        52.11778755
  -V(xc)+E(xc)   XCENC  =        37.22002037
  PAW double counting   =      1028.90570087    -1030.33146734
  entropy T*S    EENTRO =        -0.00000000
  eigenvalues    EBANDS =      -218.95945081
  atomic energy  EATOM  =       856.38987498
  ---------------------------------------------------
  free energy    TOTEN  =       -10.29254317 eV

  energy without entropy =      -10.29254317  energy(sigma->0) =      -10.29254317
  exchange ACFDT corr.  =         0.00000000  see jH, gK, PRB 81, 115126


--------------------------------------------------------------------------------------------------------




--------------------------------------- Iteration      1(  12)  ---------------------------------------


    POTLOK:  cpu time      1.2687: real time      1.2686
    SETDIJ:  cpu time      0.0993: real time      0.0993
    TRIAL :  cpu time      0.1758: real time      0.1757
    CORREC:  cpu time      1.5476: real time      1.5474
    CHARGE:  cpu time      0.0394: real time      0.0394
    --------------------------------------------
      LOOP:  cpu time      3.1317: real time      3.1316

 eigenvalue-minimisations  :     0
 total energy-change (2. order) :-0.3197341E+01  (-0.1245120E+01)
 number of electron      11.9999921 magnetization       1.9999957
 augmentation part        1.1190783 magnetization       0.5081616

 Free energy of the ion-electron system (eV)
  ---------------------------------------------------
  alpha Z        PSCENC =         1.04085735
  Ewald energy   TEWEN  =        62.39013857
  -Hartree energ DENC   =      -796.77795926
  -exchange      EXHF   =        52.03473880
  -V(xc)+E(xc)   XCENC  =        37.11483723
  PAW double counting   =       952.00388228     -953.09276036
  entropy T*S    EENTRO =        -0.00000000
  eigenvalues    EBANDS =      -224.59349350
  atomic energy  EATOM  =       856.38987498
  ---------------------------------------------------
  free energy    TOTEN  =       -13.48988391 eV

  energy without entropy =      -13.48988391  energy(sigma->0) =      -13.48988391
  exchange ACFDT corr.  =         0.00000000  see jH, gK, PRB 81, 115126


--------------------------------------------------------------------------------------------------------




--------------------------------------- Iteration      1(  13)  ---------------------------------------


    POTLOK:  cpu time      1.2901: real time      1.2899
    SETDIJ:  cpu time      0.0662: real time      0.0662
    TRIAL :  cpu time      0.1759: real time      0.1759
    CORREC:  cpu time      1.5393: real time      1.5390
    CHARGE:  cpu time      0.0394: real time      0.0394
    --------------------------------------------
      LOOP:  cpu time      3.1116: real time      3.1114

 eigenvalue-minimisations  :     0
 total energy-change (2. order) :-0.1256485E+01  (-0.5227012E+00)
 number of electron      11.9999920 magnetization       1.9999956
 augmentation part        1.1232943 magnetization       0.5093609

 Free energy of the ion-electron system (eV)
  ---------------------------------------------------
  alpha Z        PSCENC =         1.04085735
  Ewald energy   TEWEN  =        62.39013857
  -Hartree energ DENC   =      -801.93583649
  -exchange      EXHF   =        52.40070543
  -V(xc)+E(xc)   XCENC  =        37.29155915
  PAW double counting   =       925.59860834     -926.52025173
  entropy T*S    EENTRO =        -0.00000000
  eigenvalues    EBANDS =      -221.40202446
  atomic energy  EATOM  =       856.38987498
  ---------------------------------------------------
  free energy    TOTEN  =       -14.74636885 eV

  energy without entropy =      -14.74636885  energy(sigma->0) =      -14.74636885
  exchange ACFDT corr.  =         0.00000000  see jH, gK, PRB 81, 115126


--------------------------------------------------------------------------------------------------------




--------------------------------------- Iteration      1(  14)  ---------------------------------------


    POTLOK:  cpu time      1.2657: real time      1.2655
    SETDIJ:  cpu time      0.0358: real time      0.0358
    TRIAL :  cpu time      0.1760: real time      0.1759
    CORREC:  cpu time      1.5396: real time      1.5393
    CHARGE:  cpu time      0.0393: real time      0.0393
    --------------------------------------------
      LOOP:  cpu time      3.0566: real time      3.0592

 eigenvalue-minimisations  :     0
 total energy-change (2. order) :-0.5310641E+00  (-0.2478108E+00)
 number of electron      11.9999920 magnetization       1.9999956
 augmentation part        1.1235245 magnetization       0.5107333

 Free energy of the ion-electron system (eV)
  ---------------------------------------------------
  alpha Z        PSCENC =         1.04085735
  Ewald energy   TEWEN  =        62.39013857
  -Hartree energ DENC   =      -802.25301411
  -exchange      EXHF   =        52.47095367
  -V(xc)+E(xc)   XCENC  =        37.31652449
  PAW double counting   =       913.42769078     -914.29942146
  entropy T*S    EENTRO =        -0.00000000
  eigenvalues    EBANDS =      -221.76103723
  atomic energy  EATOM  =       856.38987498
  ---------------------------------------------------
  free energy    TOTEN  =       -15.27743296 eV

  energy without entropy =      -15.27743296  energy(sigma->0) =      -15.27743296
  exchange ACFDT corr.  =         0.00000000  see jH, gK, PRB 81, 115126


--------------------------------------------------------------------------------------------------------




--------------------------------------- Iteration      1(  15)  ---------------------------------------


    POTLOK:  cpu time      1.2638: real time      1.2636
    SETDIJ:  cpu time      0.0683: real time      0.0682
    TRIAL :  cpu time      0.1757: real time      0.1757
    CORREC:  cpu time      1.5559: real time      1.5556
    CHARGE:  cpu time      0.0394: real time      0.0394
    --------------------------------------------
      LOOP:  cpu time      3.1034: real time      3.1034

 eigenvalue-minimisations  :     0
 total energy-change (2. order) :-0.2516617E+00  (-0.1316524E+00)
 number of electron      11.9999920 magnetization       1.9999956
 augmentation part        1.1248447 magnetization       0.5116836

 Free energy of the ion-electron system (eV)
  ---------------------------------------------------
  alpha Z        PSCENC =         1.04085735
  Ewald energy   TEWEN  =        62.39013857
  -Hartree energ DENC   =      -801.04094483
  -exchange      EXHF   =        52.44408224
  -V(xc)+E(xc)   XCENC  =        37.28814065
  PAW double counting   =       910.42712038     -911.28275902
  entropy T*S    EENTRO =        -0.00000000
  eigenvalues    EBANDS =      -223.18560493
  atomic energy  EATOM  =       856.38987498
  ---------------------------------------------------
  free energy    TOTEN  =       -15.52909462 eV

  energy without entropy =      -15.52909462  energy(sigma->0) =      -15.52909462
  exchange ACFDT corr.  =         0.00000000  see jH, gK, PRB 81, 115126


--------------------------------------------------------------------------------------------------------




--------------------------------------- Iteration      1(  16)  ---------------------------------------


    POTLOK:  cpu time      1.2565: real time      1.2563
    SETDIJ:  cpu time      0.0868: real time      0.0867
    TRIAL :  cpu time      0.1755: real time      0.1754
    CORREC:  cpu time      1.5670: real time      1.5666
    CHARGE:  cpu time      0.0394: real time      0.0394
    --------------------------------------------
      LOOP:  cpu time      3.1256: real time      3.1254

 eigenvalue-minimisations  :     0
 total energy-change (2. order) :-0.1322955E+00  (-0.5195264E-01)
 number of electron      11.9999920 magnetization       1.9999956
 augmentation part        1.1269853 magnetization       0.5120060

 Free energy of the ion-electron system (eV)
  ---------------------------------------------------
  alpha Z        PSCENC =         1.04085735
  Ewald energy   TEWEN  =        62.39013857
  -Hartree energ DENC   =      -800.86632938
  -exchange      EXHF   =        52.45983648
  -V(xc)+E(xc)   XCENC  =        37.28988354
  PAW double counting   =       913.72370520     -914.58534069
  entropy T*S    EENTRO =        -0.00000000
  eigenvalues    EBANDS =      -223.50401615
  atomic energy  EATOM  =       856.38987498
  ---------------------------------------------------
  free energy    TOTEN  =       -15.66139010 eV

  energy without entropy =      -15.66139010  energy(sigma->0) =      -15.66139010
  exchange ACFDT corr.  =         0.00000000  see jH, gK, PRB 81, 115126


--------------------------------------------------------------------------------------------------------




--------------------------------------- Iteration      1(  17)  ---------------------------------------


    POTLOK:  cpu time      1.2730: real time      1.2728
    SETDIJ:  cpu time      0.0736: real time      0.0736
    TRIAL :  cpu time      0.1746: real time      0.1746
    CORREC:  cpu time      1.5388: real time      1.5386
    CHARGE:  cpu time      0.0392: real time      0.0392
    --------------------------------------------
      LOOP:  cpu time      3.1003: real time      3.1002

 eigenvalue-minimisations  :     0
 total energy-change (2. order) :-0.5237064E-01  (-0.2379383E-01)
 number of electron      11.9999920 magnetization       1.9999956
 augmentation part        1.1280965 magnetization       0.5123427

 Free energy of the ion-electron system (eV)
  ---------------------------------------------------
  alpha Z        PSCENC =         1.04085735
  Ewald energy   TEWEN  =        62.39013857
  -Hartree energ DENC   =      -800.60755967
  -exchange      EXHF   =        52.44703276
  -V(xc)+E(xc)   XCENC  =        37.28120159
  PAW double counting   =       917.33061193     -918.21574746
  entropy T*S    EENTRO =        -0.00000000
  eigenvalues    EBANDS =      -223.77017079
  atomic energy  EATOM  =       856.38987498
  ---------------------------------------------------
  free energy    TOTEN  =       -15.71376074 eV

  energy without entropy =      -15.71376074  energy(sigma->0) =      -15.71376074
  exchange ACFDT corr.  =         0.00000000  see jH, gK, PRB 81, 115126


--------------------------------------------------------------------------------------------------------




--------------------------------------- Iteration      1(  18)  ---------------------------------------


    POTLOK:  cpu time      1.2642: real time      1.2641
    SETDIJ:  cpu time      0.0738: real time      0.0738
    TRIAL :  cpu time      0.1750: real time      0.1750
    CORREC:  cpu time      1.5628: real time      1.5625
    CHARGE:  cpu time      0.0395: real time      0.0395
    --------------------------------------------
      LOOP:  cpu time      3.1158: real time      3.1156

 eigenvalue-minimisations  :     0
 total energy-change (2. order) :-0.2405877E-01  (-0.1222889E-01)
 number of electron      11.9999920 magnetization       1.9999956
 augmentation part        1.1288384 magnetization       0.5129677

 Free energy of the ion-electron system (eV)
  ---------------------------------------------------
  alpha Z        PSCENC =         1.04085735
  Ewald energy   TEWEN  =        62.39013857
  -Hartree energ DENC   =      -800.26981729
  -exchange      EXHF   =        52.42464090
  -V(xc)+E(xc)   XCENC  =        37.26762644
  PAW double counting   =       919.52526747     -920.43139614
  entropy T*S    EENTRO =        -0.00000000
  eigenvalues    EBANDS =      -224.07501178
  atomic energy  EATOM  =       856.38987498
  ---------------------------------------------------
  free energy    TOTEN  =       -15.73781951 eV

  energy without entropy =      -15.73781951  energy(sigma->0) =      -15.73781951
  exchange ACFDT corr.  =         0.00000000  see jH, gK, PRB 81, 115126


--------------------------------------------------------------------------------------------------------




--------------------------------------- Iteration      1(  19)  ---------------------------------------


    POTLOK:  cpu time      1.2544: real time      1.2542
    SETDIJ:  cpu time      0.0840: real time      0.0840
    TRIAL :  cpu time      0.1753: real time      0.1752
    CORREC:  cpu time      1.5597: real time      1.5595
    CHARGE:  cpu time      0.0393: real time      0.0393
    --------------------------------------------
      LOOP:  cpu time      3.1131: real time      3.1129

 eigenvalue-minimisations  :     0
 total energy-change (2. order) :-0.1237506E-01  (-0.7071862E-02)
 number of electron      11.9999920 magnetization       1.9999956
 augmentation part        1.1297461 magnetization       0.5136166

 Free energy of the ion-electron system (eV)
  ---------------------------------------------------
  alpha Z        PSCENC =         1.04085735
  Ewald energy   TEWEN  =        62.39013857
  -Hartree energ DENC   =      -800.14932663
  -exchange      EXHF   =        52.41514756
  -V(xc)+E(xc)   XCENC  =        37.26151588
  PAW double counting   =       920.74444907     -921.66563693
  entropy T*S    EENTRO =        -0.00000000
  eigenvalues    EBANDS =      -224.17721441
  atomic energy  EATOM  =       856.38987498
  ---------------------------------------------------
  free energy    TOTEN  =       -15.75019457 eV

  energy without entropy =      -15.75019457  energy(sigma->0) =      -15.75019457
  exchange ACFDT corr.  =         0.00000000  see jH, gK, PRB 81, 115126


--------------------------------------------------------------------------------------------------------




--------------------------------------- Iteration      1(  20)  ---------------------------------------


    POTLOK:  cpu time      1.2553: real time      1.2551
    SETDIJ:  cpu time      0.0950: real time      0.0949
    TRIAL :  cpu time      0.1748: real time      0.1747
    CORREC:  cpu time      1.5539: real time      1.5536
    CHARGE:  cpu time      0.0395: real time      0.0395
    --------------------------------------------
      LOOP:  cpu time      3.1189: real time      3.1187

 eigenvalue-minimisations  :     0
 total energy-change (2. order) :-0.7129422E-02  (-0.3851134E-02)
 number of electron      11.9999920 magnetization       1.9999956
 augmentation part        1.1299754 magnetization       0.5138173

 Free energy of the ion-electron system (eV)
  ---------------------------------------------------
  alpha Z        PSCENC =         1.04085735
  Ewald energy   TEWEN  =        62.39013857
  -Hartree energ DENC   =      -800.25657478
  -exchange      EXHF   =        52.41923955
  -V(xc)+E(xc)   XCENC  =        37.26379660
  PAW double counting   =       921.40958925     -922.34068286
  entropy T*S    EENTRO =        -0.00000000
  eigenvalues    EBANDS =      -224.07356264
  atomic energy  EATOM  =       856.38987498
  ---------------------------------------------------
  free energy    TOTEN  =       -15.75732399 eV

  energy without entropy =      -15.75732399  energy(sigma->0) =      -15.75732399
  exchange ACFDT corr.  =         0.00000000  see jH, gK, PRB 81, 115126


--------------------------------------------------------------------------------------------------------




--------------------------------------- Iteration      1(  21)  ---------------------------------------


    POTLOK:  cpu time      1.2666: real time      1.2665
    SETDIJ:  cpu time      0.0840: real time      0.0840
    TRIAL :  cpu time      0.1759: real time      0.1758
    CORREC:  cpu time      1.5596: real time      1.5593
    CHARGE:  cpu time      0.0394: real time      0.0394
    --------------------------------------------
      LOOP:  cpu time      3.1264: real time      3.1263

 eigenvalue-minimisations  :     0
 total energy-change (2. order) :-0.3861697E-02  (-0.1898966E-02)
 number of electron      11.9999920 magnetization       1.9999956
 augmentation part        1.1295534 magnetization       0.5136534

 Free energy of the ion-electron system (eV)
  ---------------------------------------------------
  alpha Z        PSCENC =         1.04085735
  Ewald energy   TEWEN  =        62.39013857
  -Hartree energ DENC   =      -800.31810835
  -exchange      EXHF   =        52.42192372
  -V(xc)+E(xc)   XCENC  =        37.26534069
  PAW double counting   =       921.39022234     -922.32322079
  entropy T*S    EENTRO =        -0.00000000
  eigenvalues    EBANDS =      -224.01821419
  atomic energy  EATOM  =       856.38987498
  ---------------------------------------------------
  free energy    TOTEN  =       -15.76118569 eV

  energy without entropy =      -15.76118569  energy(sigma->0) =      -15.76118569
  exchange ACFDT corr.  =         0.00000000  see jH, gK, PRB 81, 115126


--------------------------------------------------------------------------------------------------------




--------------------------------------- Iteration      1(  22)  ---------------------------------------


    POTLOK:  cpu time      1.2393: real time      1.2391
    SETDIJ:  cpu time      0.1258: real time      0.1258
    TRIAL :  cpu time      0.1749: real time      0.1749
    CORREC:  cpu time      1.5368: real time      1.5366
    CHARGE:  cpu time      0.0392: real time      0.0392
    --------------------------------------------
      LOOP:  cpu time      3.1164: real time      3.1162

 eigenvalue-minimisations  :     0
 total energy-change (2. order) :-0.1899855E-02  (-0.8887272E-03)
 number of electron      11.9999920 magnetization       1.9999956
 augmentation part        1.1291749 magnetization       0.5134533

 Free energy of the ion-electron system (eV)
  ---------------------------------------------------
  alpha Z        PSCENC =         1.04085735
  Ewald energy   TEWEN  =        62.39013857
  -Hartree energ DENC   =      -800.34390640
  -exchange      EXHF   =        52.42401506
  -V(xc)+E(xc)   XCENC  =        37.26626712
  PAW double counting   =       921.12547967     -922.05438029
  entropy T*S    EENTRO =        -0.00000000
  eigenvalues    EBANDS =      -224.00143161
  atomic energy  EATOM  =       856.38987498
  ---------------------------------------------------
  free energy    TOTEN  =       -15.76308554 eV

  energy without entropy =      -15.76308554  energy(sigma->0) =      -15.76308554
  exchange ACFDT corr.  =         0.00000000  see jH, gK, PRB 81, 115126


--------------------------------------------------------------------------------------------------------




--------------------------------------- Iteration      1(  23)  ---------------------------------------


    POTLOK:  cpu time      1.2853: real time      1.2852
    SETDIJ:  cpu time      0.0747: real time      0.0747
    TRIAL :  cpu time      0.1760: real time      0.1760
    CORREC:  cpu time      1.5591: real time      1.5589
    CHARGE:  cpu time      0.0392: real time      0.0392
    --------------------------------------------
      LOOP:  cpu time      3.1346: real time      3.1347

 eigenvalue-minimisations  :     0
 total energy-change (2. order) :-0.8888460E-03  (-0.4415401E-03)
 number of electron      11.9999920 magnetization       1.9999956
 augmentation part        1.1290348 magnetization       0.5133036

 Free energy of the ion-electron system (eV)
  ---------------------------------------------------
  alpha Z        PSCENC =         1.04085735
  Ewald energy   TEWEN  =        62.39013857
  -Hartree energ DENC   =      -800.40212924
  -exchange      EXHF   =        52.42852332
  -V(xc)+E(xc)   XCENC  =        37.26856444
  PAW double counting   =       920.91642862     -921.84037951
  entropy T*S    EENTRO =        -0.00000000
  eigenvalues    EBANDS =      -223.95585291
  atomic energy  EATOM  =       856.38987498
  ---------------------------------------------------
  free energy    TOTEN  =       -15.76397439 eV

  energy without entropy =      -15.76397439  energy(sigma->0) =      -15.76397439
  exchange ACFDT corr.  =        -0.00000000  see jH, gK, PRB 81, 115126


--------------------------------------------------------------------------------------------------------




--------------------------------------- Iteration      1(  24)  ---------------------------------------


    POTLOK:  cpu time      1.2722: real time      1.2721
    SETDIJ:  cpu time      0.0649: real time      0.0649
    TRIAL :  cpu time      0.1745: real time      0.1744
    CORREC:  cpu time      1.5347: real time      1.5346
    CHARGE:  cpu time      0.0393: real time      0.0393
    --------------------------------------------
      LOOP:  cpu time      3.0868: real time      3.0869

 eigenvalue-minimisations  :     0
 total energy-change (2. order) :-0.4417356E-03  (-0.2378454E-03)
 number of electron      11.9999920 magnetization       1.9999956
 augmentation part        1.1290417 magnetization       0.5132114

 Free energy of the ion-electron system (eV)
  ---------------------------------------------------
  alpha Z        PSCENC =         1.04085735
  Ewald energy   TEWEN  =        62.39013857
  -Hartree energ DENC   =      -800.45599954
  -exchange      EXHF   =        52.43237980
  -V(xc)+E(xc)   XCENC  =        37.27067366
  PAW double counting   =       920.73916495     -921.65984490
  entropy T*S    EENTRO =        -0.00000000
  eigenvalues    EBANDS =      -223.91166098
  atomic energy  EATOM  =       856.38987498
  ---------------------------------------------------
  free energy    TOTEN  =       -15.76441612 eV

  energy without entropy =      -15.76441612  energy(sigma->0) =      -15.76441612
  exchange ACFDT corr.  =         0.00000000  see jH, gK, PRB 81, 115126


--------------------------------------------------------------------------------------------------------




--------------------------------------- Iteration      1(  25)  ---------------------------------------


    POTLOK:  cpu time      1.2638: real time      1.2637
    SETDIJ:  cpu time      0.1056: real time      0.1055
    TRIAL :  cpu time      0.1754: real time      0.1754
    CORREC:  cpu time      1.5017: real time      1.5015
    CHARGE:  cpu time      0.0396: real time      0.0396
    --------------------------------------------
      LOOP:  cpu time      3.0869: real time      3.0869

 eigenvalue-minimisations  :     0
 total energy-change (2. order) :-0.2379965E-03  (-0.1303641E-03)
 number of electron      11.9999920 magnetization       1.9999956
 augmentation part        1.1291060 magnetization       0.5131645

 Free energy of the ion-electron system (eV)
  ---------------------------------------------------
  alpha Z        PSCENC =         1.04085735
  Ewald energy   TEWEN  =        62.39013857
  -Hartree energ DENC   =      -800.48959703
  -exchange      EXHF   =        52.43448385
  -V(xc)+E(xc)   XCENC  =        37.27194758
  PAW double counting   =       920.60260542     -921.52188937
  entropy T*S    EENTRO =        -0.00000000
  eigenvalues    EBANDS =      -223.88307546
  atomic energy  EATOM  =       856.38987498
  ---------------------------------------------------
  free energy    TOTEN  =       -15.76465412 eV

  energy without entropy =      -15.76465412  energy(sigma->0) =      -15.76465412
  exchange ACFDT corr.  =         0.00000000  see jH, gK, PRB 81, 115126


--------------------------------------------------------------------------------------------------------




--------------------------------------- Iteration      1(  26)  ---------------------------------------


    POTLOK:  cpu time      1.2568: real time      1.2566
    SETDIJ:  cpu time      0.0985: real time      0.0985
    TRIAL :  cpu time      0.1754: real time      0.1754
    CORREC:  cpu time      1.5542: real time      1.5540
    CHARGE:  cpu time      0.0394: real time      0.0394
    --------------------------------------------
      LOOP:  cpu time      3.1258: real time      3.1258

 eigenvalue-minimisations  :     0
 total energy-change (2. order) :-0.1304411E-03  (-0.6633301E-04)
 number of electron      11.9999920 magnetization       1.9999956
 augmentation part        1.1291722 magnetization       0.5131604

 Free energy of the ion-electron system (eV)
  ---------------------------------------------------
  alpha Z        PSCENC =         1.04085735
  Ewald energy   TEWEN  =        62.39013857
  -Hartree energ DENC   =      -800.50180345
  -exchange      EXHF   =        52.43489577
  -V(xc)+E(xc)   XCENC  =        37.27233740
  PAW double counting   =       920.52853507     -921.44781240
  entropy T*S    EENTRO =        -0.00000000
  eigenvalues    EBANDS =      -223.87180785
  atomic energy  EATOM  =       856.38987498
  ---------------------------------------------------
  free energy    TOTEN  =       -15.76478456 eV

  energy without entropy =      -15.76478456  energy(sigma->0) =      -15.76478456
  exchange ACFDT corr.  =         0.00000000  see jH, gK, PRB 81, 115126


--------------------------------------------------------------------------------------------------------




--------------------------------------- Iteration      1(  27)  ---------------------------------------


    POTLOK:  cpu time      1.2839: real time      1.2838
    SETDIJ:  cpu time      0.0597: real time      0.0596
    TRIAL :  cpu time      0.1753: real time      0.1753
    CORREC:  cpu time      1.5068: real time      1.5065
    CHARGE:  cpu time      0.0393: real time      0.0393
    --------------------------------------------
      LOOP:  cpu time      3.0655: real time      3.0654

 eigenvalue-minimisations  :     0
 total energy-change (2. order) :-0.6633964E-04  (-0.3303659E-04)
 number of electron      11.9999920 magnetization       1.9999956
 augmentation part        1.1292113 magnetization       0.5131846

 Free energy of the ion-electron system (eV)
  ---------------------------------------------------
  alpha Z        PSCENC =         1.04085735
  Ewald energy   TEWEN  =        62.39013857
  -Hartree energ DENC   =      -800.49470467
  -exchange      EXHF   =        52.43408386
  -V(xc)+E(xc)   XCENC  =        37.27200213
  PAW double counting   =       920.51503148     -921.43501875
  entropy T*S    EENTRO =        -0.00000000
  eigenvalues    EBANDS =      -223.87711584
  atomic energy  EATOM  =       856.38987498
  ---------------------------------------------------
  free energy    TOTEN  =       -15.76485090 eV

  energy without entropy =      -15.76485090  energy(sigma->0) =      -15.76485090
  exchange ACFDT corr.  =         0.00000000  see jH, gK, PRB 81, 115126


--------------------------------------------------------------------------------------------------------




--------------------------------------- Iteration      1(  28)  ---------------------------------------


    POTLOK:  cpu time      1.2734: real time      1.2732
    SETDIJ:  cpu time      0.0821: real time      0.0821
    TRIAL :  cpu time      0.1752: real time      0.1751
    CORREC:  cpu time      1.5234: real time      1.5231
    CHARGE:  cpu time      0.0395: real time      0.0395
    --------------------------------------------
      LOOP:  cpu time      3.0940: real time      3.0938

 eigenvalue-minimisations  :     0
 total energy-change (2. order) :-0.3300672E-04  (-0.1723224E-04)
 number of electron      11.9999920 magnetization       1.9999956
 augmentation part        1.1292159 magnetization       0.5132189

 Free energy of the ion-electron system (eV)
  ---------------------------------------------------
  alpha Z        PSCENC =         1.04085735
  Ewald energy   TEWEN  =        62.39013857
  -Hartree energ DENC   =      -800.48454014
  -exchange      EXHF   =        52.43323409
  -V(xc)+E(xc)   XCENC  =        37.27158510
  PAW double counting   =       920.54068636     -921.46140353
  entropy T*S    EENTRO =        -0.00000000
  eigenvalues    EBANDS =      -223.88531668
  atomic energy  EATOM  =       856.38987498
  ---------------------------------------------------
  free energy    TOTEN  =       -15.76488391 eV

  energy without entropy =      -15.76488391  energy(sigma->0) =      -15.76488391
  exchange ACFDT corr.  =        -0.00000000  see jH, gK, PRB 81, 115126


--------------------------------------------------------------------------------------------------------




--------------------------------------- Iteration      1(  29)  ---------------------------------------


    POTLOK:  cpu time      1.2716: real time      1.2714
    SETDIJ:  cpu time      0.0917: real time      0.0917
    TRIAL :  cpu time      0.1746: real time      0.1745
    CORREC:  cpu time      1.5436: real time      1.5433
    CHARGE:  cpu time      0.0405: real time      0.0405
    --------------------------------------------
      LOOP:  cpu time      3.1222: real time      3.1220

 eigenvalue-minimisations  :     0
 total energy-change (2. order) :-0.1717119E-04  (-0.9332211E-05)
 number of electron      11.9999920 magnetization       1.9999956
 augmentation part        1.1291955 magnetization       0.5132457

 Free energy of the ion-electron system (eV)
  ---------------------------------------------------
  alpha Z        PSCENC =         1.04085735
  Ewald energy   TEWEN  =        62.39013857
  -Hartree energ DENC   =      -800.47746292
  -exchange      EXHF   =        52.43274370
  -V(xc)+E(xc)   XCENC  =        37.27132057
  PAW double counting   =       920.57392928     -921.49505011
  entropy T*S    EENTRO =        -0.00000000
  eigenvalues    EBANDS =      -223.89125250
  atomic energy  EATOM  =       856.38987498
  ---------------------------------------------------
  free energy    TOTEN  =       -15.76490108 eV

  energy without entropy =      -15.76490108  energy(sigma->0) =      -15.76490108
  exchange ACFDT corr.  =        -0.00000000  see jH, gK, PRB 81, 115126


--------------------------------------------------------------------------------------------------------




--------------------------------------- Iteration      1(  30)  ---------------------------------------


    POTLOK:  cpu time      1.2287: real time      1.2284
    SETDIJ:  cpu time      0.1079: real time      0.1079
    TRIAL :  cpu time      0.1747: real time      0.1746
    CORREC:  cpu time      1.5402: real time      1.5400
    EDDIAG:  cpu time      0.1184: real time      0.1183
    CHARGE:  cpu time      0.0392: real time      0.0392
    --------------------------------------------
      LOOP:  cpu time      3.2093: real time      3.2089

 eigenvalue-minimisations  :     0
 total energy-change (2. order) :-0.9283716E-05  (-0.5378899E-05)
 number of electron      11.9999920 magnetization       1.9999956
 augmentation part        1.1291648 magnetization       0.5132622

 Free energy of the ion-electron system (eV)
  ---------------------------------------------------
  alpha Z        PSCENC =         1.04085735
  Ewald energy   TEWEN  =        62.39013857
  -Hartree energ DENC   =      -800.47022435
  -exchange      EXHF   =        52.43210902
  -V(xc)+E(xc)   XCENC  =        37.27108115
  PAW double counting   =       920.59041690     -921.51162569
  entropy T*S    EENTRO =        -0.00000000
  eigenvalues    EBANDS =      -223.89778360
  atomic energy  EATOM  =       856.38987498
  ---------------------------------------------------
  free energy    TOTEN  =       -15.76491036 eV

  energy without entropy =      -15.76491036  energy(sigma->0) =      -15.76491036
  exchange ACFDT corr.  =        -0.00000000  see jH, gK, PRB 81, 115126


--------------------------------------------------------------------------------------------------------


  average scaling for gradient   0.7297


 average (electrostatic) potential at core
  the test charge radii are     0.7215
  (the norm of the test charge is              1.0000)
       1 -75.1867       2 -75.1854
 
 
 
 E-fermi :  -9.3426     XC(G=0):  -0.8146     alpha+bet : -0.2805

 Fermi energy:        -9.3425510578

 spin component 1

 k-point     1 :       0.0000    0.0000    0.0000
  band No.  band energies     occupation 
      1     -36.9327      1.00000
      2     -24.5103      1.00000
      3     -16.1052      1.00000
      4     -16.1045      1.00000
      5     -15.5009      1.00000
      6      -9.3966      1.00000
      7      -9.3955      1.00000
      8      -0.1895      0.00000
      9       1.4028      0.00000
     10       1.9979      0.00000
     11       2.2938      0.00000

 k-point     2 :       0.5000    0.0000    0.0000
  band No.  band energies     occupation 
      1     -36.9330      1.00000
      2     -24.5102      1.00000
      3     -16.1051      1.00000
      4     -16.1050      1.00000
      5     -15.5009      1.00000
      6      -9.3963      1.00000
      7      -9.3957      1.00000
      8       0.4240      0.00000
      9       0.5299      0.00000
     10       1.8097      0.00000
     11       2.4860      0.00000

 k-point     3 :       0.0000    0.5000    0.0000
  band No.  band energies     occupation 
      1     -36.9329      1.00000
      2     -24.5101      1.00000
      3     -16.1054      1.00000
      4     -16.1045      1.00000
      5     -15.5008      1.00000
      6      -9.3961      1.00000
      7      -9.3955      1.00000
      8       0.3227      0.00000
      9       0.4747      0.00000
     10       1.7292      0.00000
     11       2.7007      0.00000

 k-point     4 :       0.5000    0.5000    0.0000
  band No.  band energies     occupation 
      1     -36.9329      1.00000
      2     -24.5102      1.00000
      3     -16.1052      1.00000
      4     -16.1049      1.00000
      5     -15.5008      1.00000
      6      -9.3961      1.00000
      7      -9.3959      1.00000
      8       0.9763      0.00000
      9       0.9942      0.00000
     10       1.0174      0.00000
     11       2.0801      0.00000

 k-point     5 :       0.0000    0.0000    0.5000
  band No.  band energies     occupation 
      1     -36.9328      1.00000
      2     -24.5103      1.00000
      3     -16.1051      1.00000
      4     -16.1046      1.00000
      5     -15.5009      1.00000
      6      -9.3964      1.00000
      7      -9.3959      1.00000
      8       0.1770      0.00000
      9       0.2988      0.00000
     10       2.3102      0.00000
     11       2.6193      0.00000

 k-point     6 :       0.5000    0.0000    0.5000
  band No.  band energies     occupation 
      1     -36.9329      1.00000
      2     -24.5102      1.00000
      3     -16.1050      1.00000
      4     -16.1050      1.00000
      5     -15.5008      1.00000
      6      -9.3961      1.00000
      7      -9.3955      1.00000
      8       0.8042      0.00000
      9       0.8056      0.00000
     10       0.8843      0.00000
     11       2.4210      0.00000

 k-point     7 :       0.0000    0.5000    0.5000
  band No.  band energies     occupation 
      1     -36.9329      1.00000
      2     -24.5102      1.00000
      3     -16.1053      1.00000
      4     -16.1046      1.00000
      5     -15.5009      1.00000
      6      -9.3962      1.00000
      7      -9.3955      1.00000
      8       0.6955      0.00000
      9       0.7201      0.00000
     10       0.8362      0.00000
     11       1.3801      0.00000

 k-point     8 :       0.5000    0.5000    0.5000
  band No.  band energies     occupation 
      1     -36.9329      1.00000
      2     -24.5101      1.00000
      3     -16.1052      1.00000
      4     -16.1049      1.00000
      5     -15.5008      1.00000
      6      -9.3962      1.00000
      7      -9.3956      1.00000
      8       1.1749      0.00000
      9       1.2989      0.00000
     10       1.3484      0.00000
     11       1.4389      0.00000
 Fermi energy:        -9.3425510578

 spin component 2

 k-point     1 :       0.0000    0.0000    0.0000
  band No.  band energies     occupation 
      1     -35.0188      1.00000
      2     -21.5190      1.00000
      3     -14.3378      1.00000
      4     -12.5403      1.00000
      5     -12.5398      1.00000
      6      -2.7936      0.00000
      7      -2.7922      0.00000
      8      -0.1308      0.00000
      9       1.5777      0.00000
     10       2.0992      0.00000
     11       2.4006      0.00000

 k-point     2 :       0.5000    0.0000    0.0000
  band No.  band energies     occupation 
      1     -35.0191      1.00000
      2     -21.5189      1.00000
      3     -14.3378      1.00000
      4     -12.5404      1.00000
      5     -12.5402      1.00000
      6      -2.7956      0.00000
      7      -2.7931      0.00000
      8       0.5032      0.00000
      9       0.5850      0.00000
     10       2.0515      0.00000
     11       2.6316      0.00000

 k-point     3 :       0.0000    0.5000    0.0000
  band No.  band energies     occupation 
      1     -35.0190      1.00000
      2     -21.5188      1.00000
      3     -14.3378      1.00000
      4     -12.5405      1.00000
      5     -12.5399      1.00000
      6      -2.7951      0.00000
      7      -2.7921      0.00000
      8       0.4005      0.00000
      9       0.5276      0.00000
     10       1.9640      0.00000
     11       2.8245      0.00000

 k-point     4 :       0.5000    0.5000    0.0000
  band No.  band energies     occupation 
      1     -35.0190      1.00000
      2     -21.5189      1.00000
      3     -14.3377      1.00000
      4     -12.5404      1.00000
      5     -12.5403      1.00000
      6      -2.7955      0.00000
      7      -2.7947      0.00000
      8       1.0531      0.00000
      9       1.0927      0.00000
     10       1.1044      0.00000
     11       2.3926      0.00000

 k-point     5 :       0.0000    0.0000    0.5000
  band No.  band energies     occupation 
      1     -35.0189      1.00000
      2     -21.5190      1.00000
      3     -14.3378      1.00000
      4     -12.5403      1.00000
      5     -12.5399      1.00000
      6      -2.7942      0.00000
      7      -2.7931      0.00000
      8       0.2250      0.00000
      9       0.3924      0.00000
     10       2.4200      0.00000
     11       2.7410      0.00000

 k-point     6 :       0.5000    0.0000    0.5000
  band No.  band energies     occupation 
      1     -35.0191      1.00000
      2     -21.5188      1.00000
      3     -14.3377      1.00000
      4     -12.5404      1.00000
      5     -12.5402      1.00000
      6      -2.7965      0.00000
      7      -2.7936      0.00000
      8       0.8778      0.00000
      9       0.9284      0.00000
     10       0.9349      0.00000
     11       2.8781      0.00000

 k-point     7 :       0.0000    0.5000    0.5000
  band No.  band energies     occupation 
      1     -35.0190      1.00000
      2     -21.5189      1.00000
      3     -14.3378      1.00000
      4     -12.5405      1.00000
      5     -12.5399      1.00000
      6      -2.7961      0.00000
      7      -2.7928      0.00000
      8       0.7657      0.00000
      9       0.8421      0.00000
     10       0.8851      0.00000
     11       1.1658      0.00000

 k-point     8 :       0.5000    0.5000    0.5000
  band No.  band energies     occupation 
      1     -35.0191      1.00000
      2     -21.5188      1.00000
      3     -14.3377      1.00000
      4     -12.5404      1.00000
      5     -12.5403      1.00000
      6      -2.7963      0.00000
      7      -2.7956      0.00000
      8       1.3342      0.00000
      9       1.3754      0.00000
     10       1.4251      0.00000
     11       1.5603      0.00000


--------------------------------------------------------------------------------------------------------


 soft charge-density along one line, spin component            1
         0         1         2         3         4         5         6         7         8         9
 total charge-density along one line
 
 soft charge-density along one line, spin component            2
         0         1         2         3         4         5         6         7         8         9
 total charge-density along one line
 
 pseudopotential strength for first ion, spin component:            1
 13.000 -15.889   0.000  -0.146  -0.000  -0.000   0.182   0.000
-15.889  19.445  -0.000   0.187   0.000   0.000  -0.235  -0.000
  0.000  -0.000  -9.824   0.000   0.000  12.076  -0.000  -0.000
 -0.146   0.187   0.000  -9.895  -0.000  -0.000  12.157   0.000
 -0.000   0.000   0.000  -0.000  -9.824  -0.000   0.000  12.076
 -0.000   0.000  12.076  -0.000  -0.000 -14.750   0.000   0.000
  0.182  -0.235  -0.000  12.157   0.000   0.000 -14.839  -0.000
  0.000  -0.000  -0.000   0.000  12.076   0.000  -0.000 -14.750
 pseudopotential strength for first ion, spin component:            2
 12.691 -15.491   0.000  -0.144  -0.000  -0.000   0.181   0.000
-15.491  18.935  -0.000   0.185   0.000   0.000  -0.232  -0.000
  0.000  -0.000  -9.298  -0.000   0.000  11.325   0.000  -0.000
 -0.144   0.185  -0.000  -9.660   0.000   0.000  11.825  -0.000
 -0.000   0.000   0.000   0.000  -9.298  -0.000  -0.000  11.325
 -0.000   0.000  11.325   0.000  -0.000 -13.674  -0.000   0.000
  0.181  -0.232   0.000  11.825  -0.000  -0.000 -14.369   0.000
  0.000  -0.000  -0.000  -0.000  11.325   0.000   0.000 -13.674
 total augmentation occupancy for first ion, spin component:            1
  2.648   0.405  -0.000   0.560   0.000  -0.000   0.275   0.000
  0.405   0.192  -0.000   0.574   0.000  -0.000   0.176   0.000
 -0.000  -0.000   1.768  -0.000   0.000   0.122  -0.000   0.000
  0.560   0.574  -0.000   2.529   0.000  -0.000   0.593   0.000
  0.000   0.000   0.000   0.000   1.769   0.000   0.000   0.122
 -0.000  -0.000   0.122  -0.000   0.000   0.036  -0.000  -0.000
  0.275   0.176  -0.000   0.593   0.000  -0.000   0.169   0.000
  0.000   0.000   0.000   0.000   0.122  -0.000   0.000   0.036
 total augmentation occupancy for first ion, spin component:            2
 -0.139  -0.081   0.000  -0.013  -0.000   0.000  -0.019  -0.000
 -0.081  -0.014   0.000  -0.007  -0.000   0.000  -0.007  -0.000
  0.000   0.000   0.321   0.000  -0.000  -0.116   0.000  -0.000
 -0.013  -0.007   0.000  -0.043  -0.000  -0.000  -0.020   0.000
 -0.000  -0.000  -0.000  -0.000   0.321  -0.000  -0.000  -0.116
  0.000   0.000  -0.116  -0.000  -0.000  -0.003   0.000  -0.000
 -0.019  -0.007   0.000  -0.020  -0.000   0.000  -0.006  -0.000
 -0.000  -0.000  -0.000   0.000  -0.116  -0.000  -0.000  -0.003


------------------------ aborting loop because EDIFF is reached ----------------------------------------


    FORLOC:  cpu time      0.0030: real time      0.0030
    FORHF :  cpu time      0.4697: real time      0.4697
    FORNL :  cpu time      0.0325: real time      0.0325
    STRESS:  cpu time      0.1035: real time      0.1035
    FORCOR:  cpu time      1.2539: real time      1.2537
    OFIELD:  cpu time      0.0016: real time      0.0016

  FORCE on cell =-STRESS in cart. coord.  units (eV):
  Direction    XX          YY          ZZ          XY          YZ          ZX
  --------------------------------------------------------------------------------------
  Alpha Z     1.04086     1.04086     1.04086
  Ewald     -93.58221  -116.33217   272.30453     0.00000    -0.00000    -0.00000
  Hartree   226.53097   204.66220   369.27138     0.00000    -0.00007     0.00019
  E(xc)     -38.74863   -38.74841   -38.29539     0.00000    -0.00000     0.00000
  Local    -317.35021  -272.72542  -782.33807    -0.00001     0.00010    -0.00034
  n-local   -31.15025   -31.14937   -35.40295    -0.00001    -0.00000    -0.00000
  augment    11.87959    11.88221     9.26047     0.00000    -0.00000     0.00002
  Kinetic   271.70172   271.70623   232.64082     0.00002    -0.00013     0.00035
  Fock      -30.72684   -30.72627   -31.98849    -0.00000     0.00000    -0.00001
  -------------------------------------------------------------------------------------
  Total      -0.40499    -0.39014    -3.50685     0.00000     0.00000     0.00000
  in kB      -1.21510    -1.17056   -10.52171     0.00000     0.00000     0.00000
  external pressure =       -4.30 kB  Pullay stress =        0.00 kB


 VOLUME and BASIS-vectors are now :
 -----------------------------------------------------------------------------
  energy-cutoff  :      450.00
  volume of cell :      534.00
      direct lattice vectors                 reciprocal lattice vectors
     7.500000000  0.000000000  0.000000000     0.133333333  0.000000000  0.000000000
     0.000000000  8.000000000  0.000000000     0.000000000  0.125000000  0.000000000
     0.000000000  0.000000000  8.900000000     0.000000000  0.000000000  0.112359551

  length of vectors
     7.500000000  8.000000000  8.900000000     0.133333333  0.125000000  0.112359551


 FORCES acting on ions:
    Electron-Ion                     Ewald-Force                    Non-Local-Force
 -----------------------------------------------------------------------------------------------
   -.402E-03 0.197E-03 0.285E+03   0.187E-15 0.621E-16 -.337E+03   -.212E-20 0.000E+00 0.446E+02
   0.627E-03 -.243E-03 -.285E+03   0.187E-16 -.157E-15 0.337E+03   0.847E-21 0.000E+00 -.446E+02
 -----------------------------------------------------------------------------------------------
   0.225E-03 -.454E-04 0.166E-01   0.206E-15 -.952E-16 0.000E+00   -.127E-20 0.000E+00 0.000E+00
 
 
 POSITION                                       TOTAL-FORCE (eV/Angst)
 -----------------------------------------------------------------------------------
      0.00000      0.00000      8.88328        -0.000000      0.000000      2.604257
      0.00000      0.00000      1.21672         0.000000      0.000000     -2.604257
 -----------------------------------------------------------------------------------
    total drift:                                0.000225     -0.000045      0.016636


--------------------------------------------------------------------------------------------------------



  FREE ENERGIE OF THE ION-ELECTRON SYSTEM (eV)
  ---------------------------------------------------
  free  energy   TOTEN  =       -15.76491036 eV

  energy  without entropy=      -15.76491036  energy(sigma->0) =      -15.76491036
 


--------------------------------------------------------------------------------------------------------


    POTLOK:  cpu time      1.3814: real time      1.3812


--------------------------------------------------------------------------------------------------------


 writing wavefunctions
     LOOP+:  cpu time     84.4737: real time     84.7016
    4ORBIT:  cpu time      0.0000: real time      0.0000

 total amount of memory used by VASP MPI-rank0   219283. kBytes
=======================================================================

   base      :      30000. kBytes
   nonlr-proj:        316. kBytes
   fftplans  :      22416. kBytes
   grid      :      53706. kBytes
   one-center:         12. kBytes
   HF        :          4. kBytes
   wavefun   :      98097. kBytes
   fock_wrk  :      14732. kBytes
 
  
  
 General timing and accounting informations for this job:
 ========================================================
  
                  Total CPU time used (sec):       91.859
                            User time (sec):       90.248
                          System time (sec):        1.611
                         Elapsed time (sec):       93.429
  
                   Maximum memory used (kb):     3996992.
                   Average memory used (kb):          N/A
  
                          Minor page faults:       113088
                          Major page faults:            4
                 Voluntary context switches:         5867
