<?xml version="1.0" encoding="ISO-8859-1"?>
<modeling>
 <generator>
  <i name="program" type="string">vasp </i>
  <i name="version" type="string">6.4.2  </i>
  <i name="subversion" type="string">20Jul23 (build Nov 12 2023 22:16:35) complex                          parallel </i>
  <i name="platform" type="string">LinuxNV </i>
  <i name="date" type="string">2025 03 09 </i>
  <i name="time" type="string">14:17:39 </i>
 </generator>
 <incar>
  <i type="int" name="ISTART">     0</i>
  <i type="string" name="PREC">Normal</i>
  <i type="string" name="ALGO">All</i>
  <i type="int" name="ISPIN">     2</i>
  <i type="int" name="ICHARG">     0</i>
  <i type="int" name="NELM">   500</i>
  <i type="int" name="IBRION">    -1</i>
  <i name="EDIFF">      0.00001000</i>
  <i name="EDIFFG">     -0.00500000</i>
  <i type="int" name="NSW">     0</i>
  <i type="int" name="ISIF">     2</i>
  <i name="ENCUT">    450.00000000</i>
  <i type="string" name="LREAL">Auto</i>
  <i type="logical" name="LPLANE"> T  </i>
  <i name="TIME">      0.40000000</i>
  <i type="int" name="ISMEAR">     0</i>
  <i name="SIGMA">      0.01000000</i>
  <i type="logical" name="LWAVE"> T  </i>
  <i type="logical" name="LCHARG"> T  </i>
  <i name="HFSCREEN">      0.18000000</i>
  <i type="logical" name="LHFCALC"> T  </i>
  <i type="int" name="LMAXFOCK">     4</i>
  <i name="AEXX">      0.35000000</i>
  <i type="string" name="PRECFOCK">Fast</i>
 </incar>
 <primitive_cell>
  <structure name="primitive_cell" >
   <crystal>
    <varray name="basis" >
     <v>       7.50000000       0.00000000       0.00000000 </v>
     <v>       0.00000000       8.00000000       0.00000000 </v>
     <v>       0.00000000       0.00000000       8.90000000 </v>
    </varray>
    <i name="volume">    534.00000000 </i>
    <varray name="rec_basis" >
     <v>       0.13333333       0.00000000       0.00000000 </v>
     <v>       0.00000000       0.12500000       0.00000000 </v>
     <v>       0.00000000       0.00000000       0.11235955 </v>
    </varray>
   </crystal>
   <varray name="positions" >
    <v>       0.00000000       0.00000000       0.99812110 </v>
    <v>       0.00000000       0.00000000       0.13671036 </v>
   </varray>
  </structure>
  <varray name="primitive_index" >
   <v type="int" >        1 </v>
   <v type="int" >        2 </v>
  </varray>
 </primitive_cell>
 <kpoints>
  <generation param="Gamma">
   <v type="int" name="divisions">       2        2        2 </v>
   <v name="usershift">      0.00000000       0.00000000       0.00000000 </v>
   <v name="genvec1">      0.50000000       0.00000000       0.00000000 </v>
   <v name="genvec2">      0.00000000       0.50000000       0.00000000 </v>
   <v name="genvec3">      0.00000000       0.00000000       0.50000000 </v>
   <v name="shift">      0.00000000       0.00000000       0.00000000 </v>
  </generation>
  <varray name="kpointlist" >
   <v>       0.00000000       0.00000000       0.00000000 </v>
   <v>       0.50000000       0.00000000       0.00000000 </v>
   <v>       0.00000000       0.50000000       0.00000000 </v>
   <v>       0.50000000       0.50000000       0.00000000 </v>
   <v>       0.00000000       0.00000000       0.50000000 </v>
   <v>       0.50000000       0.00000000       0.50000000 </v>
   <v>       0.00000000       0.50000000       0.50000000 </v>
   <v>       0.50000000       0.50000000       0.50000000 </v>
  </varray>
  <varray name="weights" >
   <v>       0.12500000 </v>
   <v>       0.12500000 </v>
   <v>       0.12500000 </v>
   <v>       0.12500000 </v>
   <v>       0.12500000 </v>
   <v>       0.12500000 </v>
   <v>       0.12500000 </v>
   <v>       0.12500000 </v>
  </varray>
 </kpoints>
 <parameters>
  <separator name="general" >
   <i type="string" name="SYSTEM">unknown system</i>
   <i type="logical" name="LCOMPAT"> F  </i>
  </separator>
  <separator name="electronic" >
   <i type="string" name="PREC">normal</i>
   <i name="ENMAX">    450.00000000</i>
   <i name="ENAUG">    605.39200000</i>
   <i name="EDIFF">      0.00001000</i>
   <i type="int" name="IALGO">    58</i>
   <i type="int" name="IWAVPR">    10</i>
   <i type="int" name="NBANDS">    11</i>
   <i type="int" name="NBANDSLOW">    -1</i>
   <i type="int" name="NBANDSHIGH">    -1</i>
   <i name="NELECT">     12.00000000</i>
   <i type="int" name="TURBO">     0</i>
   <i type="int" name="IRESTART">     0</i>
   <i type="int" name="NREBOOT">     0</i>
   <i type="int" name="NMIN">     0</i>
   <i name="EREF">      0.00000000</i>
   <separator name="electronic smearing" >
    <i type="int" name="ISMEAR">     0</i>
    <i name="SIGMA">      0.01000000</i>
    <i name="KSPACING">      0.50000000</i>
    <i type="logical" name="KGAMMA"> T  </i>
    <i type="logical" name="KBLOWUP"> T  </i>
   </separator>
   <separator name="electronic projectors" >
    <i type="logical" name="LREAL"> T  </i>
    <v name="ROPT">     -0.00050000</v>
    <i type="int" name="LMAXPAW">  -100</i>
    <i type="int" name="LMAXMIX">     2</i>
    <i type="logical" name="NLSPLINE"> F  </i>
   </separator>
   <separator name="electronic startup" >
    <i type="int" name="ISTART">     0</i>
    <i type="int" name="ICHARG">     0</i>
    <i type="int" name="INIWAV">     1</i>
   </separator>
   <separator name="electronic spin" >
    <i type="int" name="ISPIN">     2</i>
    <i type="logical" name="LNONCOLLINEAR"> F  </i>
    <v name="MAGMOM">      1.00000000      1.00000000</v>
    <i name="NUPDOWN">     -1.00000000</i>
    <i type="logical" name="LSORBIT"> F  </i>
    <v name="SAXIS">      0.00000000      0.00000000      1.00000000</v>
    <i type="logical" name="LSPIRAL"> F  </i>
    <v name="QSPIRAL">      0.00000000      0.00000000      0.00000000</v>
    <i type="logical" name="LZEROZ"> F  </i>
   </separator>
   <separator name="electronic exchange-correlation" >
    <i type="logical" name="LASPH"> F  </i>
    <i type="logical" name="LMETAGGA"> F  </i>
   </separator>
   <separator name="electronic convergence" >
    <i type="int" name="NELM">   500</i>
    <i type="int" name="NELMDL">    -5</i>
    <i type="int" name="NELMIN">     2</i>
    <i name="ENINI">    450.00000000</i>
    <separator name="electronic convergence detail" >
     <i type="logical" name="LDIAG"> T  </i>
     <i type="logical" name="LSUBROT"> F  </i>
     <i name="WEIMIN">      0.00000000</i>
     <i name="EBREAK">      0.00000023</i>
     <i name="DEPER">      0.30000000</i>
     <i type="int" name="NRMM">     4</i>
     <i name="TIME">      0.40000000</i>
    </separator>
   </separator>
   <separator name="electronic mixer" >
    <i name="AMIX">      0.40000000</i>
    <i name="BMIX">      1.00000000</i>
    <i name="AMIN">      0.10000000</i>
    <i name="AMIX_MAG">      1.60000000</i>
    <i name="BMIX_MAG">      1.00000000</i>
    <separator name="electronic mixer details" >
     <i type="int" name="IMIX">     4</i>
     <i type="logical" name="MIXFIRST"> F  </i>
     <i type="int" name="MAXMIX">   -45</i>
     <i name="WC">    100.00000000</i>
     <i type="int" name="INIMIX">     1</i>
     <i type="int" name="MIXPRE">     1</i>
     <i type="int" name="MREMOVE">     5</i>
    </separator>
   </separator>
   <separator name="electronic dipolcorrection" >
    <i type="logical" name="LDIPOL"> F  </i>
    <i type="logical" name="LMONO"> F  </i>
    <i type="int" name="IDIPOL">     0</i>
    <i name="EPSILON">      1.00000000</i>
    <v name="DIPOL">   -100.00000000   -100.00000000   -100.00000000</v>
    <i name="EFIELD">      0.00000000</i>
   </separator>
  </separator>
  <separator name="grids" >
   <i type="int" name="NGX">    40</i>
   <i type="int" name="NGY">    42</i>
   <i type="int" name="NGZ">    48</i>
   <i type="int" name="NGXF">    80</i>
   <i type="int" name="NGYF">    84</i>
   <i type="int" name="NGZF">    96</i>
   <i type="logical" name="ADDGRID"> F  </i>
  </separator>
  <separator name="ionic" >
   <i type="int" name="NSW">     0</i>
   <i type="int" name="IBRION">    -1</i>
   <i type="int" name="MDALGO">     0</i>
   <i type="int" name="ISIF">     2</i>
   <i name="PSTRESS">      0.00000000</i>
   <i name="EDIFFG">     -0.00500000</i>
   <i type="int" name="NFREE">     0</i>
   <i name="POTIM">      0.50000000</i>
   <i name="SMASS">     -3.00000000</i>
   <i name="SCALEE">      1.00000000</i>
  </separator>
  <separator name="ionic md" >
   <i name="TEBEG">      0.00010000</i>
   <i name="TEEND">      0.00010000</i>
   <i type="int" name="NBLOCK">     1</i>
   <i type="int" name="KBLOCK">     1</i>
   <i type="int" name="NPACO">   256</i>
   <i name="APACO">     10.00000000</i>
  </separator>
  <separator name="symmetry" >
   <i type="int" name="ISYM">     3</i>
   <i name="SYMPREC">      0.00001000</i>
  </separator>
  <separator name="dos" >
   <i type="int" name="LORBIT">     0</i>
   <v name="RWIGS">     -1.00000000</v>
   <i type="int" name="NEDOS">   301</i>
   <i name="EMIN">     10.00000000</i>
   <i name="EMAX">    -10.00000000</i>
   <i name="EFERMI">      0.00000000</i>
  </separator>
  <separator name="writing" >
   <i type="int" name="NWRITE">     2</i>
   <i type="logical" name="LWAVE"> T  </i>
   <i type="logical" name="LDOWNSAMPLE"> F  </i>
   <i type="logical" name="LCHARG"> T  </i>
   <i type="logical" name="LPARD"> F  </i>
   <i type="logical" name="LVTOT"> F  </i>
   <i type="logical" name="LVHAR"> F  </i>
   <i type="logical" name="LELF"> F  </i>
   <i type="logical" name="LOPTICS"> F  </i>
   <v name="STM">      0.00000000      0.00000000      0.00000000      0.00000000      0.00000000      0.00000000      0.00000000</v>
  </separator>
  <separator name="performance" >
   <i type="int" name="NPAR">     1</i>
   <i type="int" name="NSIM">     4</i>
   <i type="int" name="NBLK">    -1</i>
   <i type="logical" name="LPLANE"> T  </i>
   <i type="logical" name="LSCALAPACK"> T  </i>
   <i type="logical" name="LSCAAWARE"> F  </i>
   <i type="logical" name="LSCALU"> F  </i>
   <i type="logical" name="LASYNC"> F  </i>
   <i type="logical" name="LORBITALREAL"> F  </i>
  </separator>
  <separator name="miscellaneous" >
   <i type="int" name="IDIOT">     3</i>
   <i type="int" name="PHON_NSTRUCT">    -1</i>
   <i type="logical" name="LMUSIC"> F  </i>
   <v name="POMASS">     16.00000000</v>
   <v name="DARWINR">      0.00000000</v>
   <v name="DARWINV">      1.00000000</v>
   <i type="logical" name="LCORR"> T  </i>
  </separator>
  <i type="logical" name="GGA_COMPAT"> T  </i>
  <i type="logical" name="LBERRY"> F  </i>
  <i type="int" name="ICORELEVEL">     0</i>
  <i type="logical" name="LDAU"> F  </i>
  <i type="int" name="I_CONSTRAINED_M">     0</i>
  <separator name="electronic exchange-correlation" >
   <i type="string" name="GGA">--</i>
   <i type="int" name="VOSKOWN">     0</i>
   <i type="logical" name="LHFCALC"> T  </i>
   <i type="string" name="PRECFOCK">fast</i>
   <i type="logical" name="LSYMGRAD"> F  </i>
   <i type="logical" name="LHFONE"> F  </i>
   <i type="logical" name="LRHFCALC"> F  </i>
   <i type="logical" name="LTHOMAS"> F  </i>
   <i type="logical" name="LMODELHF"> F  </i>
   <i type="logical" name="LFOCKACE"> T  </i>
   <i name="ENCUT4O">     -1.00000000</i>
   <i type="int" name="EXXOEP">     0</i>
   <i type="int" name="FOURORBIT">     0</i>
   <i name="AEXX">      0.35000000</i>
   <i name="HFALPHA">     -1.00000000</i>
   <i name="MCALPHA">      0.00000000</i>
   <i name="ALDAX">      0.65000000</i>
   <i name="AGGAX">      0.65000000</i>
   <i name="ALDAC">      1.00000000</i>
   <i name="AGGAC">      1.00000000</i>
   <i type="int" name="NKREDX">     1</i>
   <i type="int" name="NKREDY">     1</i>
   <i type="int" name="NKREDZ">     1</i>
   <i type="logical" name="SHIFTRED"> F  </i>
   <i type="logical" name="ODDONLY"> F  </i>
   <i type="logical" name="EVENONLY"> F  </i>
   <i type="int" name="LMAXFOCK">     4</i>
   <i type="int" name="NMAXFOCKAE">     1</i>
   <i type="logical" name="LFOCKAEDFT"> F  </i>
   <i name="HFSCREEN">      0.18000000</i>
   <i name="HFSCREENC">      0.18000000</i>
   <i type="int" name="NBANDSGWLOW">     1</i>
  </separator>
  <separator name="vdW DFT" >
   <i type="logical" name="LUSE_VDW"> F  </i>
   <i type="int" name="IVDW_NL">     1</i>
   <i type="logical" name="LSPIN_VDW"> F  </i>
   <i name="Zab_VDW">     -0.84910000</i>
   <i name="PARAM1">      0.12340000</i>
   <i name="PARAM2">      1.00000000</i>
   <i name="PARAM3">      0.00000000</i>
  </separator>
  <separator name="model GW" >
   <i type="int" name="MODEL_GW">     0</i>
   <i name="MODEL_EPS0">    160.20000000</i>
   <i name="MODEL_ALPHA">      1.00000000</i>
  </separator>
  <separator name="linear response parameters" >
   <i type="logical" name="LEPSILON"> F  </i>
   <i type="logical" name="LRPA"> F  </i>
   <i type="logical" name="LNABLA"> F  </i>
   <i type="logical" name="LVEL"> F  </i>
   <i name="CSHIFT">      0.10000000</i>
   <i name="OMEGAMAX">     -1.00000000</i>
   <i name="DEG_THRESHOLD">      0.00200000</i>
   <i name="RTIME">     -0.10000000</i>
   <i name="WPLASMAI">      0.00000000</i>
   <v name="DFIELD">      0.00000000      0.00000000      0.00000000</v>
   <v name="WPLASMA">      0.00000000      0.00000000      0.00000000      0.00000000      0.00000000      0.00000000      0.00000000      0.00000000      0.00000000</v>
  </separator>
  <separator name="orbital magnetization" >
   <i type="logical" name="NUCIND"> F  </i>
   <v name="MAGPOS">      0.00000000      0.00000000      0.00000000</v>
   <i type="logical" name="LNICSALL"> T  </i>
   <i type="logical" name="ORBITALMAG"> F  </i>
   <i type="logical" name="LMAGBLOCH"> F  </i>
   <i type="logical" name="LCHIMAG"> F  </i>
   <i type="logical" name="LGAUGE"> T  </i>
   <i type="int" name="MAGATOM">     0</i>
   <v name="MAGDIPOL">      0.00000000      0.00000000      0.00000000</v>
   <v name="AVECCONST">      0.00000000      0.00000000      0.00000000</v>
  </separator>
  <separator name="response functions" >
   <i type="logical" name="LALL_IN_ONE"> F  </i>
   <i type="int" name="IALL_IN_ONE">    -1</i>
   <i type="int" name="NBANDS_WAVE">    -1</i>
   <i type="logical" name="LFINITE_TEMPERATURE"> F  </i>
   <i type="logical" name="LADDER"> F  </i>
   <i type="logical" name="LRPAFORCE"> F  </i>
   <i type="logical" name="LFXC"> F  </i>
   <i type="logical" name="LHARTREE"> T  </i>
   <i type="int" name="IBSE">     0</i>
   <v type="int" name="KPOINT">    -1     0     0     0</v>
   <i type="logical" name="LTCTC"> F  </i>
   <i type="logical" name="LTCTE"> F  </i>
   <i type="logical" name="LTETE"> F  </i>
   <i type="logical" name="LTRIPLET"> F  </i>
   <i type="logical" name="LFXCEPS"> F  </i>
   <i type="logical" name="LFXHEG"> F  </i>
   <i type="int" name="NATURALO">     2</i>
   <i type="logical" name="LHOLEGF"> F  </i>
   <i type="logical" name="L2ORDER"> F  </i>
   <i type="logical" name="LDMP1"> F  </i>
   <i type="logical" name="LMP2LT"> F  </i>
   <i type="logical" name="LSMP2LT"> F  </i>
   <i type="logical" name="LGWLF"> F  </i>
   <i name="ENCUTGW">     -1.60000002</i>
   <i name="ENCUTGWSOFT">     -1.60000002</i>
   <i name="ENCUTLF">     -1.00000000</i>
   <i type="logical" name="LESF_SPLINES"> F  </i>
   <i type="int" name="LMAXMP2">    -1</i>
   <i name="SCISSOR">      0.00000000</i>
   <i type="int" name="NOMEGA">     0</i>
   <i type="int" name="NOMEGAR">     0</i>
   <i type="int" name="NBANDSGW">    -1</i>
   <i type="int" name="NBANDSO">    -1</i>
   <i type="int" name="NBANDSV">    -1</i>
   <i type="int" name="NELMGW">     1</i>
   <i type="int" name="NELMHF">     1</i>
   <i type="int" name="DIM">     3</i>
   <i type="int" name="IESPILON">     4</i>
   <i type="int" name="ANTIRES">     0</i>
   <i name="OMEGAMAX">    -30.00000000</i>
   <i name="OMEGAMIN">    -30.00000000</i>
   <i name="OMEGATL">   -200.00000000</i>
   <i type="int" name="OMEGAGRID">     0</i>
   <i name="CSHIFT">     -0.10000000</i>
   <i type="logical" name="LSELFENERGY"> F  </i>
   <i type="logical" name="LSPECTRAL"> F  </i>
   <i type="logical" name="LSPECTRALGW"> F  </i>
   <i type="logical" name="LSINGLES"> F  </i>
   <i type="logical" name="LFERMIGW"> F  </i>
   <i type="logical" name="ODDONLYGW"> F  </i>
   <i type="logical" name="EVENONLYGW"> F  </i>
   <i type="int" name="NKREDLFX">     1</i>
   <i type="int" name="NKREDLFY">     1</i>
   <i type="int" name="NKREDLFZ">     1</i>
   <i type="int" name="MAXMEM">  2800</i>
   <i type="int" name="TELESCOPE">     0</i>
   <i type="int" name="NTAUPAR">    -1</i>
   <i type="int" name="NOMEGAPAR">    -1</i>
   <i name="DAMP_NEWTON">      0.80000001</i>
   <i name="LAMBDA">      1.00000000</i>
  </separator>
  <separator name="External order field" >
   <i name="OFIELD_KAPPA">      0.00000000</i>
   <v name="OFIELD_K">      0.00000000      0.00000000      0.00000000</v>
   <i name="OFIELD_Q6_NEAR">      0.00000000</i>
   <i name="OFIELD_Q6_FAR">      0.00000000</i>
   <i name="OFIELD_A">      0.00000000</i>
  </separator>
  <separator name="optional k-points parameters" >
   <i type="int" name="KPOINTS_OPT_MODE">     1</i>
   <i type="logical" name="LKPOINTS_OPT"> F  </i>
  </separator>
 </parameters>
 <atominfo>
  <atoms>       2 </atoms>
  <types>       1 </types>
  <array name="atoms" >
   <dimension dim="1">ion</dimension>
   <field type="string">element</field>
   <field type="int">atomtype</field>
   <set>
    <rc><c>O </c><c>   1</c></rc>
    <rc><c>O </c><c>   1</c></rc>
   </set>
  </array>
  <array name="atomtypes" >
   <dimension dim="1">type</dimension>
   <field type="int">atomspertype</field>
   <field type="string">element</field>
   <field>mass</field>
   <field>valence</field>
   <field type="string">pseudopotential</field>
   <set>
    <rc><c>   2</c><c>O </c><c>     16.00000000</c><c>      6.00000000</c><c>  PAW_PBE O 08Apr2002                   </c></rc>
   </set>
  </array>
 </atominfo>
 <structure name="initialpos" >
  <crystal>
   <varray name="basis" >
    <v>       7.50000000       0.00000000       0.00000000 </v>
    <v>       0.00000000       8.00000000       0.00000000 </v>
    <v>       0.00000000       0.00000000       8.90000000 </v>
   </varray>
   <i name="volume">    534.00000000 </i>
   <varray name="rec_basis" >
    <v>       0.13333333       0.00000000       0.00000000 </v>
    <v>       0.00000000       0.12500000       0.00000000 </v>
    <v>       0.00000000       0.00000000       0.11235955 </v>
   </varray>
  </crystal>
  <varray name="positions" >
   <v>       0.00000000       0.00000000       0.99812110 </v>
   <v>       0.00000000       0.00000000       0.13671036 </v>
  </varray>
 </structure>
 <calculation>
  <scstep>
   <time name="total">    0.31    0.32</time>
   <energy>
    <i name="alphaZ">      1.04085735 </i>
    <i name="ewald">     62.39013857 </i>
    <i name="hartreedc">     -2.37317484 </i>
    <i name="XCdc">     14.22242441 </i>
    <i name="pawpsdc">     19.78564630 </i>
    <i name="pawaedc">   -106.69480540 </i>
    <i name="eentropy">     -0.00000000 </i>
    <i name="bandstr">  -1588.55573369 </i>
    <i name="atom">    856.38987498 </i>
    <i name="e_fr_energy">   -743.79477233 </i>
    <i name="e_wo_entrp">   -743.79477233 </i>
    <i name="e_0_energy">   -743.79477233 </i>
   </energy>
  </scstep>
  <scstep>
   <time name="total">    0.10    0.10</time>
   <energy>
    <i name="e_fr_energy">   -932.32377698 </i>
    <i name="e_wo_entrp">   -932.32377698 </i>
    <i name="e_0_energy">   -932.32377698 </i>
   </energy>
  </scstep>
  <scstep>
   <time name="total">    0.09    0.09</time>
   <energy>
    <i name="e_fr_energy">   -944.82346230 </i>
    <i name="e_wo_entrp">   -944.82344727 </i>
    <i name="e_0_energy">   -944.82345479 </i>
   </energy>
  </scstep>
  <scstep>
   <time name="total">    0.08    0.08</time>
   <energy>
    <i name="e_fr_energy">   -945.33048072 </i>
    <i name="e_wo_entrp">   -945.33048072 </i>
    <i name="e_0_energy">   -945.33048072 </i>
   </energy>
  </scstep>
  <scstep>
   <time name="total">    1.59    1.59</time>
   <energy>
    <i name="e_fr_energy">   -884.26864521 </i>
    <i name="e_wo_entrp">   -884.26864521 </i>
    <i name="e_0_energy">   -884.26864521 </i>
   </energy>
  </scstep>
  <scstep>
   <time name="total">    3.04    3.04</time>
   <energy>
    <i name="e_fr_energy">    235.88508106 </i>
    <i name="e_wo_entrp">    235.88508106 </i>
    <i name="e_0_energy">    235.88508106 </i>
   </energy>
  </scstep>
  <scstep>
   <time name="total">    3.13    3.13</time>
   <energy>
    <i name="e_fr_energy">     92.08709671 </i>
    <i name="e_wo_entrp">     92.08709671 </i>
    <i name="e_0_energy">     92.08709671 </i>
   </energy>
  </scstep>
  <scstep>
   <time name="total">    3.13    3.13</time>
   <energy>
    <i name="e_fr_energy">     67.22137453 </i>
    <i name="e_wo_entrp">     67.22137453 </i>
    <i name="e_0_energy">     67.22137453 </i>
   </energy>
  </scstep>
  <scstep>
   <time name="total">    3.12    3.12</time>
   <energy>
    <i name="e_fr_energy">     20.08929257 </i>
    <i name="e_wo_entrp">     20.08929257 </i>
    <i name="e_0_energy">     20.08929257 </i>
   </energy>
  </scstep>
  <scstep>
   <time name="total">    3.58    3.65</time>
   <energy>
    <i name="e_fr_energy">      0.60641343 </i>
    <i name="e_wo_entrp">      0.60641343 </i>
    <i name="e_0_energy">      0.60641343 </i>
   </energy>
  </scstep>
  <scstep>
   <time name="total">    3.13    3.13</time>
   <energy>
    <i name="e_fr_energy">    -10.29254317 </i>
    <i name="e_wo_entrp">    -10.29254317 </i>
    <i name="e_0_energy">    -10.29254317 </i>
   </energy>
  </scstep>
  <scstep>
   <time name="total">    3.13    3.13</time>
   <energy>
    <i name="e_fr_energy">    -13.48988391 </i>
    <i name="e_wo_entrp">    -13.48988391 </i>
    <i name="e_0_energy">    -13.48988391 </i>
   </energy>
  </scstep>
  <scstep>
   <time name="total">    3.11    3.11</time>
   <energy>
    <i name="e_fr_energy">    -14.74636885 </i>
    <i name="e_wo_entrp">    -14.74636885 </i>
    <i name="e_0_energy">    -14.74636885 </i>
   </energy>
  </scstep>
  <scstep>
   <time name="total">    3.06    3.06</time>
   <energy>
    <i name="e_fr_energy">    -15.27743296 </i>
    <i name="e_wo_entrp">    -15.27743296 </i>
    <i name="e_0_energy">    -15.27743296 </i>
   </energy>
  </scstep>
  <scstep>
   <time name="total">    3.10    3.10</time>
   <energy>
    <i name="e_fr_energy">    -15.52909462 </i>
    <i name="e_wo_entrp">    -15.52909462 </i>
    <i name="e_0_energy">    -15.52909462 </i>
   </energy>
  </scstep>
  <scstep>
   <time name="total">    3.13    3.13</time>
   <energy>
    <i name="e_fr_energy">    -15.66139010 </i>
    <i name="e_wo_entrp">    -15.66139010 </i>
    <i name="e_0_energy">    -15.66139010 </i>
   </energy>
  </scstep>
  <scstep>
   <time name="total">    3.10    3.10</time>
   <energy>
    <i name="e_fr_energy">    -15.71376074 </i>
    <i name="e_wo_entrp">    -15.71376074 </i>
    <i name="e_0_energy">    -15.71376074 </i>
   </energy>
  </scstep>
  <scstep>
   <time name="total">    3.12    3.12</time>
   <energy>
    <i name="e_fr_energy">    -15.73781951 </i>
    <i name="e_wo_entrp">    -15.73781951 </i>
    <i name="e_0_energy">    -15.73781951 </i>
   </energy>
  </scstep>
  <scstep>
   <time name="total">    3.11    3.11</time>
   <energy>
    <i name="e_fr_energy">    -15.75019457 </i>
    <i name="e_wo_entrp">    -15.75019457 </i>
    <i name="e_0_energy">    -15.75019457 </i>
   </energy>
  </scstep>
  <scstep>
   <time name="total">    3.12    3.12</time>
   <energy>
    <i name="e_fr_energy">    -15.75732399 </i>
    <i name="e_wo_entrp">    -15.75732399 </i>
    <i name="e_0_energy">    -15.75732399 </i>
   </energy>
  </scstep>
  <scstep>
   <time name="total">    3.13    3.13</time>
   <energy>
    <i name="e_fr_energy">    -15.76118569 </i>
    <i name="e_wo_entrp">    -15.76118569 </i>
    <i name="e_0_energy">    -15.76118569 </i>
   </energy>
  </scstep>
  <scstep>
   <time name="total">    3.12    3.12</time>
   <energy>
    <i name="e_fr_energy">    -15.76308554 </i>
    <i name="e_wo_entrp">    -15.76308554 </i>
    <i name="e_0_energy">    -15.76308554 </i>
   </energy>
  </scstep>
  <scstep>
   <time name="total">    3.13    3.13</time>
   <energy>
    <i name="e_fr_energy">    -15.76397439 </i>
    <i name="e_wo_entrp">    -15.76397439 </i>
    <i name="e_0_energy">    -15.76397439 </i>
   </energy>
  </scstep>
  <scstep>
   <time name="total">    3.09    3.09</time>
   <energy>
    <i name="e_fr_energy">    -15.76441612 </i>
    <i name="e_wo_entrp">    -15.76441612 </i>
    <i name="e_0_energy">    -15.76441612 </i>
   </energy>
  </scstep>
  <scstep>
   <time name="total">    3.09    3.09</time>
   <energy>
    <i name="e_fr_energy">    -15.76465412 </i>
    <i name="e_wo_entrp">    -15.76465412 </i>
    <i name="e_0_energy">    -15.76465412 </i>
   </energy>
  </scstep>
  <scstep>
   <time name="total">    3.13    3.13</time>
   <energy>
    <i name="e_fr_energy">    -15.76478456 </i>
    <i name="e_wo_entrp">    -15.76478456 </i>
    <i name="e_0_energy">    -15.76478456 </i>
   </energy>
  </scstep>
  <scstep>
   <time name="total">    3.07    3.07</time>
   <energy>
    <i name="e_fr_energy">    -15.76485090 </i>
    <i name="e_wo_entrp">    -15.76485090 </i>
    <i name="e_0_energy">    -15.76485090 </i>
   </energy>
  </scstep>
  <scstep>
   <time name="total">    3.09    3.09</time>
   <energy>
    <i name="e_fr_energy">    -15.76488391 </i>
    <i name="e_wo_entrp">    -15.76488391 </i>
    <i name="e_0_energy">    -15.76488391 </i>
   </energy>
  </scstep>
  <scstep>
   <time name="total">    3.12    3.12</time>
   <energy>
    <i name="e_fr_energy">    -15.76490108 </i>
    <i name="e_wo_entrp">    -15.76490108 </i>
    <i name="e_0_energy">    -15.76490108 </i>
   </energy>
  </scstep>
  <scstep>
   <time name="total">    3.21    3.21</time>
   <energy>
    <i name="alphaZ">      1.04085735 </i>
    <i name="ewald">     62.39013857 </i>
    <i name="hartreedc">   -800.47022435 </i>
    <i name="XCdc">     37.27108115 </i>
    <i name="pawpsdc">    920.59041690 </i>
    <i name="pawaedc">   -921.51162569 </i>
    <i name="eentropy">     -0.00000000 </i>
    <i name="bandstr">   -223.89778360 </i>
    <i name="atom">    856.38987498 </i>
    <i name="e_fr_energy">    -15.76491036 </i>
    <i name="e_wo_entrp">    -15.76491036 </i>
    <i name="e_0_energy">    -15.76491036 </i>
   </energy>
  </scstep>
  <structure>
   <crystal>
    <varray name="basis" >
     <v>       7.50000000       0.00000000       0.00000000 </v>
     <v>       0.00000000       8.00000000       0.00000000 </v>
     <v>       0.00000000       0.00000000       8.90000000 </v>
    </varray>
    <i name="volume">    534.00000000 </i>
    <varray name="rec_basis" >
     <v>       0.13333333       0.00000000       0.00000000 </v>
     <v>       0.00000000       0.12500000       0.00000000 </v>
     <v>       0.00000000       0.00000000       0.11235955 </v>
    </varray>
   </crystal>
   <varray name="positions" >
    <v>       0.00000000       0.00000000       0.99812110 </v>
    <v>       0.00000000       0.00000000       0.13671036 </v>
   </varray>
  </structure>
  <varray name="forces" >
   <v>      -0.00000000       0.00000000       2.60425682 </v>
   <v>       0.00000000       0.00000000      -2.60425682 </v>
  </varray>
  <varray name="stress" >
   <v>      -1.21510488       0.00000000       0.00000000 </v>
   <v>       0.00000000      -1.17055979       0.00000000 </v>
   <v>       0.00000000       0.00000000     -10.52171353 </v>
  </varray>
  <energy>
   <i name="e_fr_energy">    -15.76491036 </i>
   <i name="e_wo_entrp">    -15.76491036 </i>
   <i name="e_0_energy">    -15.76491036 </i>
  </energy>
  <time name="totalsc">   84.47   84.70</time>
  <eigenvalues>
   <array>
    <dimension dim="1">band</dimension>
    <dimension dim="2">kpoint</dimension>
    <dimension dim="3">spin</dimension>
    <field>eigene</field>
    <field>occ</field>
    <set>
     <set comment="spin 1">
      <set comment="kpoint 1">
       <r>  -36.9327    1.0000 </r>
       <r>  -24.5103    1.0000 </r>
       <r>  -16.1052    1.0000 </r>
       <r>  -16.1045    1.0000 </r>
       <r>  -15.5009    1.0000 </r>
       <r>   -9.3966    1.0000 </r>
       <r>   -9.3955    1.0000 </r>
       <r>   -0.1895    0.0000 </r>
       <r>    1.4028    0.0000 </r>
       <r>    1.9979    0.0000 </r>
       <r>    2.2938    0.0000 </r>
      </set>
      <set comment="kpoint 2">
       <r>  -36.9330    1.0000 </r>
       <r>  -24.5102    1.0000 </r>
       <r>  -16.1051    1.0000 </r>
       <r>  -16.1050    1.0000 </r>
       <r>  -15.5009    1.0000 </r>
       <r>   -9.3963    1.0000 </r>
       <r>   -9.3957    1.0000 </r>
       <r>    0.4240    0.0000 </r>
       <r>    0.5299    0.0000 </r>
       <r>    1.8097    0.0000 </r>
       <r>    2.4860    0.0000 </r>
      </set>
      <set comment="kpoint 3">
       <r>  -36.9329    1.0000 </r>
       <r>  -24.5101    1.0000 </r>
       <r>  -16.1054    1.0000 </r>
       <r>  -16.1045    1.0000 </r>
       <r>  -15.5008    1.0000 </r>
       <r>   -9.3961    1.0000 </r>
       <r>   -9.3955    1.0000 </r>
       <r>    0.3227    0.0000 </r>
       <r>    0.4747    0.0000 </r>
       <r>    1.7292    0.0000 </r>
       <r>    2.7007    0.0000 </r>
      </set>
      <set comment="kpoint 4">
       <r>  -36.9329    1.0000 </r>
       <r>  -24.5102    1.0000 </r>
       <r>  -16.1052    1.0000 </r>
       <r>  -16.1049    1.0000 </r>
       <r>  -15.5008    1.0000 </r>
       <r>   -9.3961    1.0000 </r>
       <r>   -9.3959    1.0000 </r>
       <r>    0.9763    0.0000 </r>
       <r>    0.9942    0.0000 </r>
       <r>    1.0174    0.0000 </r>
       <r>    2.0801    0.0000 </r>
      </set>
      <set comment="kpoint 5">
       <r>  -36.9328    1.0000 </r>
       <r>  -24.5103    1.0000 </r>
       <r>  -16.1051    1.0000 </r>
       <r>  -16.1046    1.0000 </r>
       <r>  -15.5009    1.0000 </r>
       <r>   -9.3964    1.0000 </r>
       <r>   -9.3959    1.0000 </r>
       <r>    0.1770    0.0000 </r>
       <r>    0.2988    0.0000 </r>
       <r>    2.3102    0.0000 </r>
       <r>    2.6193    0.0000 </r>
      </set>
      <set comment="kpoint 6">
       <r>  -36.9329    1.0000 </r>
       <r>  -24.5102    1.0000 </r>
       <r>  -16.1050    1.0000 </r>
       <r>  -16.1050    1.0000 </r>
       <r>  -15.5008    1.0000 </r>
       <r>   -9.3961    1.0000 </r>
       <r>   -9.3955    1.0000 </r>
       <r>    0.8042    0.0000 </r>
       <r>    0.8056    0.0000 </r>
       <r>    0.8843    0.0000 </r>
       <r>    2.4210    0.0000 </r>
      </set>
      <set comment="kpoint 7">
       <r>  -36.9329    1.0000 </r>
       <r>  -24.5102    1.0000 </r>
       <r>  -16.1053    1.0000 </r>
       <r>  -16.1046    1.0000 </r>
       <r>  -15.5009    1.0000 </r>
       <r>   -9.3962    1.0000 </r>
       <r>   -9.3955    1.0000 </r>
       <r>    0.6955    0.0000 </r>
       <r>    0.7201    0.0000 </r>
       <r>    0.8362    0.0000 </r>
       <r>    1.3801    0.0000 </r>
      </set>
      <set comment="kpoint 8">
       <r>  -36.9329    1.0000 </r>
       <r>  -24.5101    1.0000 </r>
       <r>  -16.1052    1.0000 </r>
       <r>  -16.1049    1.0000 </r>
       <r>  -15.5008    1.0000 </r>
       <r>   -9.3962    1.0000 </r>
       <r>   -9.3956    1.0000 </r>
       <r>    1.1749    0.0000 </r>
       <r>    1.2989    0.0000 </r>
       <r>    1.3484    0.0000 </r>
       <r>    1.4389    0.0000 </r>
      </set>
     </set>
     <set comment="spin 2">
      <set comment="kpoint 1">
       <r>  -35.0188    1.0000 </r>
       <r>  -21.5190    1.0000 </r>
       <r>  -14.3378    1.0000 </r>
       <r>  -12.5403    1.0000 </r>
       <r>  -12.5398    1.0000 </r>
       <r>   -2.7936    0.0000 </r>
       <r>   -2.7922    0.0000 </r>
       <r>   -0.1308    0.0000 </r>
       <r>    1.5777    0.0000 </r>
       <r>    2.0992    0.0000 </r>
       <r>    2.4006    0.0000 </r>
      </set>
      <set comment="kpoint 2">
       <r>  -35.0191    1.0000 </r>
       <r>  -21.5189    1.0000 </r>
       <r>  -14.3378    1.0000 </r>
       <r>  -12.5404    1.0000 </r>
       <r>  -12.5402    1.0000 </r>
       <r>   -2.7956    0.0000 </r>
       <r>   -2.7931    0.0000 </r>
       <r>    0.5032    0.0000 </r>
       <r>    0.5850    0.0000 </r>
       <r>    2.0515    0.0000 </r>
       <r>    2.6316    0.0000 </r>
      </set>
      <set comment="kpoint 3">
       <r>  -35.0190    1.0000 </r>
       <r>  -21.5188    1.0000 </r>
       <r>  -14.3378    1.0000 </r>
       <r>  -12.5405    1.0000 </r>
       <r>  -12.5399    1.0000 </r>
       <r>   -2.7951    0.0000 </r>
       <r>   -2.7921    0.0000 </r>
       <r>    0.4005    0.0000 </r>
       <r>    0.5276    0.0000 </r>
       <r>    1.9640    0.0000 </r>
       <r>    2.8245    0.0000 </r>
      </set>
      <set comment="kpoint 4">
       <r>  -35.0190    1.0000 </r>
       <r>  -21.5189    1.0000 </r>
       <r>  -14.3377    1.0000 </r>
       <r>  -12.5404    1.0000 </r>
       <r>  -12.5403    1.0000 </r>
       <r>   -2.7955    0.0000 </r>
       <r>   -2.7947    0.0000 </r>
       <r>    1.0531    0.0000 </r>
       <r>    1.0927    0.0000 </r>
       <r>    1.1044    0.0000 </r>
       <r>    2.3926    0.0000 </r>
      </set>
      <set comment="kpoint 5">
       <r>  -35.0189    1.0000 </r>
       <r>  -21.5190    1.0000 </r>
       <r>  -14.3378    1.0000 </r>
       <r>  -12.5403    1.0000 </r>
       <r>  -12.5399    1.0000 </r>
       <r>   -2.7942    0.0000 </r>
       <r>   -2.7931    0.0000 </r>
       <r>    0.2250    0.0000 </r>
       <r>    0.3924    0.0000 </r>
       <r>    2.4200    0.0000 </r>
       <r>    2.7410    0.0000 </r>
      </set>
      <set comment="kpoint 6">
       <r>  -35.0191    1.0000 </r>
       <r>  -21.5188    1.0000 </r>
       <r>  -14.3377    1.0000 </r>
       <r>  -12.5404    1.0000 </r>
       <r>  -12.5402    1.0000 </r>
       <r>   -2.7965    0.0000 </r>
       <r>   -2.7936    0.0000 </r>
       <r>    0.8778    0.0000 </r>
       <r>    0.9284    0.0000 </r>
       <r>    0.9349    0.0000 </r>
       <r>    2.8781    0.0000 </r>
      </set>
      <set comment="kpoint 7">
       <r>  -35.0190    1.0000 </r>
       <r>  -21.5189    1.0000 </r>
       <r>  -14.3378    1.0000 </r>
       <r>  -12.5405    1.0000 </r>
       <r>  -12.5399    1.0000 </r>
       <r>   -2.7961    0.0000 </r>
       <r>   -2.7928    0.0000 </r>
       <r>    0.7657    0.0000 </r>
       <r>    0.8421    0.0000 </r>
       <r>    0.8851    0.0000 </r>
       <r>    1.1658    0.0000 </r>
      </set>
      <set comment="kpoint 8">
       <r>  -35.0191    1.0000 </r>
       <r>  -21.5188    1.0000 </r>
       <r>  -14.3377    1.0000 </r>
       <r>  -12.5404    1.0000 </r>
       <r>  -12.5403    1.0000 </r>
       <r>   -2.7963    0.0000 </r>
       <r>   -2.7956    0.0000 </r>
       <r>    1.3342    0.0000 </r>
       <r>    1.3754    0.0000 </r>
       <r>    1.4251    0.0000 </r>
       <r>    1.5603    0.0000 </r>
      </set>
     </set>
    </set>
   </array>
  </eigenvalues>
  <separator name="orbital magnetization" >
   <v name="MAGDIPOLOUT">      0.00000000      0.00000000      0.00000000</v>
  </separator>
  <dos>
   <i name="efermi">     -9.25429802 </i>
   <total>
    <array>
     <dimension dim="1">gridpoints</dimension>
     <dimension dim="2">spin</dimension>
     <field>energy</field>
     <field>total</field>
     <field>integrated</field>
     <set>
      <set comment="spin 1">
       <r>   -38.9235     0.0000     0.0000 </r>
       <r>   -38.7775     0.0000     0.0000 </r>
       <r>   -38.6316     0.0000     0.0000 </r>
       <r>   -38.4856     0.0000     0.0000 </r>
       <r>   -38.3396     0.0000     0.0000 </r>
       <r>   -38.1936     0.0000     0.0000 </r>
       <r>   -38.0477     0.0000     0.0000 </r>
       <r>   -37.9017     0.0000     0.0000 </r>
       <r>   -37.7557     0.0000     0.0000 </r>
       <r>   -37.6097     0.0000     0.0000 </r>
       <r>   -37.4638     0.0000     0.0000 </r>
       <r>   -37.3178     0.0000     0.0000 </r>
       <r>   -37.1718     0.0000     0.0000 </r>
       <r>   -37.0259     0.0000     0.0000 </r>
       <r>   -36.8799     6.8505     1.0000 </r>
       <r>   -36.7339     0.0000     1.0000 </r>
       <r>   -36.5879     0.0000     1.0000 </r>
       <r>   -36.4420     0.0000     1.0000 </r>
       <r>   -36.2960     0.0000     1.0000 </r>
       <r>   -36.1500     0.0000     1.0000 </r>
       <r>   -36.0040     0.0000     1.0000 </r>
       <r>   -35.8581     0.0000     1.0000 </r>
       <r>   -35.7121     0.0000     1.0000 </r>
       <r>   -35.5661     0.0000     1.0000 </r>
       <r>   -35.4201     0.0000     1.0000 </r>
       <r>   -35.2742     0.0000     1.0000 </r>
       <r>   -35.1282     0.0000     1.0000 </r>
       <r>   -34.9822     0.0000     1.0000 </r>
       <r>   -34.8362     0.0000     1.0000 </r>
       <r>   -34.6903     0.0000     1.0000 </r>
       <r>   -34.5443     0.0000     1.0000 </r>
       <r>   -34.3983     0.0000     1.0000 </r>
       <r>   -34.2523     0.0000     1.0000 </r>
       <r>   -34.1064     0.0000     1.0000 </r>
       <r>   -33.9604     0.0000     1.0000 </r>
       <r>   -33.8144     0.0000     1.0000 </r>
       <r>   -33.6684     0.0000     1.0000 </r>
       <r>   -33.5225     0.0000     1.0000 </r>
       <r>   -33.3765     0.0000     1.0000 </r>
       <r>   -33.2305     0.0000     1.0000 </r>
       <r>   -33.0846     0.0000     1.0000 </r>
       <r>   -32.9386     0.0000     1.0000 </r>
       <r>   -32.7926     0.0000     1.0000 </r>
       <r>   -32.6466     0.0000     1.0000 </r>
       <r>   -32.5007     0.0000     1.0000 </r>
       <r>   -32.3547     0.0000     1.0000 </r>
       <r>   -32.2087     0.0000     1.0000 </r>
       <r>   -32.0627     0.0000     1.0000 </r>
       <r>   -31.9168     0.0000     1.0000 </r>
       <r>   -31.7708     0.0000     1.0000 </r>
       <r>   -31.6248     0.0000     1.0000 </r>
       <r>   -31.4788     0.0000     1.0000 </r>
       <r>   -31.3329     0.0000     1.0000 </r>
       <r>   -31.1869     0.0000     1.0000 </r>
       <r>   -31.0409     0.0000     1.0000 </r>
       <r>   -30.8949     0.0000     1.0000 </r>
       <r>   -30.7490     0.0000     1.0000 </r>
       <r>   -30.6030     0.0000     1.0000 </r>
       <r>   -30.4570     0.0000     1.0000 </r>
       <r>   -30.3110     0.0000     1.0000 </r>
       <r>   -30.1651     0.0000     1.0000 </r>
       <r>   -30.0191     0.0000     1.0000 </r>
       <r>   -29.8731     0.0000     1.0000 </r>
       <r>   -29.7272     0.0000     1.0000 </r>
       <r>   -29.5812     0.0000     1.0000 </r>
       <r>   -29.4352     0.0000     1.0000 </r>
       <r>   -29.2892     0.0000     1.0000 </r>
       <r>   -29.1433     0.0000     1.0000 </r>
       <r>   -28.9973     0.0000     1.0000 </r>
       <r>   -28.8513     0.0000     1.0000 </r>
       <r>   -28.7053     0.0000     1.0000 </r>
       <r>   -28.5594     0.0000     1.0000 </r>
       <r>   -28.4134     0.0000     1.0000 </r>
       <r>   -28.2674     0.0000     1.0000 </r>
       <r>   -28.1214     0.0000     1.0000 </r>
       <r>   -27.9755     0.0000     1.0000 </r>
       <r>   -27.8295     0.0000     1.0000 </r>
       <r>   -27.6835     0.0000     1.0000 </r>
       <r>   -27.5375     0.0000     1.0000 </r>
       <r>   -27.3916     0.0000     1.0000 </r>
       <r>   -27.2456     0.0000     1.0000 </r>
       <r>   -27.0996     0.0000     1.0000 </r>
       <r>   -26.9536     0.0000     1.0000 </r>
       <r>   -26.8077     0.0000     1.0000 </r>
       <r>   -26.6617     0.0000     1.0000 </r>
       <r>   -26.5157     0.0000     1.0000 </r>
       <r>   -26.3697     0.0000     1.0000 </r>
       <r>   -26.2238     0.0000     1.0000 </r>
       <r>   -26.0778     0.0000     1.0000 </r>
       <r>   -25.9318     0.0000     1.0000 </r>
       <r>   -25.7859     0.0000     1.0000 </r>
       <r>   -25.6399     0.0000     1.0000 </r>
       <r>   -25.4939     0.0000     1.0000 </r>
       <r>   -25.3479     0.0000     1.0000 </r>
       <r>   -25.2020     0.0000     1.0000 </r>
       <r>   -25.0560     0.0000     1.0000 </r>
       <r>   -24.9100     0.0000     1.0000 </r>
       <r>   -24.7640     0.0000     1.0000 </r>
       <r>   -24.6181     0.0000     1.0000 </r>
       <r>   -24.4721     6.8505     2.0000 </r>
       <r>   -24.3261     0.0000     2.0000 </r>
       <r>   -24.1801     0.0000     2.0000 </r>
       <r>   -24.0342     0.0000     2.0000 </r>
       <r>   -23.8882     0.0000     2.0000 </r>
       <r>   -23.7422     0.0000     2.0000 </r>
       <r>   -23.5962     0.0000     2.0000 </r>
       <r>   -23.4503     0.0000     2.0000 </r>
       <r>   -23.3043     0.0000     2.0000 </r>
       <r>   -23.1583     0.0000     2.0000 </r>
       <r>   -23.0123     0.0000     2.0000 </r>
       <r>   -22.8664     0.0000     2.0000 </r>
       <r>   -22.7204     0.0000     2.0000 </r>
       <r>   -22.5744     0.0000     2.0000 </r>
       <r>   -22.4285     0.0000     2.0000 </r>
       <r>   -22.2825     0.0000     2.0000 </r>
       <r>   -22.1365     0.0000     2.0000 </r>
       <r>   -21.9905     0.0000     2.0000 </r>
       <r>   -21.8446     0.0000     2.0000 </r>
       <r>   -21.6986     0.0000     2.0000 </r>
       <r>   -21.5526     0.0000     2.0000 </r>
       <r>   -21.4066     0.0000     2.0000 </r>
       <r>   -21.2607     0.0000     2.0000 </r>
       <r>   -21.1147     0.0000     2.0000 </r>
       <r>   -20.9687     0.0000     2.0000 </r>
       <r>   -20.8227     0.0000     2.0000 </r>
       <r>   -20.6768     0.0000     2.0000 </r>
       <r>   -20.5308     0.0000     2.0000 </r>
       <r>   -20.3848     0.0000     2.0000 </r>
       <r>   -20.2388     0.0000     2.0000 </r>
       <r>   -20.0929     0.0000     2.0000 </r>
       <r>   -19.9469     0.0000     2.0000 </r>
       <r>   -19.8009     0.0000     2.0000 </r>
       <r>   -19.6549     0.0000     2.0000 </r>
       <r>   -19.5090     0.0000     2.0000 </r>
       <r>   -19.3630     0.0000     2.0000 </r>
       <r>   -19.2170     0.0000     2.0000 </r>
       <r>   -19.0710     0.0000     2.0000 </r>
       <r>   -18.9251     0.0000     2.0000 </r>
       <r>   -18.7791     0.0000     2.0000 </r>
       <r>   -18.6331     0.0000     2.0000 </r>
       <r>   -18.4872     0.0000     2.0000 </r>
       <r>   -18.3412     0.0000     2.0000 </r>
       <r>   -18.1952     0.0000     2.0000 </r>
       <r>   -18.0492     0.0000     2.0000 </r>
       <r>   -17.9033     0.0000     2.0000 </r>
       <r>   -17.7573     0.0000     2.0000 </r>
       <r>   -17.6113     0.0000     2.0000 </r>
       <r>   -17.4653     0.0000     2.0000 </r>
       <r>   -17.3194     0.0000     2.0000 </r>
       <r>   -17.1734     0.0000     2.0000 </r>
       <r>   -17.0274     0.0000     2.0000 </r>
       <r>   -16.8814     0.0000     2.0000 </r>
       <r>   -16.7355     0.0000     2.0000 </r>
       <r>   -16.5895     0.0000     2.0000 </r>
       <r>   -16.4435     0.0000     2.0000 </r>
       <r>   -16.2975     0.0000     2.0000 </r>
       <r>   -16.1516     0.0000     2.0000 </r>
       <r>   -16.0056     0.0000     4.0000 </r>
       <r>   -15.8596     0.0000     4.0000 </r>
       <r>   -15.7136     0.0000     4.0000 </r>
       <r>   -15.5677     0.0000     4.0000 </r>
       <r>   -15.4217     6.8505     5.0000 </r>
       <r>   -15.2757     0.0000     5.0000 </r>
       <r>   -15.1298     0.0000     5.0000 </r>
       <r>   -14.9838     0.0000     5.0000 </r>
       <r>   -14.8378     0.0000     5.0000 </r>
       <r>   -14.6918     0.0000     5.0000 </r>
       <r>   -14.5459     0.0000     5.0000 </r>
       <r>   -14.3999     0.0000     5.0000 </r>
       <r>   -14.2539     0.0000     5.0000 </r>
       <r>   -14.1079     0.0000     5.0000 </r>
       <r>   -13.9620     0.0000     5.0000 </r>
       <r>   -13.8160     0.0000     5.0000 </r>
       <r>   -13.6700     0.0000     5.0000 </r>
       <r>   -13.5240     0.0000     5.0000 </r>
       <r>   -13.3781     0.0000     5.0000 </r>
       <r>   -13.2321     0.0000     5.0000 </r>
       <r>   -13.0861     0.0000     5.0000 </r>
       <r>   -12.9401     0.0000     5.0000 </r>
       <r>   -12.7942     0.0000     5.0000 </r>
       <r>   -12.6482     0.0000     5.0000 </r>
       <r>   -12.5022     0.0000     5.0000 </r>
       <r>   -12.3562     0.0000     5.0000 </r>
       <r>   -12.2103     0.0000     5.0000 </r>
       <r>   -12.0643     0.0000     5.0000 </r>
       <r>   -11.9183     0.0000     5.0000 </r>
       <r>   -11.7723     0.0000     5.0000 </r>
       <r>   -11.6264     0.0000     5.0000 </r>
       <r>   -11.4804     0.0000     5.0000 </r>
       <r>   -11.3344     0.0000     5.0000 </r>
       <r>   -11.1885     0.0000     5.0000 </r>
       <r>   -11.0425     0.0000     5.0000 </r>
       <r>   -10.8965     0.0000     5.0000 </r>
       <r>   -10.7505     0.0000     5.0000 </r>
       <r>   -10.6046     0.0000     5.0000 </r>
       <r>   -10.4586     0.0000     5.0000 </r>
       <r>   -10.3126     0.0000     5.0000 </r>
       <r>   -10.1666     0.0000     5.0000 </r>
       <r>   -10.0207     0.0000     5.0000 </r>
       <r>    -9.8747     0.0000     5.0000 </r>
       <r>    -9.7287     0.0000     5.0000 </r>
       <r>    -9.5827     0.0000     5.0000 </r>
       <r>    -9.4368     0.0000     5.0000 </r>
       <r>    -9.2908     0.0000     7.0000 </r>
       <r>    -9.1448     0.0000     7.0000 </r>
       <r>    -8.9988     0.0000     7.0000 </r>
       <r>    -8.8529     0.0000     7.0000 </r>
       <r>    -8.7069     0.0000     7.0000 </r>
       <r>    -8.5609     0.0000     7.0000 </r>
       <r>    -8.4149     0.0000     7.0000 </r>
       <r>    -8.2690     0.0000     7.0000 </r>
       <r>    -8.1230     0.0000     7.0000 </r>
       <r>    -7.9770     0.0000     7.0000 </r>
       <r>    -7.8311     0.0000     7.0000 </r>
       <r>    -7.6851     0.0000     7.0000 </r>
       <r>    -7.5391     0.0000     7.0000 </r>
       <r>    -7.3931     0.0000     7.0000 </r>
       <r>    -7.2472     0.0000     7.0000 </r>
       <r>    -7.1012     0.0000     7.0000 </r>
       <r>    -6.9552     0.0000     7.0000 </r>
       <r>    -6.8092     0.0000     7.0000 </r>
       <r>    -6.6633     0.0000     7.0000 </r>
       <r>    -6.5173     0.0000     7.0000 </r>
       <r>    -6.3713     0.0000     7.0000 </r>
       <r>    -6.2253     0.0000     7.0000 </r>
       <r>    -6.0794     0.0000     7.0000 </r>
       <r>    -5.9334     0.0000     7.0000 </r>
       <r>    -5.7874     0.0000     7.0000 </r>
       <r>    -5.6414     0.0000     7.0000 </r>
       <r>    -5.4955     0.0000     7.0000 </r>
       <r>    -5.3495     0.0000     7.0000 </r>
       <r>    -5.2035     0.0000     7.0000 </r>
       <r>    -5.0575     0.0000     7.0000 </r>
       <r>    -4.9116     0.0000     7.0000 </r>
       <r>    -4.7656     0.0000     7.0000 </r>
       <r>    -4.6196     0.0000     7.0000 </r>
       <r>    -4.4736     0.0000     7.0000 </r>
       <r>    -4.3277     0.0000     7.0000 </r>
       <r>    -4.1817     0.0000     7.0000 </r>
       <r>    -4.0357     0.0000     7.0000 </r>
       <r>    -3.8898     0.0000     7.0000 </r>
       <r>    -3.7438     0.0000     7.0000 </r>
       <r>    -3.5978     0.0000     7.0000 </r>
       <r>    -3.4518     0.0000     7.0000 </r>
       <r>    -3.3059     0.0000     7.0000 </r>
       <r>    -3.1599     0.0000     7.0000 </r>
       <r>    -3.0139     0.0000     7.0000 </r>
       <r>    -2.8679     0.0000     7.0000 </r>
       <r>    -2.7220     0.0000     7.0000 </r>
       <r>    -2.5760     0.0000     7.0000 </r>
       <r>    -2.4300     0.0000     7.0000 </r>
       <r>    -2.2840     0.0000     7.0000 </r>
       <r>    -2.1381     0.0000     7.0000 </r>
       <r>    -1.9921     0.0000     7.0000 </r>
       <r>    -1.8461     0.0000     7.0000 </r>
       <r>    -1.7001     0.0000     7.0000 </r>
       <r>    -1.5542     0.0000     7.0000 </r>
       <r>    -1.4082     0.0000     7.0000 </r>
       <r>    -1.2622     0.0000     7.0000 </r>
       <r>    -1.1162     0.0000     7.0000 </r>
       <r>    -0.9703     0.0000     7.0000 </r>
       <r>    -0.8243     0.0000     7.0000 </r>
       <r>    -0.6783     0.0000     7.0000 </r>
       <r>    -0.5324     0.0000     7.0000 </r>
       <r>    -0.3864     0.0000     7.0000 </r>
       <r>    -0.2404     0.0000     7.0000 </r>
       <r>    -0.0944     0.0000     7.1250 </r>
       <r>     0.0515     0.0000     7.1250 </r>
       <r>     0.1975     0.8547     7.2498 </r>
       <r>     0.3435     1.7113     7.4998 </r>
       <r>     0.4895     1.6971     7.7477 </r>
       <r>     0.6354     0.0000     7.8750 </r>
       <r>     0.7814     0.8571     8.1251 </r>
       <r>     0.9274     0.8563     8.6250 </r>
       <r>     1.0734     1.7126     9.0000 </r>
       <r>     1.2193     0.8563     9.1250 </r>
       <r>     1.3653     1.7212     9.3762 </r>
       <r>     1.5113     0.8563     9.7500 </r>
       <r>     1.6573     0.0000     9.7500 </r>
       <r>     1.8032     1.0107     9.8975 </r>
       <r>     1.9492     0.0000    10.0000 </r>
       <r>     2.0952     0.8422    10.2479 </r>
       <r>     2.2412     0.0000    10.2500 </r>
       <r>     2.3871     0.8563    10.5000 </r>
       <r>     2.5331     0.8563    10.7500 </r>
       <r>     2.6791     0.8573    10.8751 </r>
       <r>     2.8250     0.0000    11.0000 </r>
       <r>     2.9710     0.0000    11.0000 </r>
       <r>     3.1170     0.0000    11.0000 </r>
       <r>     3.2630     0.0000    11.0000 </r>
       <r>     3.4089     0.0000    11.0000 </r>
       <r>     3.5549     0.0000    11.0000 </r>
       <r>     3.7009     0.0000    11.0000 </r>
       <r>     3.8469     0.0000    11.0000 </r>
       <r>     3.9928     0.0000    11.0000 </r>
       <r>     4.1388     0.0000    11.0000 </r>
       <r>     4.2848     0.0000    11.0000 </r>
       <r>     4.4308     0.0000    11.0000 </r>
       <r>     4.5767     0.0000    11.0000 </r>
       <r>     4.7227     0.0000    11.0000 </r>
       <r>     4.8687     0.0000    11.0000 </r>
      </set>
      <set comment="spin 2">
       <r>   -38.9235     0.0000     0.0000 </r>
       <r>   -38.7775     0.0000     0.0000 </r>
       <r>   -38.6316     0.0000     0.0000 </r>
       <r>   -38.4856     0.0000     0.0000 </r>
       <r>   -38.3396     0.0000     0.0000 </r>
       <r>   -38.1936     0.0000     0.0000 </r>
       <r>   -38.0477     0.0000     0.0000 </r>
       <r>   -37.9017     0.0000     0.0000 </r>
       <r>   -37.7557     0.0000     0.0000 </r>
       <r>   -37.6097     0.0000     0.0000 </r>
       <r>   -37.4638     0.0000     0.0000 </r>
       <r>   -37.3178     0.0000     0.0000 </r>
       <r>   -37.1718     0.0000     0.0000 </r>
       <r>   -37.0259     0.0000     0.0000 </r>
       <r>   -36.8799     0.0000     0.0000 </r>
       <r>   -36.7339     0.0000     0.0000 </r>
       <r>   -36.5879     0.0000     0.0000 </r>
       <r>   -36.4420     0.0000     0.0000 </r>
       <r>   -36.2960     0.0000     0.0000 </r>
       <r>   -36.1500     0.0000     0.0000 </r>
       <r>   -36.0040     0.0000     0.0000 </r>
       <r>   -35.8581     0.0000     0.0000 </r>
       <r>   -35.7121     0.0000     0.0000 </r>
       <r>   -35.5661     0.0000     0.0000 </r>
       <r>   -35.4201     0.0000     0.0000 </r>
       <r>   -35.2742     0.0000     0.0000 </r>
       <r>   -35.1282     0.0000     0.0000 </r>
       <r>   -34.9822     6.8505     1.0000 </r>
       <r>   -34.8362     0.0000     1.0000 </r>
       <r>   -34.6903     0.0000     1.0000 </r>
       <r>   -34.5443     0.0000     1.0000 </r>
       <r>   -34.3983     0.0000     1.0000 </r>
       <r>   -34.2523     0.0000     1.0000 </r>
       <r>   -34.1064     0.0000     1.0000 </r>
       <r>   -33.9604     0.0000     1.0000 </r>
       <r>   -33.8144     0.0000     1.0000 </r>
       <r>   -33.6684     0.0000     1.0000 </r>
       <r>   -33.5225     0.0000     1.0000 </r>
       <r>   -33.3765     0.0000     1.0000 </r>
       <r>   -33.2305     0.0000     1.0000 </r>
       <r>   -33.0846     0.0000     1.0000 </r>
       <r>   -32.9386     0.0000     1.0000 </r>
       <r>   -32.7926     0.0000     1.0000 </r>
       <r>   -32.6466     0.0000     1.0000 </r>
       <r>   -32.5007     0.0000     1.0000 </r>
       <r>   -32.3547     0.0000     1.0000 </r>
       <r>   -32.2087     0.0000     1.0000 </r>
       <r>   -32.0627     0.0000     1.0000 </r>
       <r>   -31.9168     0.0000     1.0000 </r>
       <r>   -31.7708     0.0000     1.0000 </r>
       <r>   -31.6248     0.0000     1.0000 </r>
       <r>   -31.4788     0.0000     1.0000 </r>
       <r>   -31.3329     0.0000     1.0000 </r>
       <r>   -31.1869     0.0000     1.0000 </r>
       <r>   -31.0409     0.0000     1.0000 </r>
       <r>   -30.8949     0.0000     1.0000 </r>
       <r>   -30.7490     0.0000     1.0000 </r>
       <r>   -30.6030     0.0000     1.0000 </r>
       <r>   -30.4570     0.0000     1.0000 </r>
       <r>   -30.3110     0.0000     1.0000 </r>
       <r>   -30.1651     0.0000     1.0000 </r>
       <r>   -30.0191     0.0000     1.0000 </r>
       <r>   -29.8731     0.0000     1.0000 </r>
       <r>   -29.7272     0.0000     1.0000 </r>
       <r>   -29.5812     0.0000     1.0000 </r>
       <r>   -29.4352     0.0000     1.0000 </r>
       <r>   -29.2892     0.0000     1.0000 </r>
       <r>   -29.1433     0.0000     1.0000 </r>
       <r>   -28.9973     0.0000     1.0000 </r>
       <r>   -28.8513     0.0000     1.0000 </r>
       <r>   -28.7053     0.0000     1.0000 </r>
       <r>   -28.5594     0.0000     1.0000 </r>
       <r>   -28.4134     0.0000     1.0000 </r>
       <r>   -28.2674     0.0000     1.0000 </r>
       <r>   -28.1214     0.0000     1.0000 </r>
       <r>   -27.9755     0.0000     1.0000 </r>
       <r>   -27.8295     0.0000     1.0000 </r>
       <r>   -27.6835     0.0000     1.0000 </r>
       <r>   -27.5375     0.0000     1.0000 </r>
       <r>   -27.3916     0.0000     1.0000 </r>
       <r>   -27.2456     0.0000     1.0000 </r>
       <r>   -27.0996     0.0000     1.0000 </r>
       <r>   -26.9536     0.0000     1.0000 </r>
       <r>   -26.8077     0.0000     1.0000 </r>
       <r>   -26.6617     0.0000     1.0000 </r>
       <r>   -26.5157     0.0000     1.0000 </r>
       <r>   -26.3697     0.0000     1.0000 </r>
       <r>   -26.2238     0.0000     1.0000 </r>
       <r>   -26.0778     0.0000     1.0000 </r>
       <r>   -25.9318     0.0000     1.0000 </r>
       <r>   -25.7859     0.0000     1.0000 </r>
       <r>   -25.6399     0.0000     1.0000 </r>
       <r>   -25.4939     0.0000     1.0000 </r>
       <r>   -25.3479     0.0000     1.0000 </r>
       <r>   -25.2020     0.0000     1.0000 </r>
       <r>   -25.0560     0.0000     1.0000 </r>
       <r>   -24.9100     0.0000     1.0000 </r>
       <r>   -24.7640     0.0000     1.0000 </r>
       <r>   -24.6181     0.0000     1.0000 </r>
       <r>   -24.4721     0.0000     1.0000 </r>
       <r>   -24.3261     0.0000     1.0000 </r>
       <r>   -24.1801     0.0000     1.0000 </r>
       <r>   -24.0342     0.0000     1.0000 </r>
       <r>   -23.8882     0.0000     1.0000 </r>
       <r>   -23.7422     0.0000     1.0000 </r>
       <r>   -23.5962     0.0000     1.0000 </r>
       <r>   -23.4503     0.0000     1.0000 </r>
       <r>   -23.3043     0.0000     1.0000 </r>
       <r>   -23.1583     0.0000     1.0000 </r>
       <r>   -23.0123     0.0000     1.0000 </r>
       <r>   -22.8664     0.0000     1.0000 </r>
       <r>   -22.7204     0.0000     1.0000 </r>
       <r>   -22.5744     0.0000     1.0000 </r>
       <r>   -22.4285     0.0000     1.0000 </r>
       <r>   -22.2825     0.0000     1.0000 </r>
       <r>   -22.1365     0.0000     1.0000 </r>
       <r>   -21.9905     0.0000     1.0000 </r>
       <r>   -21.8446     0.0000     1.0000 </r>
       <r>   -21.6986     0.0000     1.0000 </r>
       <r>   -21.5526     0.0000     1.0000 </r>
       <r>   -21.4066     0.0000     2.0000 </r>
       <r>   -21.2607     0.0000     2.0000 </r>
       <r>   -21.1147     0.0000     2.0000 </r>
       <r>   -20.9687     0.0000     2.0000 </r>
       <r>   -20.8227     0.0000     2.0000 </r>
       <r>   -20.6768     0.0000     2.0000 </r>
       <r>   -20.5308     0.0000     2.0000 </r>
       <r>   -20.3848     0.0000     2.0000 </r>
       <r>   -20.2388     0.0000     2.0000 </r>
       <r>   -20.0929     0.0000     2.0000 </r>
       <r>   -19.9469     0.0000     2.0000 </r>
       <r>   -19.8009     0.0000     2.0000 </r>
       <r>   -19.6549     0.0000     2.0000 </r>
       <r>   -19.5090     0.0000     2.0000 </r>
       <r>   -19.3630     0.0000     2.0000 </r>
       <r>   -19.2170     0.0000     2.0000 </r>
       <r>   -19.0710     0.0000     2.0000 </r>
       <r>   -18.9251     0.0000     2.0000 </r>
       <r>   -18.7791     0.0000     2.0000 </r>
       <r>   -18.6331     0.0000     2.0000 </r>
       <r>   -18.4872     0.0000     2.0000 </r>
       <r>   -18.3412     0.0000     2.0000 </r>
       <r>   -18.1952     0.0000     2.0000 </r>
       <r>   -18.0492     0.0000     2.0000 </r>
       <r>   -17.9033     0.0000     2.0000 </r>
       <r>   -17.7573     0.0000     2.0000 </r>
       <r>   -17.6113     0.0000     2.0000 </r>
       <r>   -17.4653     0.0000     2.0000 </r>
       <r>   -17.3194     0.0000     2.0000 </r>
       <r>   -17.1734     0.0000     2.0000 </r>
       <r>   -17.0274     0.0000     2.0000 </r>
       <r>   -16.8814     0.0000     2.0000 </r>
       <r>   -16.7355     0.0000     2.0000 </r>
       <r>   -16.5895     0.0000     2.0000 </r>
       <r>   -16.4435     0.0000     2.0000 </r>
       <r>   -16.2975     0.0000     2.0000 </r>
       <r>   -16.1516     0.0000     2.0000 </r>
       <r>   -16.0056     0.0000     2.0000 </r>
       <r>   -15.8596     0.0000     2.0000 </r>
       <r>   -15.7136     0.0000     2.0000 </r>
       <r>   -15.5677     0.0000     2.0000 </r>
       <r>   -15.4217     0.0000     2.0000 </r>
       <r>   -15.2757     0.0000     2.0000 </r>
       <r>   -15.1298     0.0000     2.0000 </r>
       <r>   -14.9838     0.0000     2.0000 </r>
       <r>   -14.8378     0.0000     2.0000 </r>
       <r>   -14.6918     0.0000     2.0000 </r>
       <r>   -14.5459     0.0000     2.0000 </r>
       <r>   -14.3999     0.0000     2.0000 </r>
       <r>   -14.2539     0.0000     3.0000 </r>
       <r>   -14.1079     0.0000     3.0000 </r>
       <r>   -13.9620     0.0000     3.0000 </r>
       <r>   -13.8160     0.0000     3.0000 </r>
       <r>   -13.6700     0.0000     3.0000 </r>
       <r>   -13.5240     0.0000     3.0000 </r>
       <r>   -13.3781     0.0000     3.0000 </r>
       <r>   -13.2321     0.0000     3.0000 </r>
       <r>   -13.0861     0.0000     3.0000 </r>
       <r>   -12.9401     0.0000     3.0000 </r>
       <r>   -12.7942     0.0000     3.0000 </r>
       <r>   -12.6482     0.0000     3.0000 </r>
       <r>   -12.5022    13.7011     5.0000 </r>
       <r>   -12.3562     0.0000     5.0000 </r>
       <r>   -12.2103     0.0000     5.0000 </r>
       <r>   -12.0643     0.0000     5.0000 </r>
       <r>   -11.9183     0.0000     5.0000 </r>
       <r>   -11.7723     0.0000     5.0000 </r>
       <r>   -11.6264     0.0000     5.0000 </r>
       <r>   -11.4804     0.0000     5.0000 </r>
       <r>   -11.3344     0.0000     5.0000 </r>
       <r>   -11.1885     0.0000     5.0000 </r>
       <r>   -11.0425     0.0000     5.0000 </r>
       <r>   -10.8965     0.0000     5.0000 </r>
       <r>   -10.7505     0.0000     5.0000 </r>
       <r>   -10.6046     0.0000     5.0000 </r>
       <r>   -10.4586     0.0000     5.0000 </r>
       <r>   -10.3126     0.0000     5.0000 </r>
       <r>   -10.1666     0.0000     5.0000 </r>
       <r>   -10.0207     0.0000     5.0000 </r>
       <r>    -9.8747     0.0000     5.0000 </r>
       <r>    -9.7287     0.0000     5.0000 </r>
       <r>    -9.5827     0.0000     5.0000 </r>
       <r>    -9.4368     0.0000     5.0000 </r>
       <r>    -9.2908     0.0000     5.0000 </r>
       <r>    -9.1448     0.0000     5.0000 </r>
       <r>    -8.9988     0.0000     5.0000 </r>
       <r>    -8.8529     0.0000     5.0000 </r>
       <r>    -8.7069     0.0000     5.0000 </r>
       <r>    -8.5609     0.0000     5.0000 </r>
       <r>    -8.4149     0.0000     5.0000 </r>
       <r>    -8.2690     0.0000     5.0000 </r>
       <r>    -8.1230     0.0000     5.0000 </r>
       <r>    -7.9770     0.0000     5.0000 </r>
       <r>    -7.8311     0.0000     5.0000 </r>
       <r>    -7.6851     0.0000     5.0000 </r>
       <r>    -7.5391     0.0000     5.0000 </r>
       <r>    -7.3931     0.0000     5.0000 </r>
       <r>    -7.2472     0.0000     5.0000 </r>
       <r>    -7.1012     0.0000     5.0000 </r>
       <r>    -6.9552     0.0000     5.0000 </r>
       <r>    -6.8092     0.0000     5.0000 </r>
       <r>    -6.6633     0.0000     5.0000 </r>
       <r>    -6.5173     0.0000     5.0000 </r>
       <r>    -6.3713     0.0000     5.0000 </r>
       <r>    -6.2253     0.0000     5.0000 </r>
       <r>    -6.0794     0.0000     5.0000 </r>
       <r>    -5.9334     0.0000     5.0000 </r>
       <r>    -5.7874     0.0000     5.0000 </r>
       <r>    -5.6414     0.0000     5.0000 </r>
       <r>    -5.4955     0.0000     5.0000 </r>
       <r>    -5.3495     0.0000     5.0000 </r>
       <r>    -5.2035     0.0000     5.0000 </r>
       <r>    -5.0575     0.0000     5.0000 </r>
       <r>    -4.9116     0.0000     5.0000 </r>
       <r>    -4.7656     0.0000     5.0000 </r>
       <r>    -4.6196     0.0000     5.0000 </r>
       <r>    -4.4736     0.0000     5.0000 </r>
       <r>    -4.3277     0.0000     5.0000 </r>
       <r>    -4.1817     0.0000     5.0000 </r>
       <r>    -4.0357     0.0000     5.0000 </r>
       <r>    -3.8898     0.0000     5.0000 </r>
       <r>    -3.7438     0.0000     5.0000 </r>
       <r>    -3.5978     0.0000     5.0000 </r>
       <r>    -3.4518     0.0000     5.0000 </r>
       <r>    -3.3059     0.0000     5.0000 </r>
       <r>    -3.1599     0.0000     5.0000 </r>
       <r>    -3.0139     0.0000     5.0000 </r>
       <r>    -2.8679     0.0000     5.0000 </r>
       <r>    -2.7220    13.7011     7.0000 </r>
       <r>    -2.5760     0.0000     7.0000 </r>
       <r>    -2.4300     0.0000     7.0000 </r>
       <r>    -2.2840     0.0000     7.0000 </r>
       <r>    -2.1381     0.0000     7.0000 </r>
       <r>    -1.9921     0.0000     7.0000 </r>
       <r>    -1.8461     0.0000     7.0000 </r>
       <r>    -1.7001     0.0000     7.0000 </r>
       <r>    -1.5542     0.0000     7.0000 </r>
       <r>    -1.4082     0.0000     7.0000 </r>
       <r>    -1.2622     0.0000     7.0000 </r>
       <r>    -1.1162     0.0000     7.0000 </r>
       <r>    -0.9703     0.0000     7.0000 </r>
       <r>    -0.8243     0.0000     7.0000 </r>
       <r>    -0.6783     0.0000     7.0000 </r>
       <r>    -0.5324     0.0000     7.0000 </r>
       <r>    -0.3864     0.0000     7.0000 </r>
       <r>    -0.2404     0.0000     7.0000 </r>
       <r>    -0.0944     0.8563     7.1250 </r>
       <r>     0.0515     0.0000     7.1250 </r>
       <r>     0.1975     0.0000     7.1250 </r>
       <r>     0.3435     0.0000     7.2500 </r>
       <r>     0.4895     0.0222     7.5032 </r>
       <r>     0.6354     0.8563     7.8750 </r>
       <r>     0.7814     0.8449     7.9983 </r>
       <r>     0.9274     2.2136     8.4481 </r>
       <r>     1.0734     0.8572     8.7501 </r>
       <r>     1.2193     0.8563     9.1250 </r>
       <r>     1.3653     0.9225     9.2597 </r>
       <r>     1.5113     0.0000     9.5000 </r>
       <r>     1.6573     0.8563     9.7500 </r>
       <r>     1.8032     0.0000     9.7500 </r>
       <r>     1.9492     0.0158     9.7523 </r>
       <r>     2.0952     1.1001    10.0356 </r>
       <r>     2.2412     0.0000    10.1250 </r>
       <r>     2.3871     0.2128    10.1561 </r>
       <r>     2.5331     0.0000    10.5000 </r>
       <r>     2.6791     0.8563    10.6250 </r>
       <r>     2.8250     0.4547    10.8164 </r>
       <r>     2.9710     0.0000    11.0000 </r>
       <r>     3.1170     0.0000    11.0000 </r>
       <r>     3.2630     0.0000    11.0000 </r>
       <r>     3.4089     0.0000    11.0000 </r>
       <r>     3.5549     0.0000    11.0000 </r>
       <r>     3.7009     0.0000    11.0000 </r>
       <r>     3.8469     0.0000    11.0000 </r>
       <r>     3.9928     0.0000    11.0000 </r>
       <r>     4.1388     0.0000    11.0000 </r>
       <r>     4.2848     0.0000    11.0000 </r>
       <r>     4.4308     0.0000    11.0000 </r>
       <r>     4.5767     0.0000    11.0000 </r>
       <r>     4.7227     0.0000    11.0000 </r>
       <r>     4.8687     0.0000    11.0000 </r>
      </set>
     </set>
    </array>
   </total>
  </dos>
 </calculation>
 <structure name="finalpos" >
  <crystal>
   <varray name="basis" >
    <v>       7.50000000       0.00000000       0.00000000 </v>
    <v>       0.00000000       8.00000000       0.00000000 </v>
    <v>       0.00000000       0.00000000       8.90000000 </v>
   </varray>
   <i name="volume">    534.00000000 </i>
   <varray name="rec_basis" >
    <v>       0.13333333       0.00000000       0.00000000 </v>
    <v>       0.00000000       0.12500000       0.00000000 </v>
    <v>       0.00000000       0.00000000       0.11235955 </v>
   </varray>
  </crystal>
  <varray name="positions" >
   <v>       0.00000000       0.00000000       0.99812110 </v>
   <v>       0.00000000       0.00000000       0.13671036 </v>
  </varray>
 </structure>
</modeling>
