       N       E                     dE             d eps       ncg     rms          ort
DAV:   1    -0.212372600298E+05   -0.21237E+05   -0.54340E+05  5064   0.748E+03
DAV:   2    -0.653858360605E+05   -0.44149E+05   -0.42846E+05  5064   0.120E+03
DAV:   3    -0.699474273506E+05   -0.45616E+04   -0.40685E+04  5064   0.351E+02
DAV:   4    -0.704888713249E+05   -0.54144E+03   -0.46248E+03  5064   0.104E+02
DAV:   5    -0.374970137232E+05    0.32992E+05   -0.77289E+02  5064   0.568E+01
SDA:   6     0.193844376417E+05    0.56881E+05   -0.77289E+02  5064   0.128E+06 0.000E+00
CGA:   7     0.535448008790E+04   -0.14030E+05   -0.15784E+05  5064   0.284E+05 0.197E+05
CGA:   8     0.127479145898E+04   -0.40797E+04   -0.35917E+04  5064   0.912E+04-0.182E+04
CGA:   9     0.355078497154E+03   -0.91971E+03   -0.10201E+04  5064   0.581E+04-0.379E+03
CGA:  10     0.394329177621E+02   -0.31565E+03   -0.49290E+03  5064   0.505E+04-0.398E+03
CGA:  11    -0.391334967219E+03   -0.43077E+03   -0.52224E+03  5064   0.204E+04-0.165E+03
CGA:  12    -0.734310242582E+03   -0.34298E+03   -0.34391E+03  5064   0.586E+03 0.821E+02
CGA:  13    -0.868538326937E+03   -0.13423E+03   -0.13249E+03  5064   0.222E+03 0.249E+02
CGA:  14    -0.930917099068E+03   -0.62379E+02   -0.61285E+02  5064   0.977E+02 0.900E+01
CGA:  15    -0.958961479397E+03   -0.28044E+02   -0.28206E+02  5064   0.487E+02-0.175E+01
CGA:  16    -0.971583667447E+03   -0.12622E+02   -0.12772E+02  5064   0.259E+02-0.755E+00
CGA:  17    -0.977401882064E+03   -0.58182E+01   -0.58535E+01  5064   0.100E+02-0.669E+00
CGA:  18    -0.979924833458E+03   -0.25230E+01   -0.25321E+01  5064   0.497E+01-0.127E+00
CGA:  19    -0.981289029638E+03   -0.13642E+01   -0.13668E+01  5064   0.253E+01-0.296E-01
CGA:  20    -0.981921464411E+03   -0.63243E+00   -0.63211E+00  5064   0.119E+01 0.331E-02
CGA:  21    -0.982226055465E+03   -0.30459E+00   -0.30464E+00  5064   0.568E+00-0.731E-03
CGA:  22    -0.982371651967E+03   -0.14560E+00   -0.14564E+00  5064   0.250E+00-0.636E-03
CGA:  23    -0.982439675098E+03   -0.68023E-01   -0.68032E-01  5064   0.122E+00-0.919E-04
CGA:  24    -0.982473670628E+03   -0.33996E-01   -0.33992E-01  5064   0.650E-01 0.612E-04
CGA:  25    -0.982490944236E+03   -0.17274E-01   -0.17274E-01  5064   0.333E-01-0.224E-04
CGA:  26    -0.982499060399E+03   -0.81162E-02   -0.81187E-02  5064   0.152E-01-0.949E-04
CGA:  27    -0.982502873854E+03   -0.38135E-02   -0.38157E-02  5064   0.740E-02-0.637E-04
CGA:  28    -0.982504845733E+03   -0.19719E-02   -0.19733E-02  5064   0.335E-02-0.297E-04
CGA:  29    -0.982505774513E+03   -0.92878E-03   -0.92946E-03  5064   0.166E-02-0.125E-04
CGA:  30    -0.982506268488E+03   -0.49397E-03   -0.49446E-03  5064   0.917E-03-0.679E-05
CGA:  31    -0.982506515661E+03   -0.24717E-03   -0.24718E-03  5064   0.456E-03 0.129E-07
CGA:  32    -0.982506632882E+03   -0.11722E-03   -0.11707E-03  5064   0.225E-03 0.613E-05
CGA:  33    -0.982506692730E+03   -0.59847E-04   -0.59629E-04  5064   0.105E-03 0.799E-05
CGA:  34    -0.982506721696E+03   -0.28967E-04   -0.28791E-04  5064   0.480E-04 0.594E-05
CGA:  35    -0.982506736240E+03   -0.14544E-04   -0.14410E-04  5064   0.248E-04 0.284E-05
CGA:  36    -0.982506743856E+03   -0.76155E-05   -0.75870E-05  5064   0.134E-04 0.565E-06
   1 F= -.98250674E+03 E0= -.98250674E+03  d E =-.258505E-22
