 vasp.6.4.2 20Jul23 (build Nov 12 2023 22:16:35) complex                         
 executed on              LinuxNV date 2025.03.08  11:27:37
 running    4 mpi-ranks, on    1 nodes
 distrk:  each k-point on    1 cores,    4 groups
 distr:  one band on NCORE=   1 cores,    1 groups
 OpenACC runtime initialized ...    4 GPUs detected


--------------------------------------------------------------------------------------------------------


 INCAR:
   PREC = Normal
   ENCUT = 450
   NELM = 500
   IBRION = -1
   ISPIN = 1
   NSW = 0
   ISIF = 2
   EDIFF = 1E-5
   EDIFFG = -5E-3
   ISTART = 0
   ICHARG = 0
   ISMEAR = 0
   SIGMA = 0.05
   LWAVE = .T.
   LCHARG = .T.
   LREAL = Auto
   LPLANE = .TRUE.
   NPAR = 1
   KPAR = 4
   NCORE = 1
   ALGO = All
   LHFCALC = .TRUE.
   HSE06 = .TRUE.
   HFSCREEN = 0.18
   TIME = 0.4
   AEXX = 0.35
   LMAXFOCK = 4
   PRECFOCK = Fast
   NELECT = 1056

 POTCAR:    PAW_PBE Ga_d 06Jul2010                
 POTCAR:    PAW_PBE O 08Apr2002                   
 POTCAR:    PAW_PBE N 08Apr2002                   
 POTCAR:    PAW_PBE Ga_d 06Jul2010                
   SHA256 =  a60ddf36e14f00ea098d9e3914b3745f1b7105e68786148f49ae384e44b4226c Ga_d/POTCAR           
   COPYR  = (c) Copyright 06Jul2010 Georg Kresse                                                    
   COPYR  = This file is part of the software VASP. Any use, copying, and all other rights are regul
   COPYR  = If you do not have a valid VASP license, you may not use, copy or distribute this file. 
   VRHFIN =Ga: s2p1                                                                                 
   LEXCH  = PE                                                                                      
   EATOM  =  2148.8298 eV,  157.9345 Ry                                                             
                                                                                                    
   TITEL  = PAW_PBE Ga_d 06Jul2010                                                                  
   LULTRA =        F    use ultrasoft PP ?                                                          
   IUNSCR =        1    unscreen: 0-lin 1-nonlin 2-no                                               
   RPACOR =    1.700    partial core radius                                                         
   POMASS =   69.723; ZVAL   =   13.000    mass and valenz                                          
   RCORE  =    2.300    outmost cutoff radius                                                       
   RWIGS  =    2.300; RWIGS  =    1.217    wigner-seitz radius (au A)                               
   ENMAX  =  282.691; ENMIN  =  212.018 eV                                                          
   ICORE  =        3    local potential                                                             
   LCOR   =        T    correct aug charges                                                         
   LPAW   =        T    paw PP                                                                      
   EAUG   =  490.690                                                                                
   DEXC   =    0.000                                                                                
   RMAX   =    2.341    core radius for proj-oper                                                   
   RAUG   =    1.300    factor for augmentation sphere                                              
   RDEP   =    2.413    radius for radial grids                                                     
   RDEPT  =    1.856    core radius for aug-charge                                                  
                                                                                                    
   Atomic configuration                                                                             
    9 entries                                                                                       
     n  l   j            E        occ.                                                              
     1  0  0.50    -10228.7831   2.0000                                                             
     2  0  0.50     -1262.1604   2.0000                                                             
     2  1  1.50     -1098.6333   6.0000                                                             
     3  0  0.50      -148.1110   2.0000                                                             
     3  1  1.50       -98.8436   6.0000                                                             
     3  2  2.50       -19.1549  10.0000                                                             
     4  0  0.50        -8.9483   2.0000                                                             
     4  1  0.50        -2.5791   1.0000                                                             
     4  3  2.50        -2.7416   0.0000                                                             
   Description                                                                                      
     l       E           TYP  RCUT    TYP  RCUT                                                     
     2    -19.1549037     23  2.300                                                                 
     2     -5.4423304     23  2.300                                                                 
     0     -8.9483111     23  2.300                                                                 
     0     68.0291300     23  2.300                                                                 
     1     -2.5790802     23  2.100                                                                 
     1     81.6349560     23  2.300                                                                 
     3      6.8029130     23  2.300                                                                 
  local pseudopotential read in
  partial core-charges read in
  partial kinetic energy density read in
  atomic valenz-charges read in
  non local Contribution for L=            2  read in
    real space projection operators read in
  non local Contribution for L=            2  read in
    real space projection operators read in
  non local Contribution for L=            0  read in
    real space projection operators read in
  non local Contribution for L=            0  read in
    real space projection operators read in
  non local Contribution for L=            1  read in
    real space projection operators read in
  non local Contribution for L=            1  read in
    real space projection operators read in
    PAW grid and wavefunctions read in
 
   number of l-projection  operators is LMAX  =            6
   number of lm-projection operators is LMMAX =           18
 
 POTCAR:    PAW_PBE O 08Apr2002                   
   SHA256 =  818f92134a0a090dccd8ba1447fa70422a3b330e708bb4f08108d8ae51209ddf O/POTCAR              
   COPYR  = (c) Copyright 08Apr2002 Georg Kresse                                                    
   COPYR  = This file is part of the software VASP. Any use, copying, and all other rights are regul
   COPYR  = If you do not have a valid VASP license, you may not use, copy or distribute this file. 
   VRHFIN =O: s2p4                                                                                  
   LEXCH  = PE                                                                                      
   EATOM  =   432.3788 eV,   31.7789 Ry                                                             
                                                                                                    
   TITEL  = PAW_PBE O 08Apr2002                                                                     
   LULTRA =        F    use ultrasoft PP ?                                                          
   IUNSCR =        1    unscreen: 0-lin 1-nonlin 2-no                                               
   RPACOR =    1.200    partial core radius                                                         
   POMASS =   16.000; ZVAL   =    6.000    mass and valenz                                          
   RCORE  =    1.520    outmost cutoff radius                                                       
   RWIGS  =    1.550; RWIGS  =    0.820    wigner-seitz radius (au A)                               
   ENMAX  =  400.000; ENMIN  =  300.000 eV                                                          
   ICORE  =        2    local potential                                                             
   LCOR   =        T    correct aug charges                                                         
   LPAW   =        T    paw PP                                                                      
   EAUG   =  605.392                                                                                
   DEXC   =    0.000                                                                                
   RMAX   =    1.553    core radius for proj-oper                                                   
   RAUG   =    1.300    factor for augmentation sphere                                              
   RDEP   =    1.550    radius for radial grids                                                     
   RDEPT  =    1.329    core radius for aug-charge                                                  
                                                                                                    
   Atomic configuration                                                                             
    4 entries                                                                                       
     n  l   j            E        occ.                                                              
     1  0  0.50      -514.6923   2.0000                                                             
     2  0  0.50       -23.9615   2.0000                                                             
     2  1  0.50        -9.0305   4.0000                                                             
     3  2  1.50        -9.5241   0.0000                                                             
   Description                                                                                      
     l       E           TYP  RCUT    TYP  RCUT                                                     
     0    -23.9615318     23  1.200                                                                 
     0     -9.5240782     23  1.200                                                                 
     1     -9.0304911     23  1.520                                                                 
     1      8.1634956     23  1.520                                                                 
     2     -9.5240782      7  1.500                                                                 
  local pseudopotential read in
  partial core-charges read in
  partial kinetic energy density read in
  kinetic energy density of atom read in
  atomic valenz-charges read in
  non local Contribution for L=            0  read in
    real space projection operators read in
  non local Contribution for L=            0  read in
    real space projection operators read in
  non local Contribution for L=            1  read in
    real space projection operators read in
  non local Contribution for L=            1  read in
    real space projection operators read in
    PAW grid and wavefunctions read in
 
   number of l-projection  operators is LMAX  =            4
   number of lm-projection operators is LMMAX =            8
 
 POTCAR:    PAW_PBE N 08Apr2002                   
   SHA256 =  e053789ff3a61a86a1b75d8a110fcc91f86041011e7b0817c7c99e4e8a6349d7 N/POTCAR              
   COPYR  = (c) Copyright 08Apr2002 Georg Kresse                                                    
   COPYR  = This file is part of the software VASP. Any use, copying, and all other rights are regul
   COPYR  = If you do not have a valid VASP license, you may not use, copy or distribute this file. 
   VRHFIN =N: s2p3                                                                                  
   LEXCH  = PE                                                                                      
   EATOM  =   264.5486 eV,   19.4438 Ry                                                             
                                                                                                    
   TITEL  = PAW_PBE N 08Apr2002                                                                     
   LULTRA =        F    use ultrasoft PP ?                                                          
   IUNSCR =        1    unscreen: 0-lin 1-nonlin 2-no                                               
   RPACOR =    1.200    partial core radius                                                         
   POMASS =   14.001; ZVAL   =    5.000    mass and valenz                                          
   RCORE  =    1.500    outmost cutoff radius                                                       
   RWIGS  =    1.400; RWIGS  =    0.741    wigner-seitz radius (au A)                               
   ENMAX  =  400.000; ENMIN  =  300.000 eV                                                          
   ICORE  =        2    local potential                                                             
   LCOR   =        T    correct aug charges                                                         
   LPAW   =        T    paw PP                                                                      
   EAUG   =  627.112                                                                                
   DEXC   =    0.000                                                                                
   RMAX   =    1.529    core radius for proj-oper                                                   
   RAUG   =    1.300    factor for augmentation sphere                                              
   RDEP   =    1.514    radius for radial grids                                                     
   RDEPT  =    1.338    core radius for aug-charge                                                  
                                                                                                    
   Atomic configuration                                                                             
    4 entries                                                                                       
     n  l   j            E        occ.                                                              
     1  0  0.50      -384.7179   2.0000                                                             
     2  0  0.50       -18.5828   2.0000                                                             
     2  1  0.50        -7.0898   3.0000                                                             
     3  2  1.50        -6.8029   0.0000                                                             
   Description                                                                                      
     l       E           TYP  RCUT    TYP  RCUT                                                     
     0    -18.5828119     23  1.200                                                                 
     0    -13.5018863     23  1.200                                                                 
     1     -7.0897853     23  1.500                                                                 
     1      9.5240782     23  1.500                                                                 
     2     -6.8029130      7  1.500                                                                 
  local pseudopotential read in
  partial core-charges read in
  partial kinetic energy density read in
  atomic valenz-charges read in
  non local Contribution for L=            0  read in
    real space projection operators read in
  non local Contribution for L=            0  read in
    real space projection operators read in
  non local Contribution for L=            1  read in
    real space projection operators read in
  non local Contribution for L=            1  read in
    real space projection operators read in
    PAW grid and wavefunctions read in
 
   number of l-projection  operators is LMAX  =            4
   number of lm-projection operators is LMMAX =            8
 
 Optimization of the real space projectors (new method)

 maximal supplied QI-value         = 16.25
 optimisation between [QCUT,QGAM] = [ 10.73, 21.61] = [ 32.22,130.83] Ry 
 Optimized for a Real-space Cutoff    1.42 Angstroem

   l    n(q)    QCUT    max X(q) W(low)/X(q) W(high)/X(q)  e(spline) 
   2      8    10.726     7.143    0.22E-03    0.16E-03    0.73E-07
   2      8    10.726     5.586    0.40E-03    0.26E-03    0.10E-06
   0      9    10.726    12.382    0.25E-04    0.21E-05    0.37E-07
   0      9    10.726     6.622    0.42E-04    0.48E-05    0.77E-07
   1      9    10.726     7.935    0.27E-03    0.13E-04    0.16E-06
   1      9    10.726     2.425    0.23E-03    0.15E-04    0.14E-06
 Optimization of the real space projectors (new method)

 maximal supplied QI-value         = 24.76
 optimisation between [QCUT,QGAM] = [ 10.64, 21.54] = [ 31.73,129.89] Ry 
 Optimized for a Real-space Cutoff    1.23 Angstroem

   l    n(q)    QCUT    max X(q) W(low)/X(q) W(high)/X(q)  e(spline) 
   0      8    10.645    20.381    0.38E-03    0.60E-03    0.15E-06
   0      8    10.645    15.268    0.40E-03    0.65E-03    0.17E-06
   1      7    10.645     5.964    0.30E-03    0.63E-03    0.18E-06
   1      7    10.645     5.382    0.24E-03    0.53E-03    0.16E-06
 Optimization of the real space projectors (new method)

 maximal supplied QI-value         = 25.13
 optimisation between [QCUT,QGAM] = [ 10.81, 21.61] = [ 32.71,130.83] Ry 
 Optimized for a Real-space Cutoff    1.23 Angstroem

   l    n(q)    QCUT    max X(q) W(low)/X(q) W(high)/X(q)  e(spline) 
   0      8    10.807    79.467    0.34E-03    0.68E-03    0.21E-06
   0      8    10.807    66.151    0.34E-03    0.67E-03    0.21E-06
   1      7    10.807    14.030    0.45E-03    0.13E-02    0.11E-05
   1      7    10.807     9.831    0.48E-03    0.13E-02    0.11E-05
  PAW_PBE Ga_d 06Jul2010                :
 energy of atom  1       EATOM=-2148.8298
 kinetic energy error for atom=    0.0038 (will be added to EATOM!!)
  PAW_PBE O 08Apr2002                   :
 energy of atom  2       EATOM= -432.3788
 kinetic energy error for atom=    0.0389 (will be added to EATOM!!)
  PAW_PBE N 08Apr2002                   :
 energy of atom  3       EATOM= -264.5486
 kinetic energy error for atom=    0.0253 (will be added to EATOM!!)
 
 
 POSCAR: Ga48 O72
  positions in direct lattice
  velocities in cartesian coordinates
 exchange correlation table for  LEXCH =        8
   RHO(1)=    0.500       N(1)  =     2000
   RHO(2)=  100.500       N(2)  =     4000
 


--------------------------------------------------------------------------------------------------------


 ion  position               nearest neighbor table
   1  0.660  1.000  0.157-  85 1.95  79 1.96  83 1.96  67 1.98  61 2.08  65 2.08
   2  0.659  1.000  0.657-  86 1.95  80 1.95  84 1.95  68 2.02  62 2.08  66 2.08
   3  0.660  0.334  0.157-  87 1.95  79 1.96  81 1.96  69 1.98  61 2.08  63 2.08
   4  0.659  0.333  0.657-  88 1.95  80 1.95  82 1.95  70 2.02  62 2.08  64 2.08
   5  0.659  0.667  0.156-  89 1.94  81 1.95  83 1.95  71 2.02  63 2.06  65 2.06
   6  0.659  0.667  0.657-  90 1.94  82 1.95  84 1.95  72 2.03  64 2.07  66 2.07
   7  0.845  0.167  0.347- 120 1.85  73 2.00  75 2.00  61 2.05  67 2.15  69 2.15
   8  0.842  0.167  0.844-  91 1.94  74 1.95  76 1.95  62 2.03  68 2.08  70 2.08
   9  0.841  0.500  0.343-  92 1.94  75 1.95  77 1.96  63 2.04  69 2.05  71 2.08
  10  0.842  0.500  0.844-  93 1.94  76 1.95  78 1.95  64 2.03  70 2.07  72 2.08
  11  0.841  0.833  0.343-  94 1.94  73 1.95  77 1.96  65 2.04  67 2.05  71 2.08
  12  0.842  0.834  0.844-  95 1.94  74 1.95  78 1.95  66 2.03  68 2.07  72 2.08
  13  0.593  0.167  0.397-  80 1.84  55 1.85  57 1.85  61 1.87
  14  0.591  0.167  0.898-  79 1.84  56 1.85  58 1.85  62 1.87
  15  0.592  0.500  0.398-  82 1.84  59 1.85  57 1.85  63 1.87
  16  0.590  0.500  0.897-  81 1.83  60 1.85  58 1.85  64 1.87
  17  0.592  0.834  0.398-  84 1.84  59 1.85  55 1.85  65 1.87
  18  0.590  0.833  0.897-  83 1.83  60 1.85  56 1.85  66 1.87
  19  0.910  0.000  0.104-  49 1.84  53 1.85  74 1.85  67 1.86
  20  0.908  1.000  0.600-  73 1.84  50 1.85  54 1.85  68 1.88
  21  0.910  0.333  0.104-  49 1.84  51 1.85  76 1.85  69 1.86
  22  0.908  0.333  0.600-  75 1.84  50 1.85  52 1.85  70 1.88
  23  0.910  0.667  0.103-  78 1.85  51 1.85  53 1.85  71 1.87
  24  0.909  0.667  0.602-  77 1.84  52 1.85  54 1.85  72 1.88
  25  0.159  0.167  0.159-  49 1.94 114 1.97 116 1.97 102 2.03  96 2.07  98 2.07
  26  0.158  0.167  0.652- 115 1.95 117 1.95  50 1.95 103 2.04  97 2.11  99 2.11
  27  0.160  0.499  0.158-  51 1.95 116 1.96 118 1.96 104 2.03  98 2.05 100 2.08
  28  0.159  0.499  0.656- 117 1.93  52 1.95 119 1.95 105 2.03  99 2.08 101 2.09
  29  0.160  0.834  0.158-  53 1.95 114 1.96 118 1.96 106 2.03  96 2.05 100 2.08
  30  0.159  0.834  0.656- 115 1.93  54 1.95 119 1.95 107 2.03  97 2.08 101 2.09
  31  0.341  1.000  0.344- 112 1.95 108 1.95  55 1.95  96 2.00 102 2.08 106 2.08
  32  0.340  0.000  0.843-  56 1.95 109 1.95 113 1.96  97 2.01 107 2.07 103 2.07
  33  0.341  0.334  0.344- 110 1.95 108 1.95  57 1.95  98 2.00 102 2.08 104 2.08
  34  0.340  0.333  0.843-  58 1.95 109 1.95 111 1.96  99 2.01 105 2.07 103 2.07
  35  0.342  0.667  0.343-  59 1.94 110 1.95 112 1.95 100 2.02 104 2.07 106 2.07
  36  0.340  0.667  0.843-  60 1.94 111 1.95 113 1.95 101 2.02 105 2.07 107 2.07
  37  0.086  0.005  0.396- 120 1.81  94 1.87 115 1.88  96 1.92
  38  0.092  0.000  0.898- 114 1.84  91 1.85  95 1.85  97 1.87
  39  0.086  0.329  0.396- 120 1.81  92 1.87 117 1.88  98 1.92
  40  0.092  0.333  0.898- 116 1.84  91 1.85  93 1.85  99 1.87
  41  0.092  0.667  0.398-  92 1.84  94 1.84 119 1.85 100 1.88
  42  0.092  0.667  0.898- 118 1.84  93 1.85  95 1.85 101 1.87
  43  0.409  0.167  0.102- 109 1.84  85 1.85  87 1.85 102 1.87
  44  0.409  0.167  0.603- 108 1.84  86 1.85  88 1.85 103 1.87
  45  0.409  0.500  0.102- 111 1.84  89 1.84  87 1.85 104 1.87
  46  0.409  0.500  0.603- 110 1.84  90 1.85  88 1.85 105 1.87
  47  0.409  0.834  0.102- 113 1.84  89 1.84  85 1.85 106 1.87
  48  0.409  0.833  0.603- 112 1.84  90 1.85  86 1.85 107 1.87
  49  0.996  0.167  0.120-  19 1.84  21 1.84  25 1.94
  50  0.996  0.167  0.630-  20 1.85  22 1.85  26 1.95
  51  0.997  0.500  0.127-  23 1.85  21 1.85  27 1.95
  52  0.996  0.500  0.627-  24 1.85  22 1.85  28 1.95
  53  0.997  0.833  0.127-  23 1.85  19 1.85  29 1.95
  54  0.996  0.833  0.627-  24 1.85  20 1.85  30 1.95
  55  0.504  0.000  0.373-  17 1.85  13 1.85  31 1.95
  56  0.503  0.000  0.872-  18 1.85  14 1.85  32 1.95
  57  0.504  0.333  0.373-  15 1.85  13 1.85  33 1.95
  58  0.503  0.333  0.872-  16 1.85  14 1.85  34 1.95
  59  0.505  0.667  0.373-  15 1.85  17 1.85  35 1.94
  60  0.503  0.667  0.872-  16 1.85  18 1.85  36 1.94
  61  0.675  0.167  0.280-  13 1.87   7 2.05   1 2.08   3 2.08
  62  0.673  0.167  0.781-  14 1.87   8 2.03   2 2.08   4 2.08
  63  0.671  0.501  0.279-  15 1.87   9 2.04   5 2.06   3 2.08
  64  0.673  0.500  0.781-  16 1.87  10 2.03   6 2.07   4 2.08
  65  0.671  0.832  0.279-  17 1.87  11 2.04   5 2.06   1 2.08
  66  0.673  0.833  0.781-  18 1.87  12 2.03   6 2.07   2 2.08
  67  0.825  0.995  0.217-  19 1.86   1 1.98  11 2.05   7 2.15
  68  0.828  1.000  0.720-  20 1.88   2 2.02  12 2.07   8 2.08
  69  0.825  0.339  0.217-  21 1.86   3 1.98   9 2.05   7 2.15
  70  0.828  0.334  0.720-  22 1.88   4 2.02  10 2.07   8 2.08
  71  0.827  0.667  0.219-  23 1.87   5 2.02   9 2.08  11 2.08
  72  0.828  0.667  0.720-  24 1.88   6 2.03  10 2.08  12 2.08
  73  0.825  0.996  0.447-  20 1.84  11 1.95   7 2.00
  74  0.833  1.000  0.946-  19 1.85  12 1.95   8 1.95
  75  0.825  0.337  0.447-  22 1.84   9 1.95   7 2.00
  76  0.833  0.334  0.946-  21 1.85  10 1.95   8 1.95
  77  0.830  0.667  0.446-  24 1.84   9 1.96  11 1.96
  78  0.833  0.667  0.946-  23 1.85  10 1.95  12 1.95
  79  0.668  0.167  0.054-  14 1.84   1 1.96   3 1.96
  80  0.667  0.167  0.555-  13 1.84   2 1.95   4 1.95
  81  0.666  0.501  0.053-  16 1.83   5 1.95   3 1.96
  82  0.666  0.500  0.555-  15 1.84   6 1.95   4 1.95
  83  0.666  0.833  0.053-  18 1.83   5 1.95   1 1.96
  84  0.666  0.833  0.555-  17 1.84   6 1.95   2 1.95
  85  0.497  0.000  0.127-  47 1.85  43 1.85   1 1.95
  86  0.497  1.000  0.628-  44 1.85  48 1.85   2 1.95
  87  0.497  0.333  0.127-  45 1.85  43 1.85   3 1.95
  88  0.497  0.333  0.628-  44 1.85  46 1.85   4 1.95
  89  0.496  0.667  0.126-  45 1.84  47 1.84   5 1.94
  90  0.496  0.667  0.629-  46 1.85  48 1.85   6 1.94
  91  0.004  0.167  0.872-  38 1.85  40 1.85   8 1.94
  92  0.003  0.502  0.374-  41 1.84  39 1.87   9 1.94
  93  0.004  0.500  0.873-  42 1.85  40 1.85  10 1.94
  94  0.003  0.831  0.374-  41 1.84  37 1.87  11 1.94
  95  0.004  0.833  0.873-  42 1.85  38 1.85  12 1.94
  96  0.174  0.998  0.281-  37 1.92  31 2.00  29 2.05  25 2.07
  97  0.172  0.000  0.780-  38 1.87  32 2.01  30 2.08  26 2.11
  98  0.174  0.336  0.281-  39 1.92  33 2.00  27 2.05  25 2.07
  99  0.172  0.333  0.780-  40 1.87  34 2.01  28 2.08  26 2.11
 100  0.174  0.667  0.281-  41 1.88  35 2.02  27 2.08  29 2.08
 101  0.172  0.667  0.781-  42 1.87  36 2.02  28 2.09  30 2.09
 102  0.328  0.167  0.220-  43 1.87  25 2.03  31 2.08  33 2.08
 103  0.327  0.167  0.719-  44 1.87  26 2.04  32 2.07  34 2.07
 104  0.329  0.501  0.220-  45 1.87  27 2.03  35 2.07  33 2.08
 105  0.328  0.500  0.720-  46 1.87  28 2.03  36 2.07  34 2.07
 106  0.329  0.833  0.220-  47 1.87  29 2.03  35 2.07  31 2.08
 107  0.328  0.833  0.720-  48 1.87  30 2.03  36 2.07  32 2.07
 108  0.334  0.167  0.446-  44 1.84  31 1.95  33 1.95
 109  0.332  0.167  0.946-  43 1.84  32 1.95  34 1.95
 110  0.334  0.501  0.446-  46 1.84  33 1.95  35 1.95
 111  0.332  0.500  0.946-  45 1.84  36 1.95  34 1.96
 112  0.334  0.833  0.446-  48 1.84  31 1.95  35 1.95
 113  0.332  0.834  0.946-  47 1.84  36 1.95  32 1.96
 114  0.169  0.000  0.055-  38 1.84  29 1.96  25 1.97
 115  0.170  0.998  0.554-  37 1.88  30 1.93  26 1.95
 116  0.169  0.333  0.055-  40 1.84  27 1.96  25 1.97
 117  0.170  0.336  0.554-  39 1.88  28 1.93  26 1.95
 118  0.168  0.667  0.055-  42 1.84  27 1.96  29 1.96
 119  0.169  0.667  0.555-  41 1.85  28 1.95  30 1.95
 120  0.999  0.167  0.370-  37 1.81  39 1.81   7 1.85
 
  LATTYP: Found a simple monoclinic cell.
 ALAT       =    11.6348202465
 B/A-ratio  =     0.7858051831
 C/A-ratio  =     1.0554931797
 COS(beta)  =    -0.2379290539
  
  Lattice vectors:
  
 A1 = (   0.0000000000,  -2.7682617730, -11.3006977184)
 A2 = (  -9.1427020537,   0.0000000000,   0.0000000000)
 A3 = (   0.0000000000,  12.2804734172,   0.0000000000)


Analysis of symmetry for initial positions (statically):
=====================================================================
 Subroutine PRICEL returns:
 Original cell was already a primitive cell.
 

 Routine SETGRP: Setting up the symmetry group for a 
 simple monoclinic supercell.


 Subroutine GETGRP returns: Found  2 space group operations
 (whereof  1 operations were pure point group operations)
 out of a pool of  4 trial point group operations.


The static configuration has the point symmetry C_1 .
 The point group associated with its full space group is C_1h.


Analysis of symmetry for dynamics (positions and initial velocities):
=====================================================================
 Subroutine PRICEL returns:
 Original cell was already a primitive cell.
 

 Routine SETGRP: Setting up the symmetry group for a 
 simple monoclinic supercell.


 Subroutine GETGRP returns: Found  2 space group operations
 (whereof  1 operations were pure point group operations)
 out of a pool of  4 trial point group operations.


The dynamic configuration has the point symmetry C_1 .
 The point group associated with its full space group is C_1h.


 Subroutine INISYM returns: Found  2 space group operations
 (whereof  1 operations are pure point group operations),
 and found     1 'primitive' translations


----------------------------------------------------------------------------------------

                                     Primitive cell                                     

  volume of cell :    1268.8052

  direct lattice vectors                    reciprocal lattice vectors
     0.000000000 12.280473417  0.000000000     0.000000000  0.081430085 -0.019947423
     9.142702054  0.000000000  0.000000000     0.109376855 -0.000000000  0.000000000
     0.000000000 -2.768261773-11.300697718     0.000000000  0.000000000 -0.088490111

  length of vectors
    12.280473417  9.142702054 11.634820246     0.083837691  0.109376855  0.088490111

  position of ions in fractional coordinates (direct lattice)
     0.659669860  0.999657928  0.156525401
     0.659471354  0.999942315  0.656951848
     0.659669860  0.333675405  0.156525401
     0.659471354  0.333391019  0.656951848
     0.658851388  0.666666667  0.156496411
     0.658884880  0.666666667  0.657251136
     0.844697053  0.166666667  0.346516243
     0.841727156  0.166666667  0.844213693
     0.841113412  0.499863786  0.343108886
     0.841509701  0.499703533  0.843779323
     0.841113412  0.833469548  0.343108886
     0.841509701  0.833629800  0.843779323
     0.592943819  0.166666667  0.397142385
     0.590844950  0.166666667  0.897561377
     0.591867071  0.499719571  0.397717932
     0.590140563  0.500000485  0.897042777
     0.591867071  0.833613763  0.397717932
     0.590140563  0.833332848  0.897042777
     0.909539368  0.000086947  0.103976960
     0.908108452  0.999997352  0.600416099
     0.909539368  0.333246387  0.103976960
     0.908108452  0.333335982  0.600416099
     0.909649169  0.666666667  0.103158636
     0.908568076  0.666666667  0.601518538
     0.159123550  0.166666667  0.159198258
     0.158177510  0.166666667  0.652181555
     0.160062574  0.499330967  0.157904562
     0.158993848  0.499412839  0.655786797
     0.160062574  0.834002366  0.157904562
     0.158993848  0.833920494  0.655786797
     0.341141016  0.999823107  0.343914904
     0.340021227  0.000248542  0.842736703
     0.341141016  0.333510226  0.343914904
     0.340021227  0.333084791  0.842736703
     0.342320299  0.666666667  0.343293933
     0.340386846  0.666666667  0.843220491
     0.085895344  0.004615760  0.396231618
     0.091670343  0.000387155  0.898123885
     0.085895344  0.328717574  0.396231618
     0.091670343  0.332946179  0.898123885
     0.091797789  0.666666667  0.398040300
     0.091576138  0.666666667  0.898345764
     0.408739659  0.166666667  0.102469544
     0.409196309  0.166666667  0.602742340
     0.409454510  0.499741865  0.102272161
     0.409065207  0.499918293  0.602921046
     0.409454510  0.833591469  0.102272161
     0.409065207  0.833415041  0.602921046
     0.996477555  0.166666667  0.120144926
     0.995636127  0.166666667  0.629919025
     0.997202197  0.500141014  0.127160199
     0.996129136  0.499961720  0.627188485
     0.997202197  0.833192319  0.127160199
     0.996129136  0.833371613  0.627188485
     0.504496135  0.000458969  0.372824734
     0.503056872  0.000300564  0.872390697
     0.504496135  0.332874364  0.372824734
     0.503056872  0.333032769  0.872390697
     0.504664933  0.666666667  0.373143771
     0.502872562  0.666666667  0.871959784
     0.674529146  0.166666667  0.280308891
     0.672933306  0.166666667  0.780990220
     0.671298145  0.501273661  0.279421043
     0.672712316  0.500142838  0.780979546
     0.671298145  0.832059672  0.279421043
     0.672712316  0.833190495  0.780979546
     0.824849523  0.994573547  0.217013501
     0.827569830  0.999631846  0.719566571
     0.824849523  0.338759787  0.217013501
     0.827569830  0.333701488  0.719566571
     0.826894405  0.666666667  0.218861066
     0.827570098  0.666666667  0.719585435
     0.824612580  0.996132963  0.446580605
     0.832626913  0.999657052  0.946280998
     0.824612580  0.337200370  0.446580605
     0.832626913  0.333676281  0.946280998
     0.830154723  0.666666667  0.445545100
     0.833097368  0.666666667  0.946117638
     0.667685253  0.166666667  0.053734728
     0.666988473  0.166666667  0.554820475
     0.666166814  0.500647433  0.053141858
     0.666485177  0.500499177  0.554994917
     0.666166814  0.832685901  0.053141858
     0.666485177  0.832834156  0.554994917
     0.496680667  0.000428615  0.126892834
     0.496670891  0.999999418  0.628430335
     0.496680667  0.332904719  0.126892834
     0.496670891  0.333333916  0.628430335
     0.496124600  0.666666667  0.126335976
     0.496367805  0.666666667  0.628667766
     0.003907495  0.166666667  0.872239038
     0.003398181  0.502158959  0.373688275
     0.004169374  0.499932920  0.873070438
     0.003398181  0.831174375  0.373688275
     0.004169374  0.833400413  0.873070438
     0.174410181  0.997622953  0.280851789
     0.172451883  0.000047436  0.780306978
     0.174410181  0.335710380  0.280851789
     0.172451883  0.333285897  0.780306978
     0.173942290  0.666666667  0.281176856
     0.172421579  0.666666667  0.780530686
     0.328326777  0.166666667  0.220056985
     0.327297449  0.166666667  0.719412228
     0.329074984  0.500641531  0.219820688
     0.328025880  0.500305844  0.720306838
     0.329074984  0.832691802  0.219820688
     0.328025880  0.833027489  0.720306838
     0.333861181  0.166666667  0.446176375
     0.332204654  0.166666667  0.945763990
     0.334471994  0.500576134  0.446146186
     0.332192282  0.499814174  0.945848381
     0.334471994  0.832757200  0.446146186
     0.332192282  0.833519159  0.945848381
     0.169043697  0.000282689  0.054529349
     0.170297357  0.997627664  0.554009623
     0.169043697  0.333050644  0.054529349
     0.170297357  0.335705670  0.554009623
     0.168495070  0.666666667  0.054936245
     0.169222842  0.666666667  0.554796148
     0.999206001  0.166666667  0.369714503

  ion indices of the primitive-cell ions
   primitive index   ion index
                 1           1
                 2           2
                 3           3
                 4           4
                 5           5
                 6           6
                 7           7
                 8           8
                 9           9
                10          10
                11          11
                12          12
                13          13
                14          14
                15          15
                16          16
                17          17
                18          18
                19          19
                20          20
                21          21
                22          22
                23          23
                24          24
                25          25
                26          26
                27          27
                28          28
                29          29
                30          30
                31          31
                32          32
                33          33
                34          34
                35          35
                36          36
                37          37
                38          38
                39          39
                40          40
                41          41
                42          42
                43          43
                44          44
                45          45
                46          46
                47          47
                48          48
                49          49
                50          50
                51          51
                52          52
                53          53
                54          54
                55          55
                56          56
                57          57
                58          58
                59          59
                60          60
                61          61
                62          62
                63          63
                64          64
                65          65
                66          66
                67          67
                68          68
                69          69
                70          70
                71          71
                72          72
                73          73
                74          74
                75          75
                76          76
                77          77
                78          78
                79          79
                80          80
                81          81
                82          82
                83          83
                84          84
                85          85
                86          86
                87          87
                88          88
                89          89
                90          90
                91          91
                92          92
                93          93
                94          94
                95          95
                96          96
                97          97
                98          98
                99          99
               100         100
               101         101
               102         102
               103         103
               104         104
               105         105
               106         106
               107         107
               108         108
               109         109
               110         110
               111         111
               112         112
               113         113
               114         114
               115         115
               116         116
               117         117
               118         118
               119         119
               120         120

----------------------------------------------------------------------------------------

 
 
 KPOINTS: Automatic mesh                          

Automatic generation of k-mesh.
 Grid dimensions read from file:
 generate k-points for:    2    2    2

 Generating k-lattice:

  Cartesian coordinates                     Fractional coordinates (reciprocal lattice)
     0.000000000  0.040715043 -0.009973711     0.500000000  0.000000000  0.000000000
     0.054688428 -0.000000000  0.000000000     0.000000000  0.500000000  0.000000000
     0.000000000  0.000000000 -0.044245056     0.000000000  0.000000000  0.500000000

  Length of vectors
     0.041918846  0.054688428  0.044245056

  Shift w.r.t. Gamma in fractional coordinates (k-lattice)
     0.000000000  0.000000000  0.000000000

 
 Subroutine IBZKPT returns following result:
 ===========================================
 
 Found      8 irreducible k-points:
 
 Following reciprocal coordinates:
            Coordinates               Weight
  0.000000  0.000000  0.000000      1.000000
  0.500000  0.000000  0.000000      1.000000
  0.000000  0.500000  0.000000      1.000000
  0.500000  0.500000  0.000000      1.000000
  0.000000  0.000000  0.500000      1.000000
  0.500000  0.000000  0.500000      1.000000
  0.000000  0.500000  0.500000      1.000000
  0.500000  0.500000  0.500000      1.000000
 
 Following cartesian coordinates:
            Coordinates               Weight
  0.000000  0.000000 -0.000000      1.000000
  0.000000  0.040715 -0.009974      1.000000
  0.054688  0.000000 -0.000000      1.000000
  0.054688  0.040715 -0.009974      1.000000
  0.000000  0.000000 -0.044245      1.000000
  0.000000  0.040715 -0.054219      1.000000
  0.054688  0.000000 -0.044245      1.000000
  0.054688  0.040715 -0.054219      1.000000
 
 
 Subroutine IBZKPT_HF returns following result:
 ==============================================
 
 Found      8 k-points in 1st BZ
 the following      8 k-points will be used (e.g. in the exchange kernel)
 Following reciprocal coordinates:   # in IRBZ
  0.000000  0.000000  0.000000    0.12500000   1 t-inv F
  0.500000  0.000000  0.000000    0.12500000   2 t-inv F
  0.000000  0.500000  0.000000    0.12500000   3 t-inv F
  0.500000  0.500000  0.000000    0.12500000   4 t-inv F
  0.000000  0.000000  0.500000    0.12500000   5 t-inv F
  0.500000  0.000000  0.500000    0.12500000   6 t-inv F
  0.000000  0.500000  0.500000    0.12500000   7 t-inv F
  0.500000  0.500000  0.500000    0.12500000   8 t-inv F


--------------------------------------------------------------------------------------------------------




 Dimension of arrays:
   k-points           NKPTS =      8   k-points in BZ     NKDIM =      8   number of bands    NBANDS=    633
   number of dos      NEDOS =    301   number of ions     NIONS =    120
   non local maximal  LDIM  =      6   non local SUM 2l+1 LMDIM =     18
   total plane-waves  NPLWV = 184320
   max r-space proj   IRMAX =   1800   max aug-charges    IRDMAX=   5704
   dimension x,y,z NGX =    64 NGY =   48 NGZ =   60
   dimension x,y,z NGXF=   128 NGYF=   96 NGZF=  120
   support grid    NGXF=   128 NGYF=   96 NGZF=  120
   ions per type =              48  71   1
   NGX,Y,Z   is equivalent  to a cutoff of   8.66,  8.73,  8.57 a.u.
   NGXF,Y,Z  is equivalent  to a cutoff of  17.33, 17.46, 17.15 a.u.

 SYSTEM =  unknown system                          
 POSCAR =  Ga48 O72                                

 Startparameter for this run:
   NWRITE =      2    write-flag & timer
   PREC   = normal    normal or accurate (medium, high low for compatibility)
   ISTART =      0    job   : 0-new  1-cont  2-samecut
   ICHARG =      0    charge: 1-file 2-atom 10-const
   ISPIN  =      1    spin polarized calculation?
   LNONCOLLINEAR =      F non collinear calculations
   LSORBIT =      F    spin-orbit coupling
   INIWAV =      1    electr: 0-lowe 1-rand  2-diag
   LASPH  =      F    aspherical Exc in radial PAW
 Electronic Relaxation 1
   ENCUT  =  450.0 eV  33.07 Ry    5.75 a.u.  21.24 15.81 20.12*2*pi/ulx,y,z
   ENINI  =  450.0     initial cutoff
   ENAUG  =  627.1 eV  augmentation charge cutoff
   NELM   =    500;   NELMIN=  2; NELMDL= -5     # of ELM steps 
   EDIFF  = 0.1E-04   stopping-criterion for ELM
   LREAL  =      T    real-space projection
   NLSPLINE    = F    spline interpolate recip. space projectors
   LCOMPAT=      F    compatible to vasp.4.4
   GGA_COMPAT  = T    GGA compatible to vasp.4.4-vasp.4.6
   LMAXPAW     = -100 max onsite density
   LMAXMIX     =    2 max onsite mixed and CHGCAR
   VOSKOWN=      0    Vosko Wilk Nusair interpolation
   ROPT   =   -0.00050  -0.00050  -0.00050
 Ionic relaxation
   EDIFFG = -.5E-02   stopping-criterion for IOM
   NSW    =      0    number of steps for IOM
   NBLOCK =      1;   KBLOCK =      1    inner block; outer block 
   IBRION =     -1    ionic relax: 0-MD 1-quasi-New 2-CG
   NFREE  =      0    steps in history (QN), initial steepest desc. (CG)
   ISIF   =      2    stress and relaxation
   IWAVPR =     10    prediction:  0-non 1-charg 2-wave 3-comb
   ISYM   =      3    0-nonsym 1-usesym 2-fastsym
   LCORR  =      T    Harris-Foulkes like correction to forces

   POTIM  = 0.5000    time-step for ionic-motion
   TEIN   =    0.0    initial temperature
   TEBEG  =    0.0;   TEEND  =   0.0 temperature during run
   SMASS  =  -3.00    Nose mass-parameter (am)
   estimated Nose-frequenzy (Omega)   =  0.10E-29 period in steps = 0.13E+47 mass=  -0.345E-26a.u.
   SCALEE = 1.0000    scale energy and forces
   NPACO  =    256;   APACO  = 10.0  distance and # of slots for P.C.
   PSTRESS=    0.0 pullay stress

  Mass of Ions in am
   POMASS =  69.72 16.00 14.00
  Ionic Valenz
   ZVAL   =  13.00  6.00  5.00
  Atomic Wigner-Seitz radii
   RWIGS  =  -1.00 -1.00 -1.00
  virtual crystal weights 
   VCA    =   1.00  1.00  1.00
   NELECT =    1056.0000    total number of electrons
   NUPDOWN=      -1.0000    fix difference up-down

 DOS related values:
   EMIN   =  10.00;   EMAX   =-10.00  energy-range for DOS
   EFERMI =   0.00;   METHOD = LEGACY      
   ISMEAR =     0;   SIGMA  =   0.05  broadening in eV -4-tet -1-fermi 0-gaus

 Electronic relaxation 2 (details)
   IALGO  =     58    algorithm
   LDIAG  =      T    sub-space diagonalisation (order eigenvalues)
   LSUBROT=      F    optimize rotation matrix (better conditioning)
   TURBO    =      0    0=normal 1=particle mesh
   IRESTART =      0    0=no restart 2=restart with 2 vectors
   NREBOOT  =      0    no. of reboots
   NMIN     =      0    reboot dimension
   EREF     =   0.00    reference energy to select bands
   IMIX   =      4    mixing-type and parameters
     AMIX     =   0.40;   BMIX     =  1.00
     AMIX_MAG =   1.60;   BMIX_MAG =  1.00
     AMIN     =   0.10
     WC   =   100.;   INIMIX=   1;  MIXPRE=   1;  MAXMIX= -45

 Intra band minimization:
   WEIMIN = 0.0000     energy-eigenvalue tresh-hold
   EBREAK =  0.39E-08  absolut break condition
   DEPER  =   0.30     relativ break condition  

   TIME   =   0.40     timestep for ELM

  volume/ion in A,a.u.               =      10.57        71.35
  Fermi-wavevector in a.u.,A,eV,Ry     =   1.539919  2.910025 32.264175  2.371350
  Thomas-Fermi vector in A             =   2.646079
 
 Write flags
   LWAVE        =      T    write WAVECAR
   LDOWNSAMPLE  =      F    k-point downsampling of WAVECAR
   LCHARG       =      T    write CHGCAR
   LVTOT        =      F    write LOCPOT, total local potential
   LVHAR        =      F    write LOCPOT, Hartree potential only
   LELF         =      F    write electronic localiz. function (ELF)
   LORBIT       =      0    0 simple, 1 ext, 2 COOP (PROOUT), +10 PAW based schemes


 Dipole corrections
   LMONO  =      F    monopole corrections only (constant potential shift)
   LDIPOL =      F    correct potential (dipole corrections)
   IDIPOL =      0    1-x, 2-y, 3-z, 4-all directions 
   EPSILON=  1.0000000 bulk dielectric constant

 Exchange correlation treatment:
   GGA     =    --    GGA type
   LEXCH   =     8    internal setting for exchange type
   LIBXC   =     F    Libxc                    
   VOSKOWN =     0    Vosko Wilk Nusair interpolation
   EXXOEP  =     0    0=HF, 1=EXX-LHF (local Hartree Fock) 2=EXX OEP
   LHFCALC =     T    Hartree Fock is set to
   LSYMGRAD=     F    symmetrize gradient (conserves proper symmetry)
   PRECFOCK=fast      Normal, Fast or Accurate (Low or Medium for compatibility)
   LRHFCALC=     F    long range Hartree Fock
   LRSCOR  =     F    long range correlation only (use DFT for short range part)
   LTHOMAS =     F    Thomas Fermi screening in HF
   LMODELHF=     F    short range full HF, long range fraction AEXX
   FOCKCORR=     1    mode to apply convergence corrections
   LFOCKACE=     T    use Adeptively-Compressed-Exchange operator
   ENCUT4O =  -1.0   cutoff for four orbital integrals eV
   LMAXFOCK=     4    L truncation for augmentation on plane wave grid
   LMAXFOCKAE=  -1    L truncation for all-electron charge restoration on plane wave grid
   NMAXFOCKAE=   1    number of basis functions for all-electron charge restoration
   LFOCKAEDFT=     F  apply the AE augmentation even for DFT
   NKREDX  =     1    reduce k-point grid by
   NKREDY  =     1    reduce k-point grid by
   NKREDZ  =     1    reduce k-point grid by
   SHIFTRED=     F    shift reduced grid of Gamma
   HFKIDENT=     F    idential grid for each k-point
   ODDONLY =     F    use only odd q-grid points
   EVENONLY=     F    use only even q-grid points
   HFALPHA =   -1.0000 decay constant for conv. correction
   MCALPHA =    0.0000 extent of test-charge in conv. correction in multipole expansion
   AEXX    =    0.3500 exact exchange contribution
   HFSCREEN=    0.1800 screening length (either q_TF or 0.3 A-1)
   HFSCREENC=   0.1800 screening length for correlation (either q_TF or 0.3 A-1)
   HFRCUT  =    0.0000 spherical cutoff for potential kernel
   ALDAX   =    0.6500 LDA exchange part
   AGGAX   =    0.6500 GGA exchange part
   ALDAC   =    1.0000 LDA correlation
   AGGAC   =    1.0000 GGA correlation
   ENCUTFOCK=  -1.0 apply spherical cutoff to Coloumb kernel
   NBANDSGWLOW=     1    first orbital included in HF term
   NBLOCK_FOCK=    64    blocking factor in FOCK_ACC

 Linear response parameters
   LEPSILON=     F    determine dielectric tensor
   LRPA    =     F    only Hartree local field effects (RPA)
   LNABLA  =     F    use nabla operator in PAW spheres
   LVEL    =     F    velocity operator in full k-point grid
   CSHIFT  =0.1000    complex shift for real part using Kramers Kronig
   OMEGAMAX=  -1.0    maximum frequency
   DEG_THRESHOLD= 0.2000000E-02 threshold for treating states as degnerate
   RTIME   =   -0.100 relaxation time in fs
  (WPLASMAI=    0.000 imaginary part of plasma frequency in eV, 0.658/RTIME)
   DFIELD  = 0.0000000 0.0000000 0.0000000 field for delta impulse in time
 
  Optional k-point grid parameters
   LKPOINTS_OPT  =     F    use optional k-point grid
   KPOINTS_OPT_MODE=     1    mode for optional k-point grid
 
 Orbital magnetization related:
   ORBITALMAG=     F  switch on orbital magnetization
   LCHIMAG   =     F  perturbation theory with respect to B field
   DQ        =  0.001000  dq finite difference perturbation B field
   LLRAUG    =     F  two centre corrections for induced B field
   LBONE     =     F  B-component reconstruction in AE one-centre
   LVGVCALC  =     T  calculate vGv susceptibility
   LVGVAPPL  =     F  apply vGv susceptibility instead of pGv for G=0

 Random number generation:
   RANDOM_GENERATOR = DEFAULT
   PCG_SEED         = not used


--------------------------------------------------------------------------------------------------------


 Static calculation
 charge density and potential will be updated during run
 non-spin polarized calculation
 Conjugate gradient for all bands (Freysoldt, et al. PRB 79, 241103 (2009))
 preconditioned conjugated gradient                                        
 perform sub-space diagonalisation
    before iterative eigenvector-optimisation
 modified Broyden-mixing scheme, WC =      100.0
 initial mixing is a Kerker type mixing with AMIX =  0.4000 and BMIX =      1.0000
 Hartree-type preconditioning will be used
 using additional bands           105
 real space projection scheme for non local part
 use partial core corrections
 no Harris-corrections to forces 
 use gradient corrections 
 use of overlap-Matrix (Vanderbilt PP)
 Gauss-broadening in eV      SIGMA  =   0.05


--------------------------------------------------------------------------------------------------------


  energy-cutoff  :      450.00
  volume of cell :     1268.81
      direct lattice vectors                 reciprocal lattice vectors
     0.000000000 12.280473417  0.000000000     0.000000000  0.081430085 -0.019947423
     9.142702054  0.000000000  0.000000000     0.109376855 -0.000000000  0.000000000
     0.000000000 -2.768261773-11.300697718     0.000000000  0.000000000 -0.088490111

  length of vectors
    12.280473417  9.142702054 11.634820246     0.083837691  0.109376855  0.088490111


 
 k-points in units of 2pi/SCALE and weight: Automatic mesh                          
   0.00000000  0.00000000 -0.00000000       0.125
   0.00000000  0.04071504 -0.00997371       0.125
   0.05468843  0.00000000 -0.00000000       0.125
   0.05468843  0.04071504 -0.00997371       0.125
   0.00000000  0.00000000 -0.04424506       0.125
   0.00000000  0.04071504 -0.05421877       0.125
   0.05468843  0.00000000 -0.04424506       0.125
   0.05468843  0.04071504 -0.05421877       0.125
 
 k-points in reciprocal lattice and weights: Automatic mesh                          
   0.00000000  0.00000000  0.00000000       0.125
   0.50000000  0.00000000  0.00000000       0.125
   0.00000000  0.50000000  0.00000000       0.125
   0.50000000  0.50000000  0.00000000       0.125
   0.00000000  0.00000000  0.50000000       0.125
   0.50000000  0.00000000  0.50000000       0.125
   0.00000000  0.50000000  0.50000000       0.125
   0.50000000  0.50000000  0.50000000       0.125
 
 position of ions in fractional coordinates (direct lattice) 
   0.65966986  0.99965793  0.15652540
   0.65947135  0.99994231  0.65695185
   0.65966986  0.33367541  0.15652540
   0.65947135  0.33339102  0.65695185
   0.65885139  0.66666667  0.15649641
   0.65888488  0.66666667  0.65725114
   0.84469705  0.16666667  0.34651624
   0.84172716  0.16666667  0.84421369
   0.84111341  0.49986379  0.34310889
   0.84150970  0.49970353  0.84377932
   0.84111341  0.83346955  0.34310889
   0.84150970  0.83362980  0.84377932
   0.59294382  0.16666667  0.39714238
   0.59084495  0.16666667  0.89756138
   0.59186707  0.49971957  0.39771793
   0.59014056  0.50000049  0.89704278
   0.59186707  0.83361376  0.39771793
   0.59014056  0.83333285  0.89704278
   0.90953937  0.00008695  0.10397696
   0.90810845  0.99999735  0.60041610
   0.90953937  0.33324639  0.10397696
   0.90810845  0.33333598  0.60041610
   0.90964917  0.66666667  0.10315864
   0.90856808  0.66666667  0.60151854
   0.15912355  0.16666667  0.15919826
   0.15817751  0.16666667  0.65218156
   0.16006257  0.49933097  0.15790456
   0.15899385  0.49941284  0.65578680
   0.16006257  0.83400237  0.15790456
   0.15899385  0.83392049  0.65578680
   0.34114102  0.99982311  0.34391490
   0.34002123  0.00024854  0.84273670
   0.34114102  0.33351023  0.34391490
   0.34002123  0.33308479  0.84273670
   0.34232030  0.66666667  0.34329393
   0.34038685  0.66666667  0.84322049
   0.08589534  0.00461576  0.39623162
   0.09167034  0.00038715  0.89812388
   0.08589534  0.32871757  0.39623162
   0.09167034  0.33294618  0.89812388
   0.09179779  0.66666667  0.39804030
   0.09157614  0.66666667  0.89834576
   0.40873966  0.16666667  0.10246954
   0.40919631  0.16666667  0.60274234
   0.40945451  0.49974186  0.10227216
   0.40906521  0.49991829  0.60292105
   0.40945451  0.83359147  0.10227216
   0.40906521  0.83341504  0.60292105
   0.99647756  0.16666667  0.12014493
   0.99563613  0.16666667  0.62991903
   0.99720220  0.50014101  0.12716020
   0.99612914  0.49996172  0.62718848
   0.99720220  0.83319232  0.12716020
   0.99612914  0.83337161  0.62718848
   0.50449613  0.00045897  0.37282473
   0.50305687  0.00030056  0.87239070
   0.50449613  0.33287436  0.37282473
   0.50305687  0.33303277  0.87239070
   0.50466493  0.66666667  0.37314377
   0.50287256  0.66666667  0.87195978
   0.67452915  0.16666667  0.28030889
   0.67293331  0.16666667  0.78099022
   0.67129814  0.50127366  0.27942104
   0.67271232  0.50014284  0.78097955
   0.67129814  0.83205967  0.27942104
   0.67271232  0.83319050  0.78097955
   0.82484952  0.99457355  0.21701350
   0.82756983  0.99963185  0.71956657
   0.82484952  0.33875979  0.21701350
   0.82756983  0.33370149  0.71956657
   0.82689440  0.66666667  0.21886107
   0.82757010  0.66666667  0.71958544
   0.82461258  0.99613296  0.44658061
   0.83262691  0.99965705  0.94628100
   0.82461258  0.33720037  0.44658061
   0.83262691  0.33367628  0.94628100
   0.83015472  0.66666667  0.44554510
   0.83309737  0.66666667  0.94611764
   0.66768525  0.16666667  0.05373473
   0.66698847  0.16666667  0.55482048
   0.66616681  0.50064743  0.05314186
   0.66648518  0.50049918  0.55499492
   0.66616681  0.83268590  0.05314186
   0.66648518  0.83283416  0.55499492
   0.49668067  0.00042861  0.12689283
   0.49667089  0.99999942  0.62843033
   0.49668067  0.33290472  0.12689283
   0.49667089  0.33333392  0.62843033
   0.49612460  0.66666667  0.12633598
   0.49636781  0.66666667  0.62866777
   0.00390749  0.16666667  0.87223904
   0.00339818  0.50215896  0.37368828
   0.00416937  0.49993292  0.87307044
   0.00339818  0.83117437  0.37368828
   0.00416937  0.83340041  0.87307044
   0.17441018  0.99762295  0.28085179
   0.17245188  0.00004744  0.78030698
   0.17441018  0.33571038  0.28085179
   0.17245188  0.33328590  0.78030698
   0.17394229  0.66666667  0.28117686
   0.17242158  0.66666667  0.78053069
   0.32832678  0.16666667  0.22005698
   0.32729745  0.16666667  0.71941223
   0.32907498  0.50064153  0.21982069
   0.32802588  0.50030584  0.72030684
   0.32907498  0.83269180  0.21982069
   0.32802588  0.83302749  0.72030684
   0.33386118  0.16666667  0.44617638
   0.33220465  0.16666667  0.94576399
   0.33447199  0.50057613  0.44614619
   0.33219228  0.49981417  0.94584838
   0.33447199  0.83275720  0.44614619
   0.33219228  0.83351916  0.94584838
   0.16904370  0.00028269  0.05452935
   0.17029736  0.99762766  0.55400962
   0.16904370  0.33305064  0.05452935
   0.17029736  0.33570567  0.55400962
   0.16849507  0.66666667  0.05493625
   0.16922284  0.66666667  0.55479615
   0.99920600  0.16666667  0.36971450
 
 position of ions in cartesian coordinates  (Angst):
   9.13957459  7.66775489 -1.76884624
   9.14217465  6.28000575 -7.42401425
   3.05069481  7.66775489 -1.76884624
   3.04809475  6.28000575 -7.42401425
   6.09513470  7.65778392 -1.76851864
   6.09513470  6.27197506 -7.42739642
   1.52378368  9.41403204 -3.91587531
   1.52378368  7.99980347 -9.54020375
   4.57010566  9.37945568 -3.87736981
   4.56864052  7.99833547 -9.53529507
   7.62016374  9.37945568 -3.87736981
   7.62162888  7.99833547 -9.53529507
   1.52378368  6.18223673 -4.48798604
   1.52378368  4.77117085-10.14306980
   4.56878714  6.16742049 -4.49449013
   4.57135546  4.76395627-10.13720927
   7.62148226  6.16742049 -4.49449013
   7.61891394  4.76395627-10.13720927
   0.00079493 10.88173859 -1.17501219
   9.14267784  9.48989277 -6.78512084
   3.04677242 10.88173859 -1.17501219
   3.04759156  9.48989277 -6.78512084
   6.09513470 10.88535233 -1.16576456
   6.09513470  9.49248533 -6.79757917
   1.52378368  1.51341008 -1.79905139
   1.52378368  0.13708544 -7.37010661
   4.56523426  1.52852303 -1.78443172
   4.56598279  0.13713021 -7.41084836
   7.62503514  1.52852303 -1.78443172
   7.62428661  0.13713021 -7.41084836
   9.14108478  3.23732669 -3.88647837
   0.00227235  1.84270584 -9.52351273
   3.04918463  3.23732669 -3.88647837
   3.04529500  1.84270584 -9.52351273
   6.09513470  3.25352785 -3.87946097
   6.09513470  1.84585656 -9.52897988
   0.04220051 -0.04203736 -4.47769374
   0.00353964 -1.36048681-10.14942653
   3.00536684 -0.04203736 -4.47769374
   3.04402771 -1.36048681-10.14942653
   6.09513470  0.02544056 -4.49813311
   6.09513470 -1.36225791-10.15193392
   1.52378368  4.73585399 -1.15797734
   1.52378368  3.35657582 -6.81140898
   4.56899097  4.74517911 -1.15574678
   4.57060400  3.35447112 -6.81342849
   7.62127843  4.74517911 -1.15574678
   7.61966540  3.35447112 -6.81342849
   1.52378368 11.90462352 -1.35772149
   1.52378368 10.48310223 -7.11852449
   4.57264028 11.89410235 -1.43699897
   4.57100104 10.49671547 -7.08766748
   7.61762913 11.89410235 -1.43699897
   7.61926836 10.49671547 -7.08766748
   0.00419622  5.16337491 -4.21317962
   0.00274797  3.76277072 -9.85862356
   3.04337113  5.16337491 -4.21317962
   3.04481938  3.76277072 -9.85862356
   6.09513470  5.16456465 -4.21678496
   6.09513470  3.76170020 -9.85375395
   1.52378368  7.50756886 -3.16768604
   1.52378368  6.10195420 -8.82573440
   4.58299573  7.47034843 -3.15765275
   4.57265695  6.09926989 -8.82561377
   7.60727368  7.47034843 -3.15765275
   7.61761245  6.09926989 -8.82561377
   9.09308961  9.52879247 -2.45240397
   9.13933613  8.17100066 -8.13160430
   3.09717980  9.52879247 -2.45240397
   3.05093328  8.17100066 -8.13160430
   6.09513470  9.54879004 -2.47328275
   6.09513470  8.17095174 -8.13181749
   9.10734689  8.89038085 -5.04667242
   9.13956658  7.60549916-10.69363551
   3.08292251  8.89038085 -5.04667242
   3.05070282  7.60549916-10.69363551
   6.09513470  8.96130754 -5.03497049
   6.09513470  7.61172880-10.69178944
   1.52378368  8.05073921 -0.60723992
   1.52378368  6.65504589 -6.26985848
   4.57727031  8.03373328 -0.60054007
   4.57591486  6.64838229 -6.27182979
   7.61299910  8.03373328 -0.60054007
   7.61435455  6.64838229 -6.27182979
   0.00391870  5.74820115 -1.43397756
   9.14269673  4.35969400 -7.10170125
   3.04364866  5.74820115 -1.43397756
   3.04757268  4.35969400 -7.10170125
   6.09513470  5.74291391 -1.42768467
   6.09513470  4.35531469 -7.10438439
   1.52378368 -2.36660010 -9.85690971
   4.59108974 -0.99273569 -4.22293824
   4.57073774 -2.36568563 -9.86630511
   7.59917966 -0.99273569 -4.22293824
   7.61953167 -2.36568563 -9.86630511
   9.12096942  1.36436832 -3.17382117
   0.00043370 -0.04230322 -8.81801329
   3.06929998  1.36436832 -3.17382117
   3.04713365 -0.04230322 -8.81801329
   6.09513470  1.35772253 -3.17749465
   6.09513470 -0.04329464 -8.82054134
   1.52378368  3.42283292 -2.48679746
   1.52378368  2.02784625 -8.12986012
   4.57721635  3.43267539 -2.48412715
   4.57414727  2.03431521 -8.13996984
   7.61305305  3.43267539 -2.48412715
   7.61612214  2.03431521 -8.13996984
   1.52378368  2.86484036 -5.04210435
   1.52378368  1.46150812-10.68779296
   4.57661845  2.87242500 -5.04176319
   4.56965208  1.46112257-10.68874664
   7.61365096  2.87242500 -5.04176319
   7.62061733  1.46112257-10.68874664
   0.00258454  1.92498511 -0.61621969
   9.12101249  0.55768851 -6.26069528
   3.04498281  1.92498511 -0.61621969
   3.06925692  0.55768851 -6.26069528
   6.09513470  1.91712132 -0.62081790
   6.09513470  0.54231565 -6.26958356
   1.52378368 11.24725621 -4.17803184
 


--------------------------------------------------------------------------------------------------------


 k-point   1 :   0.0000 0.0000 0.0000  plane waves:   27533
 k-point   2 :   0.5000 0.0000 0.0000  plane waves:   27522
 k-point   3 :   0.0000 0.5000 0.0000  plane waves:   27488
 k-point   4 :   0.5000 0.5000 0.0000  plane waves:   27488
 k-point   5 :   0.0000 0.0000 0.5000  plane waves:   27482
 k-point   6 :   0.5000 0.0000 0.5000  plane waves:   27476
 k-point   7 :   0.0000 0.5000 0.5000  plane waves:   27468
 k-point   8 :   0.5000 0.5000 0.5000  plane waves:   27564

 maximum and minimum number of plane-waves per node :     27564    27468

 maximum number of plane-waves:     27564
 maximum index in each direction: 
   IXMAX=   21   IYMAX=   15   IZMAX=   20
   IXMIN=  -21   IYMIN=  -16   IZMIN=  -20


 serial   3D FFT for wavefunctions
 parallel 3D FFT for charge:
    minimum data exchange during FFTs selected (reduces bandwidth)


 FFT grid for exact exchange (Hartree Fock) 
  NGX = 48; NGY = 36; NGZ = 48

 
 Radii for the augmentation spheres in the non-local exchange
 for species   1 augmentation radius   1.392 (default was   1.031)
       energy cutoff for augmentation   1800.0
 for species   2 augmentation radius   0.974 (default was   0.722)
       energy cutoff for augmentation   1800.0
 for species   3 augmentation radius   0.957 (default was   0.709)
       energy cutoff for augmentation   1800.0
 Maximum index for augmentation-charges in exchange           745
  SETUP_FOCK is finished

 total amount of memory used by VASP MPI-rank0  7269073. kBytes
=======================================================================

   base      :      30000. kBytes
   nonlr-proj:      32968. kBytes
   fftplans  :      51012. kBytes
   grid      :     102973. kBytes
   one-center:       1866. kBytes
   HF        :        194. kBytes
   wavefun   :    7050060. kBytes
 
     INWAV:  cpu time      0.0001: real time      0.0001
 Broyden mixing: mesh for mixing (old mesh)
   NGX = 43   NGY = 31   NGZ = 41
  (NGX  =128   NGY  = 96   NGZ  =120)
  gives a total of  54653 points

 charge density for first step will be calculated from the start-wavefunctions


--------------------------------------------------------------------------------------------------------


 Maximum index for non-local projection operator          1721
 Maximum index for augmentation-charges          5357 (set IRDMAX)


--------------------------------------------------------------------------------------------------------


 initial charge from wavefunction
 First call to EWALD:  gamma=   0.164
 Maximum number of real-space cells 3x 3x 3
 Maximum number of reciprocal cells 3x 2x 3

    FEWALD:  cpu time      0.0739: real time      0.0739


--------------------------------------- Ionic step        1  -------------------------------------------




--------------------------------------- Iteration      1(   1)  ---------------------------------------


    POTLOK:  cpu time      0.0326: real time      0.0326
    SETDIJ:  cpu time      0.1210: real time      0.1210
    TRIAL :  cpu time      2.8868: real time      2.8960
    CORREC:  cpu time      0.0014: real time      0.0014
    --------------------------------------------
      LOOP:  cpu time      3.9983: real time      4.0073

 eigenvalue-minimisations  : 10632
 total energy-change (2. order) :-0.2123726E+05  (-0.5434016E+05)
 number of electron    1055.9999453 magnetization 
 augmentation part      122.2189203 magnetization 

 Free energy of the ion-electron system (eV)
  ---------------------------------------------------
  alpha Z        PSCENC =      5530.94812622
  Ewald energy   TEWEN  =    -88787.70406013
  -Hartree energ DENC   =     -2114.85245411
  -exchange      EXHF   =         0.00000000
  -V(xc)+E(xc)   XCENC  =      2806.62735595
  PAW double counting   =     59982.11220946   -91789.06797910
  entropy T*S    EENTRO =        -0.00876621
  eigenvalues    EBANDS =    -40558.04450354
  atomic energy  EATOM  =    133692.73004162
  ---------------------------------------------------
  free energy    TOTEN  =    -21237.26002983 eV

  energy without entropy =   -21237.25126362  energy(sigma->0) =   -21237.25564672
  exchange ACFDT corr.  =         0.00000000  see jH, gK, PRB 81, 115126


--------------------------------------------------------------------------------------------------------




--------------------------------------- Iteration      1(   2)  ---------------------------------------


    TRIAL :  cpu time      3.1505: real time      3.1501
    CORREC:  cpu time      0.0015: real time      0.0015
    --------------------------------------------
      LOOP:  cpu time      3.1523: real time      3.1525

 eigenvalue-minimisations  : 13616
 total energy-change (2. order) :-0.4414858E+05  (-0.4284578E+05)
 number of electron    1055.9999453 magnetization 
 augmentation part      122.2189203 magnetization 

 Free energy of the ion-electron system (eV)
  ---------------------------------------------------
  alpha Z        PSCENC =      5530.94812622
  Ewald energy   TEWEN  =    -88787.70406013
  -Hartree energ DENC   =     -2114.85245411
  -exchange      EXHF   =         0.00000000
  -V(xc)+E(xc)   XCENC  =      2806.62735595
  PAW double counting   =     59982.11220946   -91789.06797910
  entropy T*S    EENTRO =        -0.01938342
  eigenvalues    EBANDS =    -84706.60991697
  atomic energy  EATOM  =    133692.73004162
  ---------------------------------------------------
  free energy    TOTEN  =    -65385.83606047 eV

  energy without entropy =   -65385.81667705  energy(sigma->0) =   -65385.82636876
  exchange ACFDT corr.  =         0.00000000  see jH, gK, PRB 81, 115126


--------------------------------------------------------------------------------------------------------




--------------------------------------- Iteration      1(   3)  ---------------------------------------


    TRIAL :  cpu time      3.2954: real time      3.2950
    CORREC:  cpu time      0.0017: real time      0.0017
    --------------------------------------------
      LOOP:  cpu time      3.2975: real time      3.2973

 eigenvalue-minimisations  : 14440
 total energy-change (2. order) :-0.4561591E+04  (-0.4068471E+04)
 number of electron    1055.9999453 magnetization 
 augmentation part      122.2189203 magnetization 

 Free energy of the ion-electron system (eV)
  ---------------------------------------------------
  alpha Z        PSCENC =      5530.94812622
  Ewald energy   TEWEN  =    -88787.70406013
  -Hartree energ DENC   =     -2114.85245411
  -exchange      EXHF   =         0.00000000
  -V(xc)+E(xc)   XCENC  =      2806.62735595
  PAW double counting   =     59982.11220946   -91789.06797910
  entropy T*S    EENTRO =        -0.04654784
  eigenvalues    EBANDS =    -89268.17404269
  atomic energy  EATOM  =    133692.73004162
  ---------------------------------------------------
  free energy    TOTEN  =    -69947.42735061 eV

  energy without entropy =   -69947.38080277  energy(sigma->0) =   -69947.40407669
  exchange ACFDT corr.  =         0.00000000  see jH, gK, PRB 81, 115126


--------------------------------------------------------------------------------------------------------




--------------------------------------- Iteration      1(   4)  ---------------------------------------


    TRIAL :  cpu time      3.6626: real time      3.6621
    CORREC:  cpu time      0.0017: real time      0.0017
    --------------------------------------------
      LOOP:  cpu time      3.6646: real time      3.6643

 eigenvalue-minimisations  : 17080
 total energy-change (2. order) :-0.5414440E+03  (-0.4624783E+03)
 number of electron    1055.9999453 magnetization 
 augmentation part      122.2189203 magnetization 

 Free energy of the ion-electron system (eV)
  ---------------------------------------------------
  alpha Z        PSCENC =      5530.94812622
  Ewald energy   TEWEN  =    -88787.70406013
  -Hartree energ DENC   =     -2114.85245411
  -exchange      EXHF   =         0.00000000
  -V(xc)+E(xc)   XCENC  =      2806.62735595
  PAW double counting   =     59982.11220946   -91789.06797910
  entropy T*S    EENTRO =        -0.04615658
  eigenvalues    EBANDS =    -89809.61840826
  atomic energy  EATOM  =    133692.73004162
  ---------------------------------------------------
  free energy    TOTEN  =    -70488.87132492 eV

  energy without entropy =   -70488.82516834  energy(sigma->0) =   -70488.84824663
  exchange ACFDT corr.  =         0.00000000  see jH, gK, PRB 81, 115126


--------------------------------------------------------------------------------------------------------




--------------------------------------- Iteration      1(   5)  ---------------------------------------


    POTLOK:  cpu time      1.3325: real time      1.3323
    SETDIJ:  cpu time      0.4709: real time      0.4708
    TRIAL :  cpu time    234.9859: real time    234.9454
    CORREC:  cpu time      0.0016: real time      0.0016
    CHARGE:  cpu time      0.2056: real time      0.2056
    --------------------------------------------
      LOOP:  cpu time    236.9968: real time    236.9563

 eigenvalue-minimisations  : 19096
 total energy-change (2. order) : 0.3299186E+05  (-0.7728889E+02)
 number of electron    1055.9998808 magnetization 
 augmentation part      494.4815471 magnetization 

 Free energy of the ion-electron system (eV)
  ---------------------------------------------------
  alpha Z        PSCENC =      5530.94812622
  Ewald energy   TEWEN  =    -88787.70406013
  -Hartree energ DENC   =     -2114.85245411
  -exchange      EXHF   =      5152.81600148
  -V(xc)+E(xc)   XCENC  =      1860.64085438
  PAW double counting   =     60684.70079305   -62767.54273826
  entropy T*S    EENTRO =        -0.03830249
  eigenvalues    EBANDS =    -90748.71198496
  atomic energy  EATOM  =    133692.73004162
  ---------------------------------------------------
  free energy    TOTEN  =    -37497.01372318 eV

  energy without entropy =   -37496.97542069  energy(sigma->0) =   -37496.99457194
  exchange ACFDT corr.  =        -0.07581794  see jH, gK, PRB 81, 115126


--------------------------------------------------------------------------------------------------------




--------------------------------------- Iteration      1(   6)  ---------------------------------------


    POTLOK:  cpu time      1.4136: real time      1.4134
    SETDIJ:  cpu time      0.4667: real time      0.4666
    TRIAL :  cpu time    233.6450: real time    233.6060
    CORREC:  cpu time    236.5163: real time    236.4764
    CHARGE:  cpu time      0.2226: real time      0.2226
    --------------------------------------------
      LOOP:  cpu time    472.2661: real time    472.1871

 eigenvalue-minimisations  :     0
 total energy-change (2. order) : 0.5688145E+05  (-0.1578408E+05)
 number of electron    1055.9998946 magnetization 
 augmentation part      493.1926995 magnetization 

 Free energy of the ion-electron system (eV)
  ---------------------------------------------------
  alpha Z        PSCENC =      5530.94812622
  Ewald energy   TEWEN  =    -88787.70406013
  -Hartree energ DENC   =    -65829.96952016
  -exchange      EXHF   =      5283.25733434
  -V(xc)+E(xc)   XCENC  =      3581.40726858
  PAW double counting   =    144849.10550544  -169224.94765467
  entropy T*S    EENTRO =        -0.01139801
  eigenvalues    EBANDS =     50289.64890297
  atomic energy  EATOM  =    133692.73004162
  ---------------------------------------------------
  free energy    TOTEN  =     19384.43764173 eV

  energy without entropy =    19384.44903974  energy(sigma->0) =    19384.44334073
  exchange ACFDT corr.  =        -0.29982046  see jH, gK, PRB 81, 115126


--------------------------------------------------------------------------------------------------------




--------------------------------------- Iteration      1(   7)  ---------------------------------------


    POTLOK:  cpu time      1.5012: real time      1.5010
    SETDIJ:  cpu time      0.4679: real time      0.4678
    TRIAL :  cpu time    233.7143: real time    233.6798
    CORREC:  cpu time    235.7687: real time    235.7316
    CHARGE:  cpu time      0.2057: real time      0.2056
    --------------------------------------------
      LOOP:  cpu time    471.6603: real time    471.5887

 eigenvalue-minimisations  :     0
 total energy-change (2. order) :-0.1402996E+05  (-0.3591668E+04)
 number of electron    1055.9998897 magnetization 
 augmentation part      466.1974929 magnetization 

 Free energy of the ion-electron system (eV)
  ---------------------------------------------------
  alpha Z        PSCENC =      5530.94812622
  Ewald energy   TEWEN  =    -88787.70406013
  -Hartree energ DENC   =    -46415.21071977
  -exchange      EXHF   =      4697.31668558
  -V(xc)+E(xc)   XCENC  =      3118.17025069
  PAW double counting   =    127442.08460486  -147533.52523079
  entropy T*S    EENTRO =        -0.02673562
  eigenvalues    EBANDS =     13609.68178763
  atomic energy  EATOM  =    133692.73004162
  ---------------------------------------------------
  free energy    TOTEN  =      5354.48008790 eV

  energy without entropy =     5354.50682352  energy(sigma->0) =     5354.49345571
  exchange ACFDT corr.  =      -219.11941994  see jH, gK, PRB 81, 115126


--------------------------------------------------------------------------------------------------------




--------------------------------------- Iteration      1(   8)  ---------------------------------------


    POTLOK:  cpu time      1.4534: real time      1.4530
    SETDIJ:  cpu time      0.4686: real time      0.4685
    TRIAL :  cpu time    234.9842: real time    234.9452
    CORREC:  cpu time    237.1678: real time    237.1303
    CHARGE:  cpu time      0.2060: real time      0.2060
    --------------------------------------------
      LOOP:  cpu time    474.2803: real time    474.2107

 eigenvalue-minimisations  :     0
 total energy-change (2. order) :-0.4079689E+04  (-0.1020132E+04)
 number of electron    1055.9998836 magnetization 
 augmentation part      444.8725457 magnetization 

 Free energy of the ion-electron system (eV)
  ---------------------------------------------------
  alpha Z        PSCENC =      5530.94812622
  Ewald energy   TEWEN  =    -88787.70406013
  -Hartree energ DENC   =    -37105.04131558
  -exchange      EXHF   =      4357.34746713
  -V(xc)+E(xc)   XCENC  =      2869.24354290
  PAW double counting   =    124317.23851828  -141539.57031304
  entropy T*S    EENTRO =        -0.04493154
  eigenvalues    EBANDS =     -2060.37381281
  atomic energy  EATOM  =    133692.73004162
  ---------------------------------------------------
  free energy    TOTEN  =      1274.79145898 eV

  energy without entropy =     1274.83639052  energy(sigma->0) =     1274.81392475
  exchange ACFDT corr.  =      -157.01387695  see jH, gK, PRB 81, 115126


--------------------------------------------------------------------------------------------------------




--------------------------------------- Iteration      1(   9)  ---------------------------------------


    POTLOK:  cpu time      1.4692: real time      1.4690
    SETDIJ:  cpu time      0.4664: real time      0.4664
    TRIAL :  cpu time    234.4269: real time    234.3869
    CORREC:  cpu time    236.3247: real time    236.2847
    CHARGE:  cpu time      0.2084: real time      0.2084
    --------------------------------------------
      LOOP:  cpu time    472.8969: real time    472.8168

 eigenvalue-minimisations  :     0
 total energy-change (2. order) :-0.9197130E+03  (-0.4928968E+03)
 number of electron    1055.9998758 magnetization 
 augmentation part      441.0633732 magnetization 

 Free energy of the ion-electron system (eV)
  ---------------------------------------------------
  alpha Z        PSCENC =      5530.94812622
  Ewald energy   TEWEN  =    -88787.70406013
  -Hartree energ DENC   =    -33129.33368369
  -exchange      EXHF   =      4176.09434206
  -V(xc)+E(xc)   XCENC  =      2747.29247096
  PAW double counting   =    122316.64018800  -137675.15721153
  entropy T*S    EENTRO =        -0.04445373
  eigenvalues    EBANDS =     -8516.38678481
  atomic energy  EATOM  =    133692.73004162
  ---------------------------------------------------
  free energy    TOTEN  =       355.07849715 eV

  energy without entropy =      355.12295088  energy(sigma->0) =      355.10072402
  exchange ACFDT corr.  =       -56.71276831  see jH, gK, PRB 81, 115126


--------------------------------------------------------------------------------------------------------




--------------------------------------- Iteration      1(  10)  ---------------------------------------


    POTLOK:  cpu time      1.4839: real time      1.4841
    SETDIJ:  cpu time      0.4683: real time      0.4682
    TRIAL :  cpu time    234.5590: real time    234.5142
    CORREC:  cpu time    235.0043: real time    234.9629
    CHARGE:  cpu time      0.2104: real time      0.2104
    --------------------------------------------
      LOOP:  cpu time    471.7262: real time    471.6404

 eigenvalue-minimisations  :     0
 total energy-change (2. order) :-0.3156456E+03  (-0.5222444E+03)
 number of electron    1055.9998725 magnetization 
 augmentation part      445.9603313 magnetization 

 Free energy of the ion-electron system (eV)
  ---------------------------------------------------
  alpha Z        PSCENC =      5530.94812622
  Ewald energy   TEWEN  =    -88787.70406013
  -Hartree energ DENC   =    -32170.49179772
  -exchange      EXHF   =      4128.58569043
  -V(xc)+E(xc)   XCENC  =      2718.69938973
  PAW double counting   =    121281.79021091  -136148.34204467
  entropy T*S    EENTRO =        -0.01173247
  eigenvalues    EBANDS =    -10206.73818490
  atomic energy  EATOM  =    133692.73004162
  ---------------------------------------------------
  free energy    TOTEN  =        39.43291776 eV

  energy without entropy =       39.44465023  energy(sigma->0) =       39.43878400
  exchange ACFDT corr.  =       -83.94811220  see jH, gK, PRB 81, 115126


--------------------------------------------------------------------------------------------------------




--------------------------------------- Iteration      1(  11)  ---------------------------------------


    POTLOK:  cpu time      1.4787: real time      1.4788
    SETDIJ:  cpu time      0.4674: real time      0.4674
    TRIAL :  cpu time    233.2300: real time    233.1896
    CORREC:  cpu time    235.1939: real time    235.1514
    CHARGE:  cpu time      0.2035: real time      0.2034
    --------------------------------------------
[...]
   0.601E+01 0.534E+02 -.318E+02   -.573E+01 -.515E+02 0.332E+02   -.242E+00 -.171E+01 -.129E+01
   0.452E+01 0.558E+02 -.376E+02   -.438E+01 -.536E+02 0.395E+02   -.126E+00 -.194E+01 -.179E+01
   -.601E+01 0.534E+02 -.318E+02   0.573E+01 -.515E+02 0.332E+02   0.242E+00 -.171E+01 -.129E+01
   -.452E+01 0.558E+02 -.376E+02   0.438E+01 -.536E+02 0.395E+02   0.126E+00 -.194E+01 -.179E+01
   -.192E-04 -.202E+02 0.607E+01   0.280E-10 0.282E+02 -.677E+01   0.000E+00 -.671E+01 0.624E+00
   0.255E-03 -.220E+02 0.226E+02   0.801E-11 0.290E+02 -.283E+02   0.000E+00 -.595E+01 0.478E+01
   0.156E+01 -.206E+02 0.142E+02   -.175E+01 0.281E+02 -.175E+02   0.158E+00 -.630E+01 0.285E+01
   0.224E+01 -.212E+02 0.184E+02   -.243E+01 0.285E+02 -.226E+02   0.166E+00 -.615E+01 0.356E+01
   -.156E+01 -.206E+02 0.142E+02   0.175E+01 0.281E+02 -.175E+02   -.158E+00 -.630E+01 0.285E+01
   -.224E+01 -.212E+02 0.184E+02   0.243E+01 0.285E+02 -.226E+02   -.166E+00 -.615E+01 0.356E+01
   -.422E+01 0.237E+02 -.157E+02   0.444E+01 -.314E+02 0.194E+02   -.194E+00 0.651E+01 -.320E+01
   -.243E+01 0.185E+02 -.134E+02   0.251E+01 -.261E+02 0.172E+02   -.654E-01 0.638E+01 -.320E+01
   0.422E+01 0.237E+02 -.157E+02   -.444E+01 -.314E+02 0.194E+02   0.194E+00 0.651E+01 -.320E+01
   0.243E+01 0.185E+02 -.134E+02   -.251E+01 -.261E+02 0.172E+02   0.654E-01 0.638E+01 -.320E+01
   -.393E-04 0.193E+02 -.131E+02   0.317E-10 -.264E+02 0.168E+02   0.000E+00 0.603E+01 -.308E+01
   -.239E-05 0.168E+02 -.140E+02   0.320E-10 -.241E+02 0.179E+02   0.000E+00 0.619E+01 -.331E+01
   0.169E-03 0.524E+02 0.336E+02   0.789E-11 -.491E+02 -.290E+02   0.000E+00 -.277E+01 -.387E+01
   0.276E-04 0.612E+02 0.402E+02   0.250E-10 -.590E+02 -.355E+02   0.000E+00 -.191E+01 -.396E+01
   0.239E+01 0.631E+02 0.356E+02   -.256E+01 -.606E+02 -.310E+02   0.153E+00 -.217E+01 -.390E+01
   0.125E+01 0.596E+02 0.418E+02   -.133E+01 -.573E+02 -.373E+02   0.706E-01 -.196E+01 -.387E+01
   -.239E+01 0.631E+02 0.356E+02   0.256E+01 -.606E+02 -.310E+02   -.153E+00 -.217E+01 -.390E+01
   -.125E+01 0.596E+02 0.418E+02   0.133E+01 -.573E+02 -.373E+02   -.706E-01 -.196E+01 -.387E+01
   -.159E+02 -.728E+02 -.281E+02   0.175E+02 0.711E+02 0.220E+02   -.134E+01 0.140E+01 0.525E+01
   -.132E+01 -.737E+02 -.350E+02   0.151E+01 0.725E+02 0.306E+02   -.161E+00 0.102E+01 0.374E+01
   0.159E+02 -.728E+02 -.281E+02   -.175E+02 0.711E+02 0.220E+02   0.134E+01 0.140E+01 0.525E+01
   0.132E+01 -.737E+02 -.350E+02   -.151E+01 0.725E+02 0.306E+02   0.161E+00 0.102E+01 0.374E+01
   -.161E-03 -.708E+02 -.376E+02   0.113E-10 0.687E+02 0.327E+02   0.000E+00 0.182E+01 0.420E+01
   -.133E-03 -.711E+02 -.346E+02   0.643E-11 0.693E+02 0.300E+02   0.000E+00 0.153E+01 0.392E+01
   -.884E+01 0.123E+03 0.537E+02   0.981E+01 -.138E+03 -.491E+02   -.833E+00 0.123E+02 -.395E+01
   0.161E+00 0.119E+03 0.667E+02   -.616E-01 -.131E+03 -.640E+02   -.855E-01 0.105E+02 -.224E+01
   0.884E+01 0.123E+03 0.537E+02   -.981E+01 -.138E+03 -.491E+02   0.833E+00 0.123E+02 -.395E+01
   -.161E+00 0.119E+03 0.667E+02   0.616E-01 -.131E+03 -.640E+02   0.855E-01 0.105E+02 -.224E+01
   -.238E-03 0.118E+03 0.631E+02   0.751E-11 -.131E+03 -.592E+02   0.000E+00 0.110E+02 -.334E+01
   0.143E-04 0.118E+03 0.638E+02   0.115E-10 -.130E+03 -.605E+02   0.000E+00 0.105E+02 -.279E+01
   -.693E-05 -.124E+03 -.584E+02   0.717E-11 0.137E+03 0.544E+02   0.000E+00 -.107E+02 0.337E+01
   0.103E-03 -.115E+03 -.618E+02   0.319E-10 0.127E+03 0.586E+02   0.000E+00 -.102E+02 0.268E+01
   0.147E+01 -.123E+03 -.632E+02   -.164E+01 0.136E+03 0.592E+02   0.142E+00 -.105E+02 0.338E+01
   -.714E+00 -.117E+03 -.614E+02   0.700E+00 0.129E+03 0.582E+02   0.101E-01 -.103E+02 0.271E+01
   -.147E+01 -.123E+03 -.632E+02   0.164E+01 0.136E+03 0.592E+02   -.142E+00 -.105E+02 0.338E+01
   0.714E+00 -.117E+03 -.614E+02   -.700E+00 0.129E+03 0.582E+02   -.101E-01 -.103E+02 0.271E+01
   -.411E+01 -.178E+02 0.147E+02   0.421E+01 0.254E+02 -.185E+02   -.866E-01 -.643E+01 0.317E+01
   -.171E+01 -.162E+02 0.139E+02   0.171E+01 0.236E+02 -.179E+02   0.275E-02 -.624E+01 0.337E+01
   0.411E+01 -.178E+02 0.147E+02   -.421E+01 0.254E+02 -.185E+02   0.866E-01 -.643E+01 0.317E+01
   0.171E+01 -.162E+02 0.139E+02   -.171E+01 0.236E+02 -.179E+02   -.275E-02 -.624E+01 0.337E+01
   -.414E-04 -.152E+02 0.125E+02   0.266E-10 0.228E+02 -.162E+02   0.000E+00 -.642E+01 0.312E+01
   -.134E-04 -.154E+02 0.138E+02   0.360E-10 0.227E+02 -.178E+02   0.000E+00 -.610E+01 0.336E+01
   0.533E-04 0.150E+02 -.198E+02   0.669E-11 -.221E+02 0.240E+02   0.000E+00 0.602E+01 -.356E+01
   0.776E+01 0.592E+01 -.979E+01   -.901E+01 -.120E+02 0.130E+02   0.107E+01 0.514E+01 -.268E+01
   0.462E+00 0.161E+02 -.164E+02   -.603E+00 -.233E+02 0.203E+02   0.119E+00 0.609E+01 -.327E+01
   -.776E+01 0.592E+01 -.979E+01   0.901E+01 -.120E+02 0.130E+02   -.107E+01 0.514E+01 -.268E+01
   -.462E+00 0.161E+02 -.164E+02   0.603E+00 -.233E+02 0.203E+02   -.119E+00 0.609E+01 -.327E+01
   -.122E+01 0.818E+02 0.572E+02   0.125E+01 -.822E+02 -.553E+02   -.388E-01 0.341E+00 -.160E+01
   -.654E+01 0.722E+02 0.295E+02   0.726E+01 -.707E+02 -.241E+02   -.614E+00 -.129E+01 -.465E+01
   0.122E+01 0.818E+02 0.572E+02   -.125E+01 -.822E+02 -.553E+02   0.388E-01 0.341E+00 -.160E+01
   0.654E+01 0.722E+02 0.295E+02   -.726E+01 -.707E+02 -.241E+02   0.614E+00 -.129E+01 -.465E+01
   -.183E-03 0.710E+02 0.412E+02   0.123E-11 -.692E+02 -.367E+02   0.000E+00 -.153E+01 -.380E+01
   -.152E-03 0.725E+02 0.318E+02   0.932E-12 -.708E+02 -.266E+02   0.000E+00 -.142E+01 -.444E+01
   0.349E-04 -.610E+02 -.354E+02   0.808E-11 0.587E+02 0.305E+02   0.000E+00 0.193E+01 0.415E+01
   0.112E-03 -.567E+02 -.397E+02   0.138E-10 0.541E+02 0.352E+02   0.000E+00 0.222E+01 0.378E+01
   0.267E+01 -.607E+02 -.368E+02   -.288E+01 0.584E+02 0.319E+02   0.180E+00 0.191E+01 0.412E+01
   0.817E+00 -.597E+02 -.401E+02   -.784E+00 0.574E+02 0.356E+02   -.303E-01 0.192E+01 0.380E+01
   -.267E+01 -.607E+02 -.368E+02   0.288E+01 0.584E+02 0.319E+02   -.180E+00 0.191E+01 0.412E+01
   -.817E+00 -.597E+02 -.401E+02   0.784E+00 0.574E+02 0.356E+02   0.303E-01 0.192E+01 0.380E+01
   0.126E-03 0.127E+03 0.587E+02   0.135E-10 -.139E+03 -.550E+02   0.000E+00 0.106E+02 -.316E+01
   0.373E-04 0.122E+03 0.629E+02   0.865E-11 -.135E+03 -.594E+02   0.000E+00 0.105E+02 -.289E+01
   0.202E+01 0.126E+03 0.602E+02   -.197E+01 -.138E+03 -.564E+02   -.452E-01 0.105E+02 -.317E+01
   0.141E+01 0.124E+03 0.626E+02   -.149E+01 -.137E+03 -.591E+02   0.695E-01 0.106E+02 -.297E+01
   -.202E+01 0.126E+03 0.602E+02   0.197E+01 -.138E+03 -.564E+02   0.452E-01 0.105E+02 -.317E+01
   -.141E+01 0.124E+03 0.626E+02   0.149E+01 -.137E+03 -.591E+02   -.695E-01 0.106E+02 -.297E+01
   -.285E+01 -.119E+03 -.606E+02   0.336E+01 0.131E+03 0.567E+02   -.435E+00 -.106E+02 0.337E+01
   0.509E+00 -.123E+03 -.848E+02   -.698E+00 0.136E+03 0.848E+02   0.152E+00 -.110E+02 0.750E-03
   0.285E+01 -.119E+03 -.606E+02   -.336E+01 0.131E+03 0.567E+02   0.435E+00 -.106E+02 0.337E+01
   -.509E+00 -.123E+03 -.848E+02   0.698E+00 0.136E+03 0.848E+02   -.152E+00 -.110E+02 0.750E-03
   -.707E-04 -.116E+03 -.614E+02   0.398E-12 0.128E+03 0.575E+02   0.000E+00 -.105E+02 0.330E+01
   -.200E-03 -.120E+03 -.677E+02   0.542E-11 0.133E+03 0.645E+02   0.000E+00 -.108E+02 0.270E+01
   0.388E-03 0.262E+01 -.191E+02   0.574E-11 -.660E+01 0.230E+02   0.000E+00 0.360E+01 -.360E+01
 -----------------------------------------------------------------------------------------------
   0.349E-03 -.287E+01 0.510E+01   -.151E-13 0.253E-12 -.739E-12   -.222E-15 0.282E+01 -.496E+01
 
 
 POSITION                                       TOTAL-FORCE (eV/Angst)
 -----------------------------------------------------------------------------------
      9.13957      7.66775     -1.76885        -0.002143      0.125270     -0.018485
      9.14217      6.28001     -7.42401         0.002698      0.082114      0.019631
      3.05069      7.66775     -1.76885         0.002143      0.125270     -0.018485
      3.04809      6.28001     -7.42401        -0.002698      0.082114      0.019631
      6.09513      7.65778     -1.76852         0.000000      0.069468     -0.014821
      6.09513      6.27198     -7.42740         0.000000      0.073217      0.019737
      1.52378      9.41403     -3.91588         0.000000     -0.008896     -0.032894
      1.52378      7.99980     -9.54020         0.000000     -0.059974     -0.026682
      4.57011      9.37946     -3.87737        -0.027658     -0.076675      0.005862
      4.56864      7.99834     -9.53530        -0.012506     -0.069513     -0.017706
      7.62016      9.37946     -3.87737         0.027658     -0.076675      0.005862
      7.62163      7.99834     -9.53530         0.012506     -0.069513     -0.017706
      1.52378      6.18224     -4.48799         0.000000     -0.021948      0.011381
      1.52378      4.77117    -10.14307         0.000000     -0.018858      0.003876
      4.56879      6.16742     -4.49449         0.004552     -0.020193      0.024909
      4.57136      4.76396    -10.13721         0.002695     -0.015661     -0.002972
      7.62148      6.16742     -4.49449        -0.004552     -0.020193      0.024909
      7.61891      4.76396    -10.13721        -0.002695     -0.015661     -0.002972
      0.00079     10.88174     -1.17501         0.005117      0.023291     -0.010292
      9.14268      9.48989     -6.78512         0.001512      0.003097     -0.019136
      3.04677     10.88174     -1.17501        -0.005117      0.023291     -0.010292
      3.04759      9.48989     -6.78512        -0.001512      0.003097     -0.019136
      6.09513     10.88535     -1.16576         0.000000      0.024295     -0.022534
      6.09513      9.49249     -6.79758         0.000000      0.021009     -0.007545
      1.52378      1.51341     -1.79905         0.000000      0.052647      0.014889
      1.52378      0.13709     -7.37011         0.000000      0.059793      0.052827
      4.56523      1.52852     -1.78443        -0.025304      0.065457     -0.022696
      4.56598      0.13713     -7.41085        -0.024142      0.080968      0.045297
      7.62504      1.52852     -1.78443         0.025304      0.065457     -0.022696
      7.62429      0.13713     -7.41085         0.024142      0.080968      0.045297
      9.14108      3.23733     -3.88648         0.005075     -0.107739     -0.010681
      0.00227      1.84271     -9.52351         0.001040     -0.087780      0.002024
      3.04918      3.23733     -3.88648        -0.005075     -0.107739     -0.010681
      3.04530      1.84271     -9.52351        -0.001040     -0.087780      0.002024
      6.09513      3.25353     -3.87946         0.000000     -0.074397     -0.014016
      6.09513      1.84586     -9.52898         0.000000     -0.072488      0.006334
      0.04220     -0.04204     -4.47769        -0.000520     -0.013061      0.006131
      0.00354     -1.36049    -10.14943         0.007887     -0.027095      0.018182
      3.00537     -0.04204     -4.47769         0.000520     -0.013061      0.006131
      3.04403     -1.36049    -10.14943        -0.007887     -0.027095      0.018182
      6.09513      0.02544     -4.49813         0.000000     -0.046677      0.013980
      6.09513     -1.36226    -10.15193         0.000000     -0.025249      0.016559
      1.52378      4.73585     -1.15798         0.000000      0.025303     -0.020440
      1.52378      3.35658     -6.81141         0.000000      0.023146     -0.002693
      4.56899      4.74518     -1.15575         0.007487      0.018651     -0.024309
      4.57060      3.35447     -6.81343         0.005034      0.025568     -0.005988
      7.62128      4.74518     -1.15575        -0.007487      0.018651     -0.024309
      7.61967      3.35447     -6.81343        -0.005034      0.025568     -0.005988
      1.52378     11.90462     -1.35772         0.000000     -0.197291      0.038758
      1.52378     10.48310     -7.11852         0.000000     -0.180877      0.180330
      4.57264     11.89410     -1.43700         0.004160     -0.191334      0.115112
      4.57100     10.49672     -7.08767         0.005175     -0.187466      0.144143
      7.61763     11.89410     -1.43700        -0.004160     -0.191334      0.115112
      7.61927     10.49672     -7.08767        -0.005175     -0.187466      0.144143
      0.00420      5.16337     -4.21318        -0.008911      0.201910     -0.128631
      0.00275      3.76277     -9.85862        -0.002903      0.189702     -0.121837
      3.04337      5.16337     -4.21318         0.008911      0.201910     -0.128631
      3.04482      3.76277     -9.85862         0.002903      0.189702     -0.121837
      6.09513      5.16456     -4.21678         0.000000      0.183940     -0.124479
      6.09513      3.76170     -9.85375         0.000000      0.179822     -0.127815
      1.52378      7.50757     -3.16769         0.000000     -0.085569     -0.122281
      1.52378      6.10195     -8.82573         0.000000     -0.050925     -0.126458
      4.58300      7.47035     -3.15765         0.005638     -0.062021     -0.120262
      4.57266      6.09927     -8.82561         0.002892     -0.054446     -0.121731
      7.60727      7.47035     -3.15765        -0.005638     -0.062021     -0.120262
      7.61761      6.09927     -8.82561        -0.002892     -0.054446     -0.121731
      9.09309      9.52879     -2.45240        -0.053318      0.023512      0.183515
      9.13934      8.17100     -8.13160        -0.002856      0.012433      0.113329
      3.09718      9.52879     -2.45240         0.053318      0.023512      0.183515
      3.05093      8.17100     -8.13160         0.002856      0.012433      0.113329
      6.09513      9.54879     -2.47328         0.000000      0.049698      0.135460
      6.09513      8.17095     -8.13182         0.000000      0.035593      0.118332
      9.10735      8.89038     -5.04667        -0.017447      0.499295     -0.127742
      9.13957      7.60550    -10.69364        -0.004581      0.426749     -0.051170
      3.08292      8.89038     -5.04667         0.017447      0.499295     -0.127742
      3.05070      7.60550    -10.69364         0.004581      0.426749     -0.051170
      6.09513      8.96131     -5.03497         0.000000      0.452716     -0.095286
      6.09513      7.61173    -10.69179         0.000000      0.430994     -0.072051
      1.52378      8.05074     -0.60724         0.000000     -0.439857      0.108558
      1.52378      6.65505     -6.26986         0.000000     -0.414413      0.063515
      4.57727      8.03373     -0.60054         0.002568     -0.425853      0.099048
      4.57591      6.64838     -6.27183        -0.003832     -0.415773      0.066065
      7.61300      8.03373     -0.60054        -0.002568     -0.425853      0.099048
      7.61435      6.64838     -6.27183         0.003832     -0.415773      0.066065
      0.00392      5.74820     -1.43398        -0.003552     -0.198734      0.124977
      9.14270      4.35969     -7.10170        -0.000326     -0.186723      0.129921
      3.04365      5.74820     -1.43398         0.003552     -0.198734      0.124977
      3.04757      4.35969     -7.10170         0.000326     -0.186723      0.129921
      6.09513      5.74291     -1.42768         0.000000     -0.197944      0.126726
      6.09513      4.35531     -7.10438         0.000000     -0.178778      0.123955
      1.52378     -2.36660     -9.85691         0.000000      0.186340     -0.139385
      4.59109     -0.99274     -4.22294         0.044657      0.135523     -0.106384
      4.57074     -2.36569     -9.86631         0.003509      0.186037     -0.128679
      7.59918     -0.99274     -4.22294        -0.044657      0.135523     -0.106384
      7.61953     -2.36569     -9.86631        -0.003509      0.186037     -0.128679
      9.12097      1.36437     -3.17382        -0.001286      0.044272     -0.016772
      0.00043     -0.04230     -8.81801        -0.025588     -0.021007     -0.148878
      3.06930      1.36437     -3.17382         0.001286      0.044272     -0.016772
      3.04713     -0.04230     -8.81801         0.025588     -0.021007     -0.148878
      6.09513      1.35772     -3.17749         0.000000     -0.028957     -0.110630
      6.09513     -0.04329     -8.82054         0.000000     -0.029829     -0.143502
      1.52378      3.42283     -2.48680         0.000000      0.050123      0.132201
      1.52378      2.02785     -8.12986         0.000000      0.056257      0.121071
      4.57722      3.43268     -2.48413         0.002392      0.047411      0.131599
      4.57415      2.03432     -8.13997        -0.004909      0.045168      0.120574
      7.61305      3.43268     -2.48413        -0.002392      0.047411      0.131599
      7.61612      2.03432     -8.13997         0.004909      0.045168      0.120574
      1.52378      2.86484     -5.04210         0.000000      0.432111     -0.090472
      1.52378      1.46151    -10.68779         0.000000      0.426149     -0.076647
      4.57662      2.87243     -5.04176        -0.003957      0.425674     -0.088437
      4.56965      1.46112    -10.68875         0.002856      0.428683     -0.078053
      7.61365      2.87243     -5.04176         0.003957      0.425674     -0.088437
      7.62062      1.46112    -10.68875        -0.002856      0.428683     -0.078053
      0.00258      1.92499     -0.61622        -0.021171     -0.423395      0.097912
      9.12101      0.55769     -6.26070         0.011528     -0.463093     -0.041362
      3.04498      1.92499     -0.61622         0.021171     -0.423395      0.097912
      3.06926      0.55769     -6.26070        -0.011528     -0.463093     -0.041362
      6.09513      1.91712     -0.62082         0.000000     -0.422982      0.095396
      6.09513      0.54232     -6.26958         0.000000     -0.445131      0.059019
      1.52378     11.24726     -4.17803         0.000000      0.081966     -0.144333
 -----------------------------------------------------------------------------------
    total drift:                                0.000349      0.008110     -0.073466


--------------------------------------------------------------------------------------------------------



  FREE ENERGIE OF THE ION-ELECTRON SYSTEM (eV)
  ---------------------------------------------------
  free  energy   TOTEN  =      -982.50674386 eV

  energy  without entropy=     -982.50674386  energy(sigma->0) =     -982.50674386
 


--------------------------------------------------------------------------------------------------------


    POTLOK:  cpu time      1.9747: real time      1.9864


--------------------------------------------------------------------------------------------------------


 writing wavefunctions
     LOOP+:  cpu time  15656.3275: real time  15655.8896
    4ORBIT:  cpu time      0.0000: real time      0.0000

 total amount of memory used by VASP MPI-rank0  7512491. kBytes
=======================================================================

   base      :      30000. kBytes
   nonlr-proj:      47116. kBytes
   fftplans  :      51012. kBytes
   grid      :     102973. kBytes
   one-center:       1866. kBytes
   HF        :        194. kBytes
   wavefun   :    7050060. kBytes
   fock_wrk  :     229270. kBytes
 
  
  
 General timing and accounting informations for this job:
 ========================================================
  
                  Total CPU time used (sec):    15688.156
                            User time (sec):    15671.626
                          System time (sec):       16.530
                         Elapsed time (sec):    15689.666
  
                   Maximum memory used (kb):    13304640.
                   Average memory used (kb):          N/A
  
                          Minor page faults:      8093055
                          Major page faults:            5
                 Voluntary context switches:       304696
