 running    4 mpi-ranks, on    1 nodes
 distrk:  each k-point on    1 cores,    4 groups
 distr:  one band on    1 cores,    1 groups
 OpenACC runtime initialized ...    4 GPUs detected
 vasp.6.4.2 20Jul23 (build Nov 12 2023 22:16:35) complex                         
 POSCAR found type information on POSCAR GaO P 
 POSCAR found :  3 types and     119 ions
 scaLAPACK will be used selectively (only on CPU)
 LDA part: xc-table for Pade appr. of Perdew
 POSCAR, INCAR and KPOINTS ok, starting setup
 FFT: planning ... GRIDC
 FFT: planning ... GRID_SOFT
 FFT: planning ... GRID
 WAVECAR not read
 initial charge from wavefunction
 entering main loop
       N       E                     dE             d eps       ncg     rms          ort
DAV:   1    -0.184337701900E+05   -0.18434E+05   -0.54298E+05  5000   0.750E+03
DAV:   2    -0.629357426649E+05   -0.44502E+05   -0.42982E+05  5000   0.123E+03
DAV:   3    -0.680236268950E+05   -0.50879E+04   -0.46175E+04  5000   0.377E+02
DAV:   4    -0.687256481516E+05   -0.70202E+03   -0.63577E+03  5000   0.118E+02
DAV:   5    -0.391379452269E+05    0.29588E+05   -0.68930E+02  5000   0.577E+01
 gam= 0.000 g(H,U,f)=  0.777E+05 0.128E+05 0.522E+04 ort(H,U,f) = 0.000E+00 0.000E+00 0.000E+00
SDA:   6     0.302098754019E+05    0.69348E+05   -0.68930E+02  5000   0.957E+05 0.000E+00
 gam= 0.000 trial= 0.400  step= 0.480 mean= 0.400
 gam= 0.544 g(H,U,f)=  0.344E+05 0.141E+05 0.364E+04 ort(H,U,f) =-0.107E+05-0.774E+04-0.297E+04
CGA:   7     0.102208903460E+05   -0.19989E+05   -0.22952E+05  5000   0.521E+05-0.214E+05
 gam= 0.544 trial= 0.404  step= 0.260 mean= 0.404
 gam= 0.447 g(H,U,f)=  0.157E+05 0.696E+04 0.578E+03 ort(H,U,f) =-0.518E+03-0.127E+04-0.124E+04
CGA:   8     0.497881670729E+04   -0.52421E+04   -0.52662E+04  5000   0.233E+05-0.303E+04
 gam= 0.447 trial= 0.397  step= 0.259 mean= 0.397
 gam= 0.496 g(H,U,f)=  0.804E+04 0.332E+04 0.181E+03 ort(H,U,f) = 0.263E+04-0.404E+03-0.976E+02
CGA:   9     0.282130044207E+04   -0.21575E+04   -0.28353E+04  5000   0.115E+05 0.213E+04
 gam= 0.496 trial= 0.390  step= 0.289 mean= 0.390
 gam= 0.372 g(H,U,f)=  0.384E+04 0.442E+03 0.101E+02 ort(H,U,f) = 0.958E+03 0.578E+03 0.735E+01
CGA:  10     0.126460743289E+04   -0.15567E+04   -0.18207E+04  5000   0.429E+04 0.154E+04
 gam= 0.372 trial= 0.385  step= 0.467 mean= 0.385
 gam= 0.381 g(H,U,f)=  0.150E+04 0.133E+03 0.110E+01 ort(H,U,f) = 0.271E+03 0.168E+03-0.855E+00
CGA:  11     0.980091667402E+02   -0.11666E+04   -0.11358E+04  5000   0.164E+04 0.437E+03
 gam= 0.381 trial= 0.389  step= 0.577 mean= 0.389
 gam= 0.502 g(H,U,f)=  0.711E+03 0.110E+03 0.512E+00 ort(H,U,f) =-0.824E+02 0.141E+03 0.821E+00
CGA:  12    -0.431008961586E+03   -0.52902E+03   -0.52003E+03  5000   0.821E+03 0.594E+02
 gam= 0.502 trial= 0.398  step= 0.639 mean= 0.398
 gam= 0.523 g(H,U,f)=  0.373E+03 0.552E+02 0.961E+00 ort(H,U,f) =-0.156E+03 0.128E+03 0.271E+01
CGA:  13    -0.701322444078E+03   -0.27031E+03   -0.27173E+03  5000   0.429E+03-0.255E+02
 gam= 0.523 trial= 0.410  step= 0.598 mean= 0.410
 gam= 0.526 g(H,U,f)=  0.201E+03 0.228E+02 0.217E+01 ort(H,U,f) =-0.522E+02 0.239E+02 0.512E+01
CGA:  14    -0.822657263079E+03   -0.12133E+03   -0.12441E+03  5000   0.226E+03-0.232E+02
 gam= 0.526 trial= 0.420  step= 0.512 mean= 0.420
 gam= 0.476 g(H,U,f)=  0.894E+02 0.172E+02 0.981E+00 ort(H,U,f) = 0.829E+01-0.896E+01 0.173E+01
CGA:  15    -0.877805445475E+03   -0.55148E+02   -0.54723E+02  5000   0.108E+03 0.106E+01
 gam= 0.476 trial= 0.424  step= 0.509 mean= 0.424
 gam= 0.558 g(H,U,f)=  0.423E+02 0.145E+02 0.331E+01 ort(H,U,f) = 0.101E+01 0.350E+01 0.676E+01
CGA:  16    -0.905974917732E+03   -0.28169E+02   -0.27515E+02  5000   0.601E+02 0.113E+02
 gam= 0.558 trial= 0.429  step= 0.526 mean= 0.429
 gam= 0.611 g(H,U,f)=  0.280E+02 0.865E+01 0.579E-03 ort(H,U,f) =-0.452E+01 0.751E+01 0.551E-02
CGA:  17    -0.923636030874E+03   -0.17661E+02   -0.17468E+02  5000   0.367E+02 0.299E+01
 gam= 0.611 trial= 0.434  step= 0.582 mean= 0.434
 gam= 0.584 g(H,U,f)=  0.174E+02 0.398E+01 0.807E-21 ort(H,U,f) =-0.727E+01 0.568E+01 0.254E-20
CGA:  18    -0.934655938643E+03   -0.11020E+02   -0.11202E+02  5000   0.214E+02-0.159E+01
 gam= 0.584 trial= 0.441  step= 0.524 mean= 0.441
 gam= 0.591 g(H,U,f)=  0.104E+02 0.226E+01 0.292E-12 ort(H,U,f) =-0.239E+01 0.228E+01 0.222E-11
CGA:  19    -0.940010197658E+03   -0.53543E+01   -0.53633E+01  5000   0.126E+02-0.107E+00
 gam= 0.591 trial= 0.445  step= 0.528 mean= 0.445
 gam= 0.577 g(H,U,f)=  0.601E+01 0.129E+01 0.127E-17 ort(H,U,f) =-0.784E+00 0.924E+00 0.847E-17
CGA:  20    -0.943340545975E+03   -0.33303E+01   -0.33251E+01  5000   0.729E+01 0.140E+00
 gam= 0.577 trial= 0.449  step= 0.503 mean= 0.449
 gam= 0.513 g(H,U,f)=  0.314E+01 0.606E+00 0.277E-18 ort(H,U,f) =-0.257E+00 0.385E+00 0.894E-18
CGA:  21    -0.945200130686E+03   -0.18596E+01   -0.18554E+01  5000   0.374E+01 0.128E+00
 gam= 0.513 trial= 0.452  step= 0.517 mean= 0.452
 gam= 0.631 g(H,U,f)=  0.200E+01 0.365E+00 0.119E-10 ort(H,U,f) =-0.129E+00 0.179E+00-0.728E-11
CGA:  22    -0.946186313731E+03   -0.98618E+00   -0.98419E+00  5000   0.236E+01 0.499E-01
 gam= 0.631 trial= 0.455  step= 0.494 mean= 0.455
 gam= 0.515 g(H,U,f)=  0.974E+00 0.243E+00 0.711E-15 ort(H,U,f) =-0.153E+00 0.166E+00 0.458E-14
CGA:  23    -0.946778236668E+03   -0.59192E+00   -0.59165E+00  5000   0.122E+01 0.125E-01
 gam= 0.515 trial= 0.457  step= 0.492 mean= 0.457
 gam= 0.562 g(H,U,f)=  0.538E+00 0.146E+00 0.320E-16 ort(H,U,f) =-0.170E+00 0.172E+00 0.902E-16
CGA:  24    -0.947078976174E+03   -0.30074E+00   -0.30073E+00  5000   0.684E+00 0.158E-02
 gam= 0.562 trial= 0.459  step= 0.572 mean= 0.459
 gam= 0.613 g(H,U,f)=  0.349E+00 0.698E-01 0.312E-14 ort(H,U,f) =-0.104E+00 0.104E+00-0.207E-13
CGA:  25    -0.947274798042E+03   -0.19582E+00   -0.19585E+00  5000   0.419E+00 0.122E-03
 gam= 0.613 trial= 0.465  step= 0.542 mean= 0.465
 gam= 0.510 g(H,U,f)=  0.180E+00 0.332E-01 0.518E-22 ort(H,U,f) =-0.352E-01 0.355E-01 0.857E-21
CGA:  26    -0.947388487732E+03   -0.11369E+00   -0.11368E+00  5000   0.214E+00 0.374E-03
 gam= 0.510 trial= 0.468  step= 0.558 mean= 0.468
 gam= 0.613 g(H,U,f)=  0.108E+00 0.227E-01 0.160E-14 ort(H,U,f) =-0.942E-02 0.951E-02 0.382E-15
CGA:  27    -0.947448123947E+03   -0.59636E-01   -0.59634E-01  5000   0.131E+00 0.872E-04
 gam= 0.613 trial= 0.473  step= 0.555 mean= 0.473
 gam= 0.580 g(H,U,f)=  0.614E-01 0.146E-01 0.590E-18 ort(H,U,f) =-0.465E-02 0.465E-02-0.234E-17
CGA:  28    -0.947484465702E+03   -0.36342E-01   -0.36344E-01  5000   0.760E-01 0.352E-05
 gam= 0.580 trial= 0.477  step= 0.484 mean= 0.477
 gam= 0.526 g(H,U,f)=  0.309E-01 0.903E-02 0.547E-14 ort(H,U,f) =-0.414E-02 0.424E-02-0.417E-14
CGA:  29    -0.947502868322E+03   -0.18403E-01   -0.18402E-01  5000   0.400E-01 0.984E-04
 gam= 0.526 trial= 0.477  step= 0.541 mean= 0.477
 gam= 0.637 g(H,U,f)=  0.196E-01 0.586E-02 0.294E-13 ort(H,U,f) =-0.417E-02 0.429E-02 0.158E-13
CGA:  30    -0.947513695323E+03   -0.10827E-01   -0.10823E-01  5000   0.254E-01 0.119E-03
 gam= 0.637 trial= 0.481  step= 0.547 mean= 0.481
 gam= 0.558 g(H,U,f)=  0.113E-01 0.292E-02 0.273E-14 ort(H,U,f) =-0.347E-02 0.354E-02 0.560E-14
CGA:  31    -0.947520682960E+03   -0.69876E-02   -0.69848E-02  5000   0.142E-01 0.796E-04
 gam= 0.558 trial= 0.484  step= 0.565 mean= 0.484
 gam= 0.585 g(H,U,f)=  0.703E-02 0.127E-02 0.694E-16 ort(H,U,f) =-0.156E-02 0.158E-02 0.423E-15
CGA:  32    -0.947524710132E+03   -0.40272E-02   -0.40262E-02  5000   0.830E-02 0.211E-04
 gam= 0.585 trial= 0.488  step= 0.593 mean= 0.488
 gam= 0.614 g(H,U,f)=  0.439E-02 0.711E-03 0.221E-17 ort(H,U,f) =-0.320E-03 0.316E-03-0.660E-16
CGA:  33    -0.947527174030E+03   -0.24639E-02   -0.24641E-02  5000   0.510E-02-0.368E-05
 gam= 0.614 trial= 0.493  step= 0.534 mean= 0.493
 gam= 0.553 g(H,U,f)=  0.233E-02 0.481E-03 0.242E-15 ort(H,U,f) =-0.326E-04 0.315E-04-0.140E-14
CGA:  34    -0.947528535153E+03   -0.13611E-02   -0.13611E-02  5000   0.282E-02-0.110E-05
 gam= 0.553 trial= 0.495  step= 0.519 mean= 0.495
 gam= 0.606 g(H,U,f)=  0.134E-02 0.369E-03 0.865E-14 ort(H,U,f) =-0.116E-03 0.120E-03-0.167E-13
CGA:  35    -0.947529265234E+03   -0.73008E-03   -0.73003E-03  5000   0.171E-02 0.433E-05
 gam= 0.606 trial= 0.496  step= 0.527 mean= 0.496
 gam= 0.585 g(H,U,f)=  0.766E-03 0.232E-03 0.912E-15 ort(H,U,f) =-0.184E-03 0.187E-03 0.308E-14
CGA:  36    -0.947529715391E+03   -0.45016E-03   -0.45011E-03  5000   0.998E-03 0.292E-05
 gam= 0.585 trial= 0.498  step= 0.541 mean= 0.498
 gam= 0.000 g(H,U,f)=  0.468E-03 0.121E-03 0.347E-15 ort(H,U,f) =-0.142E-03 0.138E-03 0.292E-14
SDA:  37    -0.947529985996E+03   -0.27060E-03   -0.27068E-03  5000   0.589E-03-0.359E-05
 gam= 0.000 trial= 0.500  step= 0.938 mean= 0.500
 gam= 0.489 g(H,U,f)=  0.240E-03 0.484E-04 0.133E-21 ort(H,U,f) =-0.765E-04 0.695E-04 0.243E-21
CGA:  38    -0.947530260650E+03   -0.27465E-03   -0.27619E-03  5000   0.288E-03-0.703E-05
 gam= 0.489 trial= 0.522  step= 0.608 mean= 0.522
 gam= 0.383 g(H,U,f)=  0.940E-04 0.162E-04 0.373E-20 ort(H,U,f) =-0.481E-04 0.476E-04 0.116E-19
CGA:  39    -0.947530347096E+03   -0.86445E-04   -0.86465E-04  5000   0.110E-03-0.454E-06
 gam= 0.383 trial= 0.526  step= 0.570 mean= 0.526
 gam= 0.396 g(H,U,f)=  0.391E-04 0.451E-05 0.584E-19 ort(H,U,f) =-0.164E-04 0.172E-04 0.215E-18
CGA:  40    -0.947530378481E+03   -0.31385E-04   -0.31367E-04  5000   0.436E-04 0.827E-06
 gam= 0.396 trial= 0.528  step= 0.522 mean= 0.528
 gam= 0.389 g(H,U,f)=  0.158E-04 0.110E-05 0.287E-18 ort(H,U,f) =-0.588E-05 0.528E-05 0.162E-17
CGA:  41    -0.947530389948E+03   -0.11468E-04   -0.11466E-04  5000   0.169E-04-0.605E-06
 gam= 0.389 trial= 0.528  step= 0.518 mean= 0.528
 gam= 0.358 g(H,U,f)=  0.590E-05 0.175E-06 0.180E-18 ort(H,U,f) =-0.245E-05 0.107E-05 0.322E-17
CGA:  42    -0.947530394283E+03   -0.43344E-05   -0.43274E-05  5000   0.607E-05-0.138E-05
 gam= 0.358 trial= 0.528  step= 0.550 mean= 0.528
 final diagonalization
   1 F= -.94753039E+03 E0= -.94753039E+03  d E =-.107943E-12
 writing wavefunctions
Warning: ieee_invalid is signaling
Warning: ieee_divide_by_zero is signaling
Warning: ieee_underflow is signaling
Warning: ieee_inexact is signaling
FORTRAN STOP
Warning: ieee_invalid is signaling
Warning: ieee_divide_by_zero is signaling
Warning: ieee_underflow is signaling
Warning: ieee_inexact is signaling
FORTRAN STOP
Warning: ieee_invalid is signaling
Warning: ieee_divide_by_zero is signaling
Warning: ieee_underflow is signaling
Warning: ieee_inexact is signaling
FORTRAN STOP
Warning: ieee_invalid is signaling
Warning: ieee_divide_by_zero is signaling
Warning: ieee_underflow is signaling
Warning: ieee_inexact is signaling
FORTRAN STOP
