       N       E                     dE             d eps       ncg     rms          ort
DAV:   1    -0.184337701900E+05   -0.18434E+05   -0.54298E+05  5000   0.750E+03
DAV:   2    -0.629357426649E+05   -0.44502E+05   -0.42982E+05  5000   0.123E+03
DAV:   3    -0.680236268950E+05   -0.50879E+04   -0.46175E+04  5000   0.377E+02
DAV:   4    -0.687256481516E+05   -0.70202E+03   -0.63577E+03  5000   0.118E+02
DAV:   5    -0.391379452269E+05    0.29588E+05   -0.68930E+02  5000   0.577E+01
SDA:   6     0.302098754019E+05    0.69348E+05   -0.68930E+02  5000   0.957E+05 0.000E+00
CGA:   7     0.102208903460E+05   -0.19989E+05   -0.22952E+05  5000   0.521E+05-0.214E+05
CGA:   8     0.497881670729E+04   -0.52421E+04   -0.52662E+04  5000   0.233E+05-0.303E+04
CGA:   9     0.282130044207E+04   -0.21575E+04   -0.28353E+04  5000   0.115E+05 0.213E+04
CGA:  10     0.126460743289E+04   -0.15567E+04   -0.18207E+04  5000   0.429E+04 0.154E+04
CGA:  11     0.980091667402E+02   -0.11666E+04   -0.11358E+04  5000   0.164E+04 0.437E+03
CGA:  12    -0.431008961586E+03   -0.52902E+03   -0.52003E+03  5000   0.821E+03 0.594E+02
CGA:  13    -0.701322444078E+03   -0.27031E+03   -0.27173E+03  5000   0.429E+03-0.255E+02
CGA:  14    -0.822657263079E+03   -0.12133E+03   -0.12441E+03  5000   0.226E+03-0.232E+02
CGA:  15    -0.877805445475E+03   -0.55148E+02   -0.54723E+02  5000   0.108E+03 0.106E+01
CGA:  16    -0.905974917732E+03   -0.28169E+02   -0.27515E+02  5000   0.601E+02 0.113E+02
CGA:  17    -0.923636030874E+03   -0.17661E+02   -0.17468E+02  5000   0.367E+02 0.299E+01
CGA:  18    -0.934655938643E+03   -0.11020E+02   -0.11202E+02  5000   0.214E+02-0.159E+01
CGA:  19    -0.940010197658E+03   -0.53543E+01   -0.53633E+01  5000   0.126E+02-0.107E+00
CGA:  20    -0.943340545975E+03   -0.33303E+01   -0.33251E+01  5000   0.729E+01 0.140E+00
CGA:  21    -0.945200130686E+03   -0.18596E+01   -0.18554E+01  5000   0.374E+01 0.128E+00
CGA:  22    -0.946186313731E+03   -0.98618E+00   -0.98419E+00  5000   0.236E+01 0.499E-01
CGA:  23    -0.946778236668E+03   -0.59192E+00   -0.59165E+00  5000   0.122E+01 0.125E-01
CGA:  24    -0.947078976174E+03   -0.30074E+00   -0.30073E+00  5000   0.684E+00 0.158E-02
CGA:  25    -0.947274798042E+03   -0.19582E+00   -0.19585E+00  5000   0.419E+00 0.122E-03
CGA:  26    -0.947388487732E+03   -0.11369E+00   -0.11368E+00  5000   0.214E+00 0.374E-03
CGA:  27    -0.947448123947E+03   -0.59636E-01   -0.59634E-01  5000   0.131E+00 0.872E-04
CGA:  28    -0.947484465702E+03   -0.36342E-01   -0.36344E-01  5000   0.760E-01 0.352E-05
CGA:  29    -0.947502868322E+03   -0.18403E-01   -0.18402E-01  5000   0.400E-01 0.984E-04
CGA:  30    -0.947513695323E+03   -0.10827E-01   -0.10823E-01  5000   0.254E-01 0.119E-03
CGA:  31    -0.947520682960E+03   -0.69876E-02   -0.69848E-02  5000   0.142E-01 0.796E-04
CGA:  32    -0.947524710132E+03   -0.40272E-02   -0.40262E-02  5000   0.830E-02 0.211E-04
CGA:  33    -0.947527174030E+03   -0.24639E-02   -0.24641E-02  5000   0.510E-02-0.368E-05
CGA:  34    -0.947528535153E+03   -0.13611E-02   -0.13611E-02  5000   0.282E-02-0.110E-05
CGA:  35    -0.947529265234E+03   -0.73008E-03   -0.73003E-03  5000   0.171E-02 0.433E-05
CGA:  36    -0.947529715391E+03   -0.45016E-03   -0.45011E-03  5000   0.998E-03 0.292E-05
SDA:  37    -0.947529985996E+03   -0.27060E-03   -0.27068E-03  5000   0.589E-03-0.359E-05
CGA:  38    -0.947530260650E+03   -0.27465E-03   -0.27619E-03  5000   0.288E-03-0.703E-05
CGA:  39    -0.947530347096E+03   -0.86445E-04   -0.86465E-04  5000   0.110E-03-0.454E-06
CGA:  40    -0.947530378481E+03   -0.31385E-04   -0.31367E-04  5000   0.436E-04 0.827E-06
CGA:  41    -0.947530389948E+03   -0.11468E-04   -0.11466E-04  5000   0.169E-04-0.605E-06
CGA:  42    -0.947530394283E+03   -0.43344E-05   -0.43274E-05  5000   0.607E-05-0.138E-05
   1 F= -.94753039E+03 E0= -.94753039E+03  d E =-.107943E-12
