 vasp.6.4.2 20Jul23 (build Nov 12 2023 22:16:35) complex                         
 executed on              LinuxNV date 2025.03.28  19:38:17
 running    4 mpi-ranks, on    1 nodes
 distrk:  each k-point on    1 cores,    4 groups
 distr:  one band on NCORE=   1 cores,    1 groups
 OpenACC runtime initialized ...    4 GPUs detected


--------------------------------------------------------------------------------------------------------


 INCAR:
   PREC = Normal
   ENCUT = 450
   NELM = 500
   IBRION = -1
   ISPIN = 1
   NSW = 0
   ISIF = 2
   EDIFF = 1E-5
   EDIFFG = -5E-3
   ISTART = 0
   ICHARG = 0
   ISMEAR = 0
   SIGMA = 0.05
   LWAVE = .T.
   LCHARG = .T.
   LREAL = Auto
   LPLANE = .TRUE.
   NPAR = 1
   KPAR = 4
   NCORE = 1
   ALGO = All
   LHFCALC = .TRUE.
   HSE06 = .TRUE.
   HFSCREEN = 0.2
   TIME = 0.4
   AEXX = 0.32
   LMAXFOCK = 4
   PRECFOCK = Fast

 POTCAR:    PAW_PBE Ga_d 06Jul2010                
 POTCAR:     PAW_PBE O 08Apr2002                  
 POTCAR:    PAW_PBE P 06Sep2000                   
 POTCAR:    PAW_PBE Ga_d 06Jul2010                
   SHA256 =  a60ddf36e14f00ea098d9e3914b3745f1b7105e68786148f49ae384e44b4226c Ga_d/POTCAR           
   COPYR  = (c) Copyright 06Jul2010 Georg Kresse                                                    
   COPYR  = This file is part of the software VASP. Any use, copying, and all other rights are regul
   COPYR  = If you do not have a valid VASP license, you may not use, copy or distribute this file. 
   VRHFIN =Ga: s2p1                                                                                 
   LEXCH  = PE                                                                                      
   EATOM  =  2148.8298 eV,  157.9345 Ry                                                             
                                                                                                    
   TITEL  = PAW_PBE Ga_d 06Jul2010                                                                  
   LULTRA =        F    use ultrasoft PP ?                                                          
   IUNSCR =        1    unscreen: 0-lin 1-nonlin 2-no                                               
   RPACOR =    1.700    partial core radius                                                         
   POMASS =   69.723; ZVAL   =   13.000    mass and valenz                                          
   RCORE  =    2.300    outmost cutoff radius                                                       
   RWIGS  =    2.300; RWIGS  =    1.217    wigner-seitz radius (au A)                               
   ENMAX  =  282.691; ENMIN  =  212.018 eV                                                          
   ICORE  =        3    local potential                                                             
   LCOR   =        T    correct aug charges                                                         
   LPAW   =        T    paw PP                                                                      
   EAUG   =  490.690                                                                                
   DEXC   =    0.000                                                                                
   RMAX   =    2.341    core radius for proj-oper                                                   
   RAUG   =    1.300    factor for augmentation sphere                                              
   RDEP   =    2.413    radius for radial grids                                                     
   RDEPT  =    1.856    core radius for aug-charge                                                  
                                                                                                    
   Atomic configuration                                                                             
    9 entries                                                                                       
     n  l   j            E        occ.                                                              
     1  0  0.50    -10228.7831   2.0000                                                             
     2  0  0.50     -1262.1604   2.0000                                                             
     2  1  1.50     -1098.6333   6.0000                                                             
     3  0  0.50      -148.1110   2.0000                                                             
     3  1  1.50       -98.8436   6.0000                                                             
     3  2  2.50       -19.1549  10.0000                                                             
     4  0  0.50        -8.9483   2.0000                                                             
     4  1  0.50        -2.5791   1.0000                                                             
     4  3  2.50        -2.7416   0.0000                                                             
   Description                                                                                      
     l       E           TYP  RCUT    TYP  RCUT                                                     
     2    -19.1549037     23  2.300                                                                 
     2     -5.4423304     23  2.300                                                                 
     0     -8.9483111     23  2.300                                                                 
     0     68.0291300     23  2.300                                                                 
     1     -2.5790802     23  2.100                                                                 
     1     81.6349560     23  2.300                                                                 
     3      6.8029130     23  2.300                                                                 
  local pseudopotential read in
  partial core-charges read in
  partial kinetic energy density read in
  atomic valenz-charges read in
  non local Contribution for L=            2  read in
    real space projection operators read in
  non local Contribution for L=            2  read in
    real space projection operators read in
  non local Contribution for L=            0  read in
    real space projection operators read in
  non local Contribution for L=            0  read in
    real space projection operators read in
  non local Contribution for L=            1  read in
    real space projection operators read in
  non local Contribution for L=            1  read in
    real space projection operators read in
    PAW grid and wavefunctions read in
 
   number of l-projection  operators is LMAX  =            6
   number of lm-projection operators is LMMAX =           18
 
 POTCAR:     PAW_PBE O 08Apr2002                  
   SHA256 =  818f92134a0a090dccd8ba1447fa70422a3b330e708bb4f08108d8ae51209ddf O/POTCAR              
   COPYR  = (c) Copyright 08Apr2002 Georg Kresse                                                    
   COPYR  = This file is part of the software VASP. Any use, copying, and all other rights are regul
   COPYR  = If you do not have a valid VASP license, you may not use, copy or distribute this file. 
   VRHFIN =O: s2p4                                                                                  
   LEXCH  = PE                                                                                      
   EATOM  =   432.3788 eV,   31.7789 Ry                                                             
                                                                                                    
   TITEL  = PAW_PBE O 08Apr2002                                                                     
   LULTRA =        F    use ultrasoft PP ?                                                          
   IUNSCR =        1    unscreen: 0-lin 1-nonlin 2-no                                               
   RPACOR =    1.200    partial core radius                                                         
   POMASS =   16.000; ZVAL   =    6.000    mass and valenz                                          
   RCORE  =    1.520    outmost cutoff radius                                                       
   RWIGS  =    1.550; RWIGS  =    0.820    wigner-seitz radius (au A)                               
   ENMAX  =  400.000; ENMIN  =  300.000 eV                                                          
   ICORE  =        2    local potential                                                             
   LCOR   =        T    correct aug charges                                                         
   LPAW   =        T    paw PP                                                                      
   EAUG   =  605.392                                                                                
   DEXC   =    0.000                                                                                
   RMAX   =    1.553    core radius for proj-oper                                                   
   RAUG   =    1.300    factor for augmentation sphere                                              
   RDEP   =    1.550    radius for radial grids                                                     
   RDEPT  =    1.329    core radius for aug-charge                                                  
                                                                                                    
   Atomic configuration                                                                             
    4 entries                                                                                       
     n  l   j            E        occ.                                                              
     1  0  0.50      -514.6923   2.0000                                                             
     2  0  0.50       -23.9615   2.0000                                                             
     2  1  0.50        -9.0305   4.0000                                                             
     3  2  1.50        -9.5241   0.0000                                                             
   Description                                                                                      
     l       E           TYP  RCUT    TYP  RCUT                                                     
     0    -23.9615318     23  1.200                                                                 
     0     -9.5240782     23  1.200                                                                 
     1     -9.0304911     23  1.520                                                                 
     1      8.1634956     23  1.520                                                                 
     2     -9.5240782      7  1.500                                                                 
  local pseudopotential read in
  partial core-charges read in
  partial kinetic energy density read in
  kinetic energy density of atom read in
  atomic valenz-charges read in
  non local Contribution for L=            0  read in
    real space projection operators read in
  non local Contribution for L=            0  read in
    real space projection operators read in
  non local Contribution for L=            1  read in
    real space projection operators read in
  non local Contribution for L=            1  read in
    real space projection operators read in
    PAW grid and wavefunctions read in
 
   number of l-projection  operators is LMAX  =            4
   number of lm-projection operators is LMMAX =            8
 
 POTCAR:    PAW_PBE P 06Sep2000                   
   SHA256 =  df60c54a93efe35c9e85ae94c010c75e9f6960a95d5595d7cdba4096d109af88 P/POTCAR              
   COPYR  = (c) Copyright 06Sep2000 Georg Kresse                                                    
   COPYR  = This file is part of the software VASP. Any use, copying, and all other rights are regul
   COPYR  = If you do not have a valid VASP license, you may not use, copy or distribute this file. 
   VRHFIN =P : s2p3                                                                                 
   LEXCH  = PE                                                                                      
   EATOM  =   176.0430 eV,   12.9388 Ry                                                             
                                                                                                    
   TITEL  = PAW_PBE P 06Sep2000                                                                     
   LULTRA =        F    use ultrasoft PP ?                                                          
   IUNSCR =        1    unscreen: 0-lin 1-nonlin 2-no                                               
   RPACOR =    1.500    partial core radius                                                         
   POMASS =   30.974; ZVAL   =    5.000    mass and valenz                                          
   RCORE  =    1.900    outmost cutoff radius                                                       
   RWIGS  =    2.330; RWIGS  =    1.233    wigner-seitz radius (au A)                               
   ENMAX  =  255.040; ENMIN  =  191.280 eV                                                          
   ICORE  =        2    local potential                                                             
   LCOR   =        T    correct aug charges                                                         
   LPAW   =        T    paw PP                                                                      
   EAUG   =  342.924                                                                                
   DEXC   =    0.000                                                                                
   RMAX   =    1.935    core radius for proj-oper                                                   
   RAUG   =    1.300    factor for augmentation sphere                                              
   RDEP   =    1.931    radius for radial grids                                                     
   RDEPT  =    1.794    core radius for aug-charge                                                  
                                                                                                    
   Atomic configuration                                                                             
    6 entries                                                                                       
     n  l   j            E        occ.                                                              
     1  0  0.50     -2084.0982   2.0000                                                             
     2  0  0.50      -173.9859   2.0000                                                             
     2  1  1.50      -124.4865   6.0000                                                             
     3  0  0.50       -13.9692   2.0000                                                             
     3  1  0.50        -5.5067   3.0000                                                             
     3  2  1.50        -5.4423   0.0000                                                             
   Description                                                                                      
     l       E           TYP  RCUT    TYP  RCUT                                                     
     0    -13.9691527     23  1.900                                                                 
     0    -11.7794650     23  1.900                                                                 
     1     -5.5066937     23  1.900                                                                 
     1     -0.2556953     23  1.900                                                                 
     2     -5.4423304     23  1.900                                                                 
  local pseudopotential read in
  partial core-charges read in
  partial kinetic energy density read in
  atomic valenz-charges read in
  non local Contribution for L=            0  read in
    real space projection operators read in
  non local Contribution for L=            0  read in
    real space projection operators read in
  non local Contribution for L=            1  read in
    real space projection operators read in
  non local Contribution for L=            1  read in
    real space projection operators read in
    PAW grid and wavefunctions read in
 
   number of l-projection  operators is LMAX  =            4
   number of lm-projection operators is LMMAX =            8
 
 Optimization of the real space projectors (new method)

 maximal supplied QI-value         = 16.25
 optimisation between [QCUT,QGAM] = [ 10.73, 21.61] = [ 32.22,130.83] Ry 
 Optimized for a Real-space Cutoff    1.42 Angstroem

   l    n(q)    QCUT    max X(q) W(low)/X(q) W(high)/X(q)  e(spline) 
   2      8    10.726     7.143    0.22E-03    0.16E-03    0.73E-07
   2      8    10.726     5.586    0.40E-03    0.26E-03    0.10E-06
   0      9    10.726    12.382    0.25E-04    0.21E-05    0.37E-07
   0      9    10.726     6.622    0.42E-04    0.48E-05    0.77E-07
   1      9    10.726     7.935    0.27E-03    0.13E-04    0.16E-06
   1      9    10.726     2.425    0.23E-03    0.15E-04    0.14E-06
 Optimization of the real space projectors (new method)

 maximal supplied QI-value         = 24.76
 optimisation between [QCUT,QGAM] = [ 10.64, 21.54] = [ 31.73,129.89] Ry 
 Optimized for a Real-space Cutoff    1.23 Angstroem

   l    n(q)    QCUT    max X(q) W(low)/X(q) W(high)/X(q)  e(spline) 
   0      8    10.645    20.381    0.38E-03    0.60E-03    0.15E-06
   0      8    10.645    15.268    0.40E-03    0.65E-03    0.17E-06
   1      7    10.645     5.964    0.30E-03    0.63E-03    0.18E-06
   1      7    10.645     5.382    0.24E-03    0.53E-03    0.16E-06
 Optimization of the real space projectors (new method)

 maximal supplied QI-value         = 19.84
 optimisation between [QCUT,QGAM] = [ 10.71, 21.63] = [ 32.15,130.99] Ry 
 Optimized for a Real-space Cutoff    1.19 Angstroem

   l    n(q)    QCUT    max X(q) W(low)/X(q) W(high)/X(q)  e(spline) 
   0      8    10.715   160.924    0.37E-03    0.37E-04    0.63E-07
   0      8    10.715   130.086    0.37E-03    0.36E-04    0.63E-07
   1      7    10.715    74.434    0.19E-03    0.56E-03    0.65E-07
   1      7    10.715    49.120    0.19E-03    0.55E-03    0.63E-07
  PAW_PBE Ga_d 06Jul2010                :
 energy of atom  1       EATOM=-2148.8298
 kinetic energy error for atom=    0.0038 (will be added to EATOM!!)
   PAW_PBE O 08Apr2002                  :
 energy of atom  2       EATOM= -432.3788
 kinetic energy error for atom=    0.0389 (will be added to EATOM!!)
  PAW_PBE P 06Sep2000                   :
 energy of atom  3       EATOM= -176.0430
 kinetic energy error for atom=    0.0019 (will be added to EATOM!!)
 
 
 POSCAR: Ga48 O72
  positions in direct lattice
  velocities in cartesian coordinates
 exchange correlation table for  LEXCH =        8
   RHO(1)=    0.500       N(1)  =     2000
   RHO(2)=  100.500       N(2)  =     4000
 


--------------------------------------------------------------------------------------------------------


 ion  position               nearest neighbor table
   1  0.663  0.993  0.152-  82 1.92  66 1.93  78 1.94  84 1.94  64 2.08  60 2.29
   2  0.660  0.999  0.659-  85 1.94  79 1.94  83 1.97  67 2.02  65 2.05  61 2.09
   3  0.663  0.340  0.152-  80 1.92  68 1.93  78 1.94  86 1.94  62 2.08  60 2.29
   4  0.660  0.334  0.659-  87 1.94  79 1.94  81 1.97  69 2.02  63 2.05  61 2.09
   5  0.660  0.667  0.156-  88 1.94  80 1.94  82 1.94  70 2.04  62 2.08  64 2.08
   6  0.661  0.667  0.655-  89 1.94  81 1.96  83 1.96  71 2.01  63 2.08  65 2.08
   7  0.842  0.167  0.846-  73 1.94  75 1.94  90 1.94  61 2.02  67 2.08  69 2.08
   8  0.846  0.501  0.335-  91 1.92  68 1.96  76 1.97  62 2.03  70 2.03  74 2.19
   9  0.843  0.500  0.844-  92 1.94  77 1.94  75 1.96  63 2.03  69 2.07  71 2.09
  10  0.846  0.832  0.335-  93 1.92  66 1.96  76 1.97  64 2.03  70 2.03  72 2.19
  11  0.843  0.833  0.844-  94 1.94  77 1.94  73 1.96  65 2.03  67 2.07  71 2.09
  12  0.590  0.167  0.403-  54 1.83  56 1.83  79 1.83  60 1.93
  13  0.592  0.167  0.900-  55 1.84  57 1.84  78 1.86  61 1.87
  14  0.593  0.500  0.397-  58 1.84  81 1.85  56 1.85  62 1.87
  15  0.589  0.501  0.894-  80 1.83  59 1.84  57 1.84  63 1.87
  16  0.593  0.833  0.397-  58 1.84  83 1.85  54 1.85  64 1.87
  17  0.589  0.832  0.894-  82 1.83  59 1.84  55 1.84  65 1.87
  18  0.912  0.999  0.104-  66 1.84  52 1.84  73 1.85  48 1.85
  19  0.911  0.001  0.607-  53 1.82  49 1.84  67 1.85  72 1.90
  20  0.912  0.335  0.104-  68 1.84  50 1.84  75 1.85  48 1.85
  21  0.911  0.332  0.607-  51 1.82  49 1.84  69 1.85  74 1.90
  22  0.912  0.667  0.100-  77 1.84  50 1.84  52 1.84  70 1.87
  23  0.908  0.667  0.600-  76 1.84  51 1.85  53 1.85  71 1.87
  24  0.162  0.167  0.159- 113 1.95 115 1.95  48 1.98 101 2.03  95 2.06  97 2.06
  25  0.163  0.167  0.656- 114 1.94 116 1.94  49 1.97 102 2.01  96 2.09  98 2.09
  26  0.162  0.500  0.158-  50 1.93 115 1.96 117 1.97 103 2.02  97 2.05  99 2.08
  27  0.159  0.499  0.654- 116 1.92 118 1.94  51 1.97 104 2.03 100 2.10  98 2.10
  28  0.162  0.834  0.158-  52 1.93 113 1.96 117 1.97 105 2.02  95 2.05  99 2.08
  29  0.159  0.834  0.654- 114 1.92 118 1.94  53 1.97 106 2.03 100 2.10  96 2.10
  30  0.341  0.999  0.344- 111 1.95 107 1.95  54 1.97  95 2.00 105 2.08 101 2.08
  31  0.342  1.000  0.844- 112 1.95  55 1.95 108 1.96  96 2.02 102 2.07 106 2.08
  32  0.341  0.334  0.344- 109 1.95 107 1.95  56 1.97  97 2.00 103 2.08 101 2.08
  33  0.342  0.333  0.844- 110 1.95  57 1.95 108 1.96  98 2.02 102 2.07 104 2.08
  34  0.342  0.667  0.344- 109 1.94 111 1.94  58 1.95  99 2.03 103 2.08 105 2.08
  35  0.340  0.667  0.843-  59 1.94 110 1.96 112 1.96 100 2.01 104 2.07 106 2.07
  36  0.087  0.031  0.396- 114 1.90  95 1.94  93 1.95  38 2.48
  37  0.093  0.000  0.898- 113 1.83  94 1.85  90 1.85  96 1.87
  38  0.087  0.302  0.396- 116 1.90  97 1.94  91 1.95  36 2.48
  39  0.093  0.333  0.898- 115 1.83  92 1.85  90 1.85  98 1.87
  40  0.087  0.667  0.396- 118 1.85  99 1.88  91 1.90  93 1.90
  41  0.093  0.667  0.898- 117 1.84  92 1.85  94 1.85 100 1.88
  42  0.413  0.167  0.104- 108 1.84  84 1.85  86 1.85 101 1.87
  43  0.411  0.167  0.604- 107 1.84  85 1.85  87 1.85 102 1.87
  44  0.412  0.499  0.103- 110 1.84  88 1.85  86 1.86 103 1.87
  45  0.410  0.501  0.603- 109 1.83  87 1.85  89 1.85 104 1.87
  46  0.412  0.834  0.103- 112 1.84  88 1.85  84 1.86 105 1.87
  47  0.410  0.833  0.603- 111 1.83  85 1.85  89 1.85 106 1.87
  48  0.998  0.167  0.138-  18 1.85  20 1.85  24 1.98
  49  0.998  0.167  0.623-  19 1.84  21 1.84  25 1.97
  50  1.000  0.501  0.125-  22 1.84  20 1.84  26 1.93
  51  0.995  0.499  0.625-  21 1.82  23 1.85  27 1.97
  52  1.000  0.832  0.125-  22 1.84  18 1.84  28 1.93
  53  0.995  0.834  0.625-  19 1.82  23 1.85  29 1.97
  54  0.506  1.000  0.372-  12 1.83  16 1.85  30 1.97
  55  0.505  0.000  0.874-  17 1.84  13 1.84  31 1.95
  56  0.506  0.333  0.372-  12 1.83  14 1.85  32 1.97
  57  0.505  0.333  0.874-  15 1.84  13 1.84  33 1.95
  58  0.506  0.667  0.373-  14 1.84  16 1.84  34 1.95
  59  0.502  0.667  0.868-  15 1.84  17 1.84  35 1.94
  60  0.691  0.167  0.298- 119 1.72  12 1.93   1 2.29   3 2.29
  61  0.674  0.167  0.784-  13 1.87   7 2.02   2 2.09   4 2.09
  62  0.676  0.501  0.282-  14 1.87   8 2.03   3 2.08   5 2.08
  63  0.674  0.500  0.780-  15 1.87   9 2.03   4 2.05   6 2.08
  64  0.676  0.832  0.282-  16 1.87  10 2.03   1 2.08   5 2.08
  65  0.674  0.833  0.780-  17 1.87  11 2.03   2 2.05   6 2.08
  66  0.824  0.981  0.211-  18 1.84   1 1.93  10 1.96 119 2.44
  67  0.828  0.001  0.721-  19 1.85   2 2.02  11 2.07   7 2.08
  68  0.824  0.352  0.211-  20 1.84   3 1.93   8 1.96 119 2.44
  69  0.828  0.332  0.721-  21 1.85   4 2.02   9 2.07   7 2.08
  70  0.830  0.667  0.216-  22 1.87   8 2.03  10 2.03   5 2.04
  71  0.829  0.667  0.718-  23 1.87   6 2.01   9 2.09  11 2.09
  72  0.826  0.017  0.449- 119 1.71  19 1.90  10 2.19
  73  0.835  1.000  0.947-  18 1.85   7 1.94  11 1.96
  74  0.826  0.316  0.449- 119 1.71  21 1.90   8 2.19
  75  0.835  0.333  0.947-  20 1.85   7 1.94   9 1.96
  76  0.838  0.667  0.441-  23 1.84   8 1.97  10 1.97
  77  0.833  0.667  0.944-  22 1.84   9 1.94  11 1.94
  78  0.668  0.167  0.058-  13 1.86   1 1.94   3 1.94
  79  0.667  0.167  0.558-  12 1.83   2 1.94   4 1.94
  80  0.665  0.504  0.050-  15 1.83   3 1.92   5 1.94
  81  0.671  0.499  0.554-  14 1.85   6 1.96   4 1.97
  82  0.665  0.829  0.050-  17 1.83   1 1.92   5 1.94
  83  0.671  0.834  0.554-  16 1.85   6 1.96   2 1.97
  84  0.502  0.001  0.131-  42 1.85  46 1.86   1 1.94
  85  0.498  0.999  0.629-  47 1.85  43 1.85   2 1.94
  86  0.502  0.333  0.131-  42 1.85  44 1.86   3 1.94
  87  0.498  0.334  0.629-  45 1.85  43 1.85   4 1.94
  88  0.498  0.667  0.128-  44 1.85  46 1.85   5 1.94
  89  0.499  0.667  0.627-  45 1.85  47 1.85   6 1.94
  90  0.004  0.167  0.872-  37 1.85  39 1.85   7 1.94
  91  0.006  0.487  0.375-  40 1.90   8 1.92  38 1.95
  92  0.005  0.500  0.871-  39 1.85  41 1.85   9 1.94
  93  0.006  0.846  0.375-  40 1.90  10 1.92  36 1.95
  94  0.005  0.833  0.871-  37 1.85  41 1.85  11 1.94
  95  0.175  0.999  0.280-  36 1.94  30 2.00  28 2.05  24 2.06
  96  0.174  0.000  0.781-  37 1.87  31 2.02  25 2.09  29 2.10
  97  0.175  0.334  0.280-  38 1.94  32 2.00  26 2.05  24 2.06
  98  0.174  0.333  0.781-  39 1.87  33 2.02  25 2.09  27 2.10
  99  0.173  0.667  0.281-  40 1.88  34 2.03  26 2.08  28 2.08
 100  0.172  0.667  0.779-  41 1.88  35 2.01  27 2.10  29 2.10
 101  0.331  0.167  0.220-  42 1.87  24 2.03  30 2.08  32 2.08
 102  0.330  0.167  0.721-  43 1.87  25 2.01  31 2.07  33 2.07
 103  0.330  0.501  0.220-  44 1.87  26 2.02  34 2.08  32 2.08
 104  0.328  0.500  0.720-  45 1.87  27 2.03  35 2.07  33 2.08
 105  0.330  0.833  0.220-  46 1.87  28 2.02  34 2.08  30 2.08
 106  0.328  0.833  0.720-  47 1.87  29 2.03  35 2.07  31 2.08
 107  0.336  0.167  0.447-  43 1.84  30 1.95  32 1.95
 108  0.336  0.167  0.948-  42 1.84  31 1.96  33 1.96
 109  0.335  0.500  0.446-  45 1.83  34 1.94  32 1.95
 110  0.335  0.500  0.947-  44 1.84  33 1.95  35 1.96
 111  0.335  0.833  0.446-  47 1.83  34 1.94  30 1.95
 112  0.335  0.834  0.947-  46 1.84  31 1.95  35 1.96
 113  0.169  0.001  0.054-  37 1.83  24 1.95  28 1.96
 114  0.169  1.000  0.555-  36 1.90  29 1.92  25 1.94
 115  0.169  0.332  0.054-  39 1.83  24 1.95  26 1.96
 116  0.169  0.333  0.555-  38 1.90  27 1.92  25 1.94
 117  0.170  0.667  0.055-  41 1.84  26 1.97  28 1.97
 118  0.165  0.667  0.552-  40 1.85  27 1.94  29 1.94
 119  0.833  0.167  0.363-  72 1.71  74 1.71  60 1.72  66 2.44  68 2.44
 
  LATTYP: Found a simple monoclinic cell.
 ALAT       =    11.6348202465
 B/A-ratio  =     0.7858051831
 C/A-ratio  =     1.0554931797
 COS(beta)  =    -0.2379290539
  
  Lattice vectors:
  
 A1 = (   0.0000000000,  -2.7682617730, -11.3006977184)
 A2 = (  -9.1427020537,   0.0000000000,   0.0000000000)
 A3 = (   0.0000000000,  12.2804734172,   0.0000000000)


Analysis of symmetry for initial positions (statically):
=====================================================================
 Subroutine PRICEL returns:
 Original cell was already a primitive cell.
 

 Routine SETGRP: Setting up the symmetry group for a 
 simple monoclinic supercell.


 Subroutine GETGRP returns: Found  2 space group operations
 (whereof  1 operations were pure point group operations)
 out of a pool of  4 trial point group operations.


The static configuration has the point symmetry C_1 .
 The point group associated with its full space group is C_1h.


Analysis of symmetry for dynamics (positions and initial velocities):
=====================================================================
 Subroutine PRICEL returns:
 Original cell was already a primitive cell.
 

 Routine SETGRP: Setting up the symmetry group for a 
 simple monoclinic supercell.


 Subroutine GETGRP returns: Found  2 space group operations
 (whereof  1 operations were pure point group operations)
 out of a pool of  4 trial point group operations.


The dynamic configuration has the point symmetry C_1 .
 The point group associated with its full space group is C_1h.


 Subroutine INISYM returns: Found  2 space group operations
 (whereof  1 operations are pure point group operations),
 and found     1 'primitive' translations


----------------------------------------------------------------------------------------

                                     Primitive cell                                     

  volume of cell :    1268.8052

  direct lattice vectors                    reciprocal lattice vectors
     0.000000000 12.280473417  0.000000000     0.000000000  0.081430085 -0.019947423
     9.142702054  0.000000000  0.000000000     0.109376855 -0.000000000  0.000000000
     0.000000000 -2.768261773-11.300697718     0.000000000  0.000000000 -0.088490111

  length of vectors
    12.280473417  9.142702054 11.634820246     0.083837691  0.109376855  0.088490111

  position of ions in fractional coordinates (direct lattice)
     0.663213570  0.993406099  0.152451809
     0.659550001  0.999196046  0.658760111
     0.663213570  0.339927234  0.152451809
     0.659550001  0.334137287  0.658760111
     0.660064207  0.666666667  0.155874951
     0.660874039  0.666666667  0.655332752
     0.841879014  0.166666667  0.846015869
     0.845556969  0.500930690  0.335329979
     0.842661958  0.499887907  0.843776516
     0.845556969  0.832402643  0.335329979
     0.842661958  0.833445427  0.843776516
     0.590018362  0.166666667  0.402829264
     0.591988367  0.166666667  0.899999510
     0.592709069  0.500359209  0.397439554
     0.589301347  0.501303923  0.894111656
     0.592709069  0.832974125  0.397439554
     0.589301347  0.832029410  0.894111656
     0.912200352  0.998744223  0.103640422
     0.911330589  0.001024061  0.607339147
     0.912200352  0.334589111  0.103640422
     0.911330589  0.332309273  0.607339147
     0.912239113  0.666666667  0.099617181
     0.908415064  0.666666667  0.600113458
     0.162259946  0.166666667  0.158566151
     0.163099133  0.166666667  0.656148530
     0.161637514  0.499547712  0.158364297
     0.159354473  0.498966954  0.653519621
     0.161637514  0.833785621  0.158364297
     0.159354473  0.834366380  0.653519621
     0.341089361  0.999449744  0.343852204
     0.341515164  0.999915997  0.843925704
     0.341089361  0.333883589  0.343852204
     0.341515164  0.333417336  0.843925704
     0.342139286  0.666666667  0.344111424
     0.339680962  0.666666667  0.842942405
     0.087214376  0.031196653  0.395822903
     0.092548642  0.000071397  0.898259222
     0.087214376  0.302136680  0.395822903
     0.092548642  0.333261936  0.898259222
     0.087435277  0.666666667  0.395546403
     0.092732500  0.666666667  0.898322252
     0.412952156  0.166666667  0.103963436
     0.410623709  0.166666667  0.603501374
     0.411854192  0.499234685  0.103498539
     0.409917578  0.500573873  0.602952925
     0.411854192  0.834098648  0.103498539
     0.409917578  0.832759461  0.602952925
     0.997746791  0.166666667  0.137602042
     0.998275488  0.166666667  0.622764031
     0.999632147  0.501029245  0.125319811
     0.995012573  0.499276615  0.624694664
     0.999632147  0.832304088  0.125319811
     0.995012573  0.834056719  0.624694664
     0.505533251  0.999916091  0.372026297
     0.504587607  0.000459292  0.873674449
     0.505533251  0.333417242  0.372026297
     0.504587607  0.332874041  0.873674449
     0.505568974  0.666666667  0.373213908
     0.501622855  0.666666667  0.868389054
     0.691253013  0.166666667  0.298466434
     0.673994684  0.166666667  0.783640999
     0.675583402  0.500923211  0.281702728
     0.673950784  0.500151973  0.780002162
     0.675583402  0.832410122  0.281702728
     0.673950784  0.833181360  0.780002162
     0.824071343  0.981040108  0.210952373
     0.828120808  0.000939563  0.720894227
     0.824071343  0.352293226  0.210952373
     0.828120808  0.332393770  0.720894227
     0.830144279  0.666666667  0.216023860
     0.828511750  0.666666667  0.718392892
     0.826480192  0.016936563  0.448890079
     0.834583692  0.999895901  0.946939562
     0.826480192  0.316396770  0.448890079
     0.834583692  0.333437432  0.946939562
     0.837503112  0.666666667  0.441487312
     0.833120263  0.666666667  0.944301254
     0.668402419  0.166666667  0.058244926
     0.667400919  0.166666667  0.558231426
     0.665131731  0.504470313  0.050006573
     0.671124882  0.499017782  0.553894858
     0.665131731  0.828863021  0.050006573
     0.671124882  0.834315552  0.553894858
     0.501916528  0.000502616  0.131110428
     0.497641486  0.999358336  0.628538466
     0.501916528  0.332830717  0.131110428
     0.497641486  0.333974997  0.628538466
     0.498219321  0.666666667  0.128362779
     0.498661215  0.666666667  0.627064800
     0.004217000  0.166666667  0.872227370
     0.006398937  0.487418555  0.374664786
     0.004738975  0.499991535  0.871181021
     0.006398937  0.845914778  0.374664786
     0.004738975  0.833341798  0.871181021
     0.175072253  0.998904531  0.279610646
     0.173631700  0.000394684  0.781019169
     0.175072253  0.334428803  0.279610646
     0.173631700  0.332938649  0.781019169
     0.173047515  0.666666667  0.281362792
     0.172470537  0.666666667  0.779354070
     0.331149164  0.166666667  0.220092095
     0.330249421  0.166666667  0.721313743
     0.330217025  0.500562255  0.220080375
     0.327973234  0.500188076  0.719507921
     0.330217025  0.832771078  0.220080375
     0.327973234  0.833145257  0.719507921
     0.336096319  0.166666667  0.446588147
     0.335583760  0.166666667  0.947592542
     0.335465623  0.500462768  0.446346925
     0.334611951  0.499540933  0.946913675
     0.335465623  0.832870565  0.446346925
     0.334611951  0.833792400  0.946913675
     0.168711855  0.000914289  0.054243121
     0.168811610  0.999962608  0.554565527
     0.168711855  0.332419045  0.054243121
     0.168811610  0.333370725  0.554565527
     0.170276382  0.666666667  0.054563149
     0.164851065  0.666666667  0.552499928
     0.832753429  0.166666667  0.363051751

  ion indices of the primitive-cell ions
   primitive index   ion index
                 1           1
                 2           2
                 3           3
                 4           4
                 5           5
                 6           6
                 7           7
                 8           8
                 9           9
                10          10
                11          11
                12          12
                13          13
                14          14
                15          15
                16          16
                17          17
                18          18
                19          19
                20          20
                21          21
                22          22
                23          23
                24          24
                25          25
                26          26
                27          27
                28          28
                29          29
                30          30
                31          31
                32          32
                33          33
                34          34
                35          35
                36          36
                37          37
                38          38
                39          39
                40          40
                41          41
                42          42
                43          43
                44          44
                45          45
                46          46
                47          47
                48          48
                49          49
                50          50
                51          51
                52          52
                53          53
                54          54
                55          55
                56          56
                57          57
                58          58
                59          59
                60          60
                61          61
                62          62
                63          63
                64          64
                65          65
                66          66
                67          67
                68          68
                69          69
                70          70
                71          71
                72          72
                73          73
                74          74
                75          75
                76          76
                77          77
                78          78
                79          79
                80          80
                81          81
                82          82
                83          83
                84          84
                85          85
                86          86
                87          87
                88          88
                89          89
                90          90
                91          91
                92          92
                93          93
                94          94
                95          95
                96          96
                97          97
                98          98
                99          99
               100         100
               101         101
               102         102
               103         103
               104         104
               105         105
               106         106
               107         107
               108         108
               109         109
               110         110
               111         111
               112         112
               113         113
               114         114
               115         115
               116         116
               117         117
               118         118
               119         119

----------------------------------------------------------------------------------------

 
 
 KPOINTS: Automatic mesh                          

Automatic generation of k-mesh.
 Grid dimensions read from file:
 generate k-points for:    2    2    2

 Generating k-lattice:

  Cartesian coordinates                     Fractional coordinates (reciprocal lattice)
     0.000000000  0.040715043 -0.009973711     0.500000000  0.000000000  0.000000000
     0.054688428 -0.000000000  0.000000000     0.000000000  0.500000000  0.000000000
     0.000000000  0.000000000 -0.044245056     0.000000000  0.000000000  0.500000000

  Length of vectors
     0.041918846  0.054688428  0.044245056

  Shift w.r.t. Gamma in fractional coordinates (k-lattice)
     0.000000000  0.000000000  0.000000000

 
 Subroutine IBZKPT returns following result:
 ===========================================
 
 Found      8 irreducible k-points:
 
 Following reciprocal coordinates:
            Coordinates               Weight
  0.000000  0.000000  0.000000      1.000000
  0.500000  0.000000  0.000000      1.000000
  0.000000  0.500000  0.000000      1.000000
  0.500000  0.500000  0.000000      1.000000
  0.000000  0.000000  0.500000      1.000000
  0.500000  0.000000  0.500000      1.000000
  0.000000  0.500000  0.500000      1.000000
  0.500000  0.500000  0.500000      1.000000
 
 Following cartesian coordinates:
            Coordinates               Weight
  0.000000  0.000000 -0.000000      1.000000
  0.000000  0.040715 -0.009974      1.000000
  0.054688  0.000000 -0.000000      1.000000
  0.054688  0.040715 -0.009974      1.000000
  0.000000  0.000000 -0.044245      1.000000
  0.000000  0.040715 -0.054219      1.000000
  0.054688  0.000000 -0.044245      1.000000
  0.054688  0.040715 -0.054219      1.000000
 
 
 Subroutine IBZKPT_HF returns following result:
 ==============================================
 
 Found      8 k-points in 1st BZ
 the following      8 k-points will be used (e.g. in the exchange kernel)
 Following reciprocal coordinates:   # in IRBZ
  0.000000  0.000000  0.000000    0.12500000   1 t-inv F
  0.500000  0.000000  0.000000    0.12500000   2 t-inv F
  0.000000  0.500000  0.000000    0.12500000   3 t-inv F
  0.500000  0.500000  0.000000    0.12500000   4 t-inv F
  0.000000  0.000000  0.500000    0.12500000   5 t-inv F
  0.500000  0.000000  0.500000    0.12500000   6 t-inv F
  0.000000  0.500000  0.500000    0.12500000   7 t-inv F
  0.500000  0.500000  0.500000    0.12500000   8 t-inv F


--------------------------------------------------------------------------------------------------------




 Dimension of arrays:
   k-points           NKPTS =      8   k-points in BZ     NKDIM =      8   number of bands    NBANDS=    625
   number of dos      NEDOS =    301   number of ions     NIONS =    119
   non local maximal  LDIM  =      6   non local SUM 2l+1 LMDIM =     18
   total plane-waves  NPLWV = 184320
   max r-space proj   IRMAX =   1800   max aug-charges    IRDMAX=   5704
   dimension x,y,z NGX =    64 NGY =   48 NGZ =   60
   dimension x,y,z NGXF=   128 NGYF=   96 NGZF=  120
   support grid    NGXF=   128 NGYF=   96 NGZF=  120
   ions per type =              47  71   1
   NGX,Y,Z   is equivalent  to a cutoff of   8.66,  8.73,  8.57 a.u.
   NGXF,Y,Z  is equivalent  to a cutoff of  17.33, 17.46, 17.15 a.u.

 SYSTEM =  unknown system                          
 POSCAR =  Ga48 O72                                

 Startparameter for this run:
   NWRITE =      2    write-flag & timer
   PREC   = normal    normal or accurate (medium, high low for compatibility)
   ISTART =      0    job   : 0-new  1-cont  2-samecut
   ICHARG =      0    charge: 1-file 2-atom 10-const
   ISPIN  =      1    spin polarized calculation?
   LNONCOLLINEAR =      F non collinear calculations
   LSORBIT =      F    spin-orbit coupling
   INIWAV =      1    electr: 0-lowe 1-rand  2-diag
   LASPH  =      F    aspherical Exc in radial PAW
 Electronic Relaxation 1
   ENCUT  =  450.0 eV  33.07 Ry    5.75 a.u.  21.24 15.81 20.12*2*pi/ulx,y,z
   ENINI  =  450.0     initial cutoff
   ENAUG  =  605.4 eV  augmentation charge cutoff
   NELM   =    500;   NELMIN=  2; NELMDL= -5     # of ELM steps 
   EDIFF  = 0.1E-04   stopping-criterion for ELM
   LREAL  =      T    real-space projection
   NLSPLINE    = F    spline interpolate recip. space projectors
   LCOMPAT=      F    compatible to vasp.4.4
   GGA_COMPAT  = T    GGA compatible to vasp.4.4-vasp.4.6
   LMAXPAW     = -100 max onsite density
   LMAXMIX     =    2 max onsite mixed and CHGCAR
   VOSKOWN=      0    Vosko Wilk Nusair interpolation
   ROPT   =   -0.00050  -0.00050  -0.00050
 Ionic relaxation
   EDIFFG = -.5E-02   stopping-criterion for IOM
   NSW    =      0    number of steps for IOM
   NBLOCK =      1;   KBLOCK =      1    inner block; outer block 
   IBRION =     -1    ionic relax: 0-MD 1-quasi-New 2-CG
   NFREE  =      0    steps in history (QN), initial steepest desc. (CG)
   ISIF   =      2    stress and relaxation
   IWAVPR =     10    prediction:  0-non 1-charg 2-wave 3-comb
   ISYM   =      3    0-nonsym 1-usesym 2-fastsym
   LCORR  =      T    Harris-Foulkes like correction to forces

   POTIM  = 0.5000    time-step for ionic-motion
   TEIN   =    0.0    initial temperature
   TEBEG  =    0.0;   TEEND  =   0.0 temperature during run
   SMASS  =  -3.00    Nose mass-parameter (am)
   estimated Nose-frequenzy (Omega)   =  0.10E-29 period in steps = 0.13E+47 mass=  -0.345E-26a.u.
   SCALEE = 1.0000    scale energy and forces
   NPACO  =    256;   APACO  = 10.0  distance and # of slots for P.C.
   PSTRESS=    0.0 pullay stress

  Mass of Ions in am
   POMASS =  69.72 16.00 30.97
  Ionic Valenz
   ZVAL   =  13.00  6.00  5.00
  Atomic Wigner-Seitz radii
   RWIGS  =  -1.00 -1.00 -1.00
  virtual crystal weights 
   VCA    =   1.00  1.00  1.00
   NELECT =    1042.0000    total number of electrons
   NUPDOWN=      -1.0000    fix difference up-down

 DOS related values:
   EMIN   =  10.00;   EMAX   =-10.00  energy-range for DOS
   EFERMI =   0.00;   METHOD = LEGACY      
   ISMEAR =     0;   SIGMA  =   0.05  broadening in eV -4-tet -1-fermi 0-gaus

 Electronic relaxation 2 (details)
   IALGO  =     58    algorithm
   LDIAG  =      T    sub-space diagonalisation (order eigenvalues)
   LSUBROT=      F    optimize rotation matrix (better conditioning)
   TURBO    =      0    0=normal 1=particle mesh
   IRESTART =      0    0=no restart 2=restart with 2 vectors
   NREBOOT  =      0    no. of reboots
   NMIN     =      0    reboot dimension
   EREF     =   0.00    reference energy to select bands
   IMIX   =      4    mixing-type and parameters
     AMIX     =   0.40;   BMIX     =  1.00
     AMIX_MAG =   1.60;   BMIX_MAG =  1.00
     AMIN     =   0.10
     WC   =   100.;   INIMIX=   1;  MIXPRE=   1;  MAXMIX= -45

 Intra band minimization:
   WEIMIN = 0.0000     energy-eigenvalue tresh-hold
   EBREAK =  0.40E-08  absolut break condition
   DEPER  =   0.30     relativ break condition  

   TIME   =   0.40     timestep for ELM

  volume/ion in A,a.u.               =      10.66        71.95
  Fermi-wavevector in a.u.,A,eV,Ry     =   1.533083  2.897107 31.978378  2.350344
  Thomas-Fermi vector in A             =   2.640200
 
 Write flags
   LWAVE        =      T    write WAVECAR
   LDOWNSAMPLE  =      F    k-point downsampling of WAVECAR
   LCHARG       =      T    write CHGCAR
   LVTOT        =      F    write LOCPOT, total local potential
   LVHAR        =      F    write LOCPOT, Hartree potential only
   LELF         =      F    write electronic localiz. function (ELF)
   LORBIT       =      0    0 simple, 1 ext, 2 COOP (PROOUT), +10 PAW based schemes


 Dipole corrections
   LMONO  =      F    monopole corrections only (constant potential shift)
   LDIPOL =      F    correct potential (dipole corrections)
   IDIPOL =      0    1-x, 2-y, 3-z, 4-all directions 
   EPSILON=  1.0000000 bulk dielectric constant

 Exchange correlation treatment:
   GGA     =    --    GGA type
   LEXCH   =     8    internal setting for exchange type
   LIBXC   =     F    Libxc                    
   VOSKOWN =     0    Vosko Wilk Nusair interpolation
   EXXOEP  =     0    0=HF, 1=EXX-LHF (local Hartree Fock) 2=EXX OEP
   LHFCALC =     T    Hartree Fock is set to
   LSYMGRAD=     F    symmetrize gradient (conserves proper symmetry)
   PRECFOCK=fast      Normal, Fast or Accurate (Low or Medium for compatibility)
   LRHFCALC=     F    long range Hartree Fock
   LRSCOR  =     F    long range correlation only (use DFT for short range part)
   LTHOMAS =     F    Thomas Fermi screening in HF
   LMODELHF=     F    short range full HF, long range fraction AEXX
   FOCKCORR=     1    mode to apply convergence corrections
   LFOCKACE=     T    use Adeptively-Compressed-Exchange operator
   ENCUT4O =  -1.0   cutoff for four orbital integrals eV
   LMAXFOCK=     4    L truncation for augmentation on plane wave grid
   LMAXFOCKAE=  -1    L truncation for all-electron charge restoration on plane wave grid
   NMAXFOCKAE=   1    number of basis functions for all-electron charge restoration
   LFOCKAEDFT=     F  apply the AE augmentation even for DFT
   NKREDX  =     1    reduce k-point grid by
   NKREDY  =     1    reduce k-point grid by
   NKREDZ  =     1    reduce k-point grid by
   SHIFTRED=     F    shift reduced grid of Gamma
   HFKIDENT=     F    idential grid for each k-point
   ODDONLY =     F    use only odd q-grid points
   EVENONLY=     F    use only even q-grid points
   HFALPHA =   -1.0000 decay constant for conv. correction
   MCALPHA =    0.0000 extent of test-charge in conv. correction in multipole expansion
   AEXX    =    0.3200 exact exchange contribution
   HFSCREEN=    0.2000 screening length (either q_TF or 0.3 A-1)
   HFSCREENC=   0.2000 screening length for correlation (either q_TF or 0.3 A-1)
   HFRCUT  =    0.0000 spherical cutoff for potential kernel
   ALDAX   =    0.6800 LDA exchange part
   AGGAX   =    0.6800 GGA exchange part
   ALDAC   =    1.0000 LDA correlation
   AGGAC   =    1.0000 GGA correlation
   ENCUTFOCK=  -1.0 apply spherical cutoff to Coloumb kernel
   NBANDSGWLOW=     1    first orbital included in HF term
   NBLOCK_FOCK=    64    blocking factor in FOCK_ACC

 Linear response parameters
   LEPSILON=     F    determine dielectric tensor
   LRPA    =     F    only Hartree local field effects (RPA)
   LNABLA  =     F    use nabla operator in PAW spheres
   LVEL    =     F    velocity operator in full k-point grid
   CSHIFT  =0.1000    complex shift for real part using Kramers Kronig
   OMEGAMAX=  -1.0    maximum frequency
   DEG_THRESHOLD= 0.2000000E-02 threshold for treating states as degnerate
   RTIME   =   -0.100 relaxation time in fs
  (WPLASMAI=    0.000 imaginary part of plasma frequency in eV, 0.658/RTIME)
   DFIELD  = 0.0000000 0.0000000 0.0000000 field for delta impulse in time
 
  Optional k-point grid parameters
   LKPOINTS_OPT  =     F    use optional k-point grid
   KPOINTS_OPT_MODE=     1    mode for optional k-point grid
 
 Orbital magnetization related:
   ORBITALMAG=     F  switch on orbital magnetization
   LCHIMAG   =     F  perturbation theory with respect to B field
   DQ        =  0.001000  dq finite difference perturbation B field
   LLRAUG    =     F  two centre corrections for induced B field
   LBONE     =     F  B-component reconstruction in AE one-centre
   LVGVCALC  =     T  calculate vGv susceptibility
   LVGVAPPL  =     F  apply vGv susceptibility instead of pGv for G=0

 Random number generation:
   RANDOM_GENERATOR = DEFAULT
   PCG_SEED         = not used


--------------------------------------------------------------------------------------------------------


 Static calculation
 charge density and potential will be updated during run
 non-spin polarized calculation
 Conjugate gradient for all bands (Freysoldt, et al. PRB 79, 241103 (2009))
 preconditioned conjugated gradient                                        
 perform sub-space diagonalisation
    before iterative eigenvector-optimisation
 modified Broyden-mixing scheme, WC =      100.0
 initial mixing is a Kerker type mixing with AMIX =  0.4000 and BMIX =      1.0000
 Hartree-type preconditioning will be used
 using additional bands           104
 real space projection scheme for non local part
 use partial core corrections
 no Harris-corrections to forces 
 use gradient corrections 
 use of overlap-Matrix (Vanderbilt PP)
 Gauss-broadening in eV      SIGMA  =   0.05


--------------------------------------------------------------------------------------------------------


  energy-cutoff  :      450.00
  volume of cell :     1268.81
      direct lattice vectors                 reciprocal lattice vectors
     0.000000000 12.280473417  0.000000000     0.000000000  0.081430085 -0.019947423
     9.142702054  0.000000000  0.000000000     0.109376855 -0.000000000  0.000000000
     0.000000000 -2.768261773-11.300697718     0.000000000  0.000000000 -0.088490111

  length of vectors
    12.280473417  9.142702054 11.634820246     0.083837691  0.109376855  0.088490111


 
 k-points in units of 2pi/SCALE and weight: Automatic mesh                          
   0.00000000  0.00000000 -0.00000000       0.125
   0.00000000  0.04071504 -0.00997371       0.125
   0.05468843  0.00000000 -0.00000000       0.125
   0.05468843  0.04071504 -0.00997371       0.125
   0.00000000  0.00000000 -0.04424506       0.125
   0.00000000  0.04071504 -0.05421877       0.125
   0.05468843  0.00000000 -0.04424506       0.125
   0.05468843  0.04071504 -0.05421877       0.125
 
 k-points in reciprocal lattice and weights: Automatic mesh                          
   0.00000000  0.00000000  0.00000000       0.125
   0.50000000  0.00000000  0.00000000       0.125
   0.00000000  0.50000000  0.00000000       0.125
   0.50000000  0.50000000  0.00000000       0.125
   0.00000000  0.00000000  0.50000000       0.125
   0.50000000  0.00000000  0.50000000       0.125
   0.00000000  0.50000000  0.50000000       0.125
   0.50000000  0.50000000  0.50000000       0.125
 
 position of ions in fractional coordinates (direct lattice) 
   0.66321357  0.99340610  0.15245181
   0.65955000  0.99919605  0.65876011
   0.66321357  0.33992723  0.15245181
   0.65955000  0.33413729  0.65876011
   0.66006421  0.66666667  0.15587495
   0.66087404  0.66666667  0.65533275
   0.84187901  0.16666667  0.84601587
   0.84555697  0.50093069  0.33532998
   0.84266196  0.49988791  0.84377652
   0.84555697  0.83240264  0.33532998
   0.84266196  0.83344543  0.84377652
   0.59001836  0.16666667  0.40282926
   0.59198837  0.16666667  0.89999951
   0.59270907  0.50035921  0.39743955
   0.58930135  0.50130392  0.89411166
   0.59270907  0.83297412  0.39743955
   0.58930135  0.83202941  0.89411166
   0.91220035  0.99874422  0.10364042
   0.91133059  0.00102406  0.60733915
   0.91220035  0.33458911  0.10364042
   0.91133059  0.33230927  0.60733915
   0.91223911  0.66666667  0.09961718
   0.90841506  0.66666667  0.60011346
   0.16225995  0.16666667  0.15856615
   0.16309913  0.16666667  0.65614853
   0.16163751  0.49954771  0.15836430
   0.15935447  0.49896695  0.65351962
   0.16163751  0.83378562  0.15836430
   0.15935447  0.83436638  0.65351962
   0.34108936  0.99944974  0.34385220
   0.34151516  0.99991600  0.84392570
   0.34108936  0.33388359  0.34385220
   0.34151516  0.33341734  0.84392570
   0.34213929  0.66666667  0.34411142
   0.33968096  0.66666667  0.84294240
   0.08721438  0.03119665  0.39582290
   0.09254864  0.00007140  0.89825922
   0.08721438  0.30213668  0.39582290
   0.09254864  0.33326194  0.89825922
   0.08743528  0.66666667  0.39554640
   0.09273250  0.66666667  0.89832225
   0.41295216  0.16666667  0.10396344
   0.41062371  0.16666667  0.60350137
   0.41185419  0.49923469  0.10349854
   0.40991758  0.50057387  0.60295293
   0.41185419  0.83409865  0.10349854
   0.40991758  0.83275946  0.60295293
   0.99774679  0.16666667  0.13760204
   0.99827549  0.16666667  0.62276403
   0.99963215  0.50102925  0.12531981
   0.99501257  0.49927661  0.62469466
   0.99963215  0.83230409  0.12531981
   0.99501257  0.83405672  0.62469466
   0.50553325  0.99991609  0.37202630
   0.50458761  0.00045929  0.87367445
   0.50553325  0.33341724  0.37202630
   0.50458761  0.33287404  0.87367445
   0.50556897  0.66666667  0.37321391
   0.50162285  0.66666667  0.86838905
   0.69125301  0.16666667  0.29846643
   0.67399468  0.16666667  0.78364100
   0.67558340  0.50092321  0.28170273
   0.67395078  0.50015197  0.78000216
   0.67558340  0.83241012  0.28170273
   0.67395078  0.83318136  0.78000216
   0.82407134  0.98104011  0.21095237
   0.82812081  0.00093956  0.72089423
   0.82407134  0.35229323  0.21095237
   0.82812081  0.33239377  0.72089423
   0.83014428  0.66666667  0.21602386
   0.82851175  0.66666667  0.71839289
   0.82648019  0.01693656  0.44889008
   0.83458369  0.99989590  0.94693956
   0.82648019  0.31639677  0.44889008
   0.83458369  0.33343743  0.94693956
   0.83750311  0.66666667  0.44148731
   0.83312026  0.66666667  0.94430125
   0.66840242  0.16666667  0.05824493
   0.66740092  0.16666667  0.55823143
   0.66513173  0.50447031  0.05000657
   0.67112488  0.49901778  0.55389486
   0.66513173  0.82886302  0.05000657
   0.67112488  0.83431555  0.55389486
   0.50191653  0.00050262  0.13111043
   0.49764149  0.99935834  0.62853847
   0.50191653  0.33283072  0.13111043
   0.49764149  0.33397500  0.62853847
   0.49821932  0.66666667  0.12836278
   0.49866121  0.66666667  0.62706480
   0.00421700  0.16666667  0.87222737
   0.00639894  0.48741856  0.37466479
   0.00473898  0.49999153  0.87118102
   0.00639894  0.84591478  0.37466479
   0.00473898  0.83334180  0.87118102
   0.17507225  0.99890453  0.27961065
   0.17363170  0.00039468  0.78101917
   0.17507225  0.33442880  0.27961065
   0.17363170  0.33293865  0.78101917
   0.17304752  0.66666667  0.28136279
   0.17247054  0.66666667  0.77935407
   0.33114916  0.16666667  0.22009209
   0.33024942  0.16666667  0.72131374
   0.33021702  0.50056226  0.22008038
   0.32797323  0.50018808  0.71950792
   0.33021702  0.83277108  0.22008038
   0.32797323  0.83314526  0.71950792
   0.33609632  0.16666667  0.44658815
   0.33558376  0.16666667  0.94759254
   0.33546562  0.50046277  0.44634693
   0.33461195  0.49954093  0.94691367
   0.33546562  0.83287057  0.44634693
   0.33461195  0.83379240  0.94691367
   0.16871185  0.00091429  0.05424312
   0.16881161  0.99996261  0.55456553
   0.16871185  0.33241904  0.05424312
   0.16881161  0.33337073  0.55456553
   0.17027638  0.66666667  0.05456315
   0.16485107  0.66666667  0.55249993
   0.83275343  0.16666667  0.36305175
 
 position of ions in cartesian coordinates  (Angst):
   9.08241598  7.72255010 -1.72281181
   9.13535174  6.27596582 -7.44444888
   3.10785342  7.72255010 -1.72281181
   3.05491766  6.27596582 -7.44444888
   6.09513470  7.67439828 -1.76149570
   6.09513470  6.30171346 -7.40571734
   1.52378368  7.99667946 -9.56056960
   4.57986005  9.45555872 -3.78946272
   4.57032619  8.01249350 -9.53526335
   7.61040935  9.45555872 -3.78946272
   7.61994322  8.01249350 -9.53526335
   1.52378368  6.13056796 -4.55225174
   1.52378368  4.77846316-10.17062240
   4.57463517  6.17853125 -4.49134426
   4.58327241  4.76176441-10.10408555
   7.61563424  6.17853125 -4.49134426
   7.60699700  4.76176441-10.10408555
   9.13122086 10.91534836 -1.17120909
   0.00936268  9.51029732 -6.86335612
   3.05904855 10.91534836 -1.17120909
   3.03820467  9.51029732 -6.86335612
   6.09513470 10.92696174 -1.12574366
   6.09513470  9.49449590 -6.78170079
   1.52378368  1.55367634 -1.79190814
   1.52378368  0.18654367 -7.41493620
   4.56721590  1.54659137 -1.78962705
   4.56190619  0.14783499 -7.38522769
   7.62305351  1.54659137 -1.78962705
   7.62836321  0.14783499 -7.38522769
   9.13767123  3.23686592 -3.88576982
   9.14193404  1.85776063 -9.53694928
   3.05259818  3.23686592 -3.88576982
   3.04833536  1.85776063 -9.53694928
   6.09513470  3.24904191 -3.88869918
   6.09513470  1.83795779 -9.52583731
   0.28522171 -0.02470759 -4.47307498
   0.00065277 -1.35007552-10.15095594
   2.76234564 -0.02470759 -4.47307498
   3.04691459 -1.35007552-10.15095594
   6.09513470 -0.02122939 -4.46995033
   6.09513470 -1.34799215-10.15166822
   1.52378368  4.78344997 -1.17485937
   1.52378368  3.37200376 -6.81998660
   4.56435398  4.77125340 -1.16960571
   4.57659777  3.36485039 -6.81378875
   7.62591542  4.77125340 -1.16960571
   7.61367163  3.36485039 -6.81378875
   1.52378368 11.87188448 -1.55499908
   1.52378368 10.53532174 -7.03766807
   4.58076111 11.92903797 -1.41620130
   4.56473733 10.48990709 -7.05948557
   7.60950829 11.92903797 -1.41620130
   7.62553207 10.48990709 -7.05948557
   9.14193490  5.17832148 -4.20415672
   0.00419917  3.77801511 -9.87313085
   3.04833451  5.17832148 -4.20415672
   3.04336818  3.77801511 -9.87313085
   6.09513470  5.17547255 -4.21757756
   6.09513470  3.75623791 -9.81340220
   1.52378368  7.66268104 -3.37287895
   1.52378368  6.10765037 -8.85569005
   4.57979167  7.51665712 -3.18343737
   4.57274047  6.11718452 -8.81456865
   7.61047773  7.51665712 -3.18343737
   7.61752893  6.11718452 -8.81456865
   8.96935741  9.53601484 -2.38390900
   0.00859014  8.17409163 -8.14660774
   3.22091200  9.53601484 -2.38390900
   3.03897721  8.17409163 -8.14660774
   6.09513470  9.59655416 -2.44122034
   6.09513470  8.18581693 -8.11834092
   0.15484595  8.90692279 -5.07277109
   9.14175031  7.62770625-10.70107775
   2.89272140  8.90692279 -5.07277109
   3.04851910  7.62770625-10.70107775
   6.09513470  9.06278225 -4.98911466
   6.09513470  7.61703818-10.67126302
   1.52378368  8.04706093 -0.65820830
   1.52378368  6.65066853 -6.30840460
   4.61222177  8.02970126 -0.56510917
   4.56237090  6.70840531 -6.25939836
   7.57804764  8.02970126 -0.56510917
   7.62789851  6.70840531 -6.25939836
   0.00459527  5.80082460 -1.48163931
   9.13683552  4.37131403 -7.10292321
   3.04297208  5.80082460 -1.48163931
   3.05343389  4.37131403 -7.10292321
   6.09513470  5.76302736 -1.45058896
   6.09513470  4.38791627 -7.08626976
   1.52378368 -2.36276693 -9.85677785
   4.45632263 -0.95858823 -4.23397349
   4.57127363 -2.35346026 -9.84495338
   7.73394678 -0.95858823 -4.23397349
   7.61899577 -2.35346026 -9.84495338
   9.13268651  1.37593469 -3.15979539
   0.00360848 -0.02978603 -8.82606155
   3.05758290  1.37593469 -3.15979539
   3.04395887 -0.02978603 -8.82606155
   6.09513470  1.34621955 -3.17959586
   6.09513470 -0.03943624 -8.80724477
   1.52378368  3.45739598 -2.48719424
   1.52378368  2.05883398 -8.15134857
   4.57649156  3.44598131 -2.48706179
   4.57307055  2.03588030 -8.13094152
   7.61377784  3.44598131 -2.48706179
   7.61719885  2.03588030 -8.13094152
   1.52378368  2.89114902 -5.04675765
   1.52378368  1.49794323-10.70845688
   4.57558198  2.88407153 -5.04403168
   4.56715392  1.48788824-10.70078520
   7.61468743  2.88407153 -5.04403168
   7.62311549  1.48788824-10.70078520
   0.00835907  1.92170229 -0.61298511
   9.14236019  0.53790394 -6.26697739
   3.03920828  1.92170229 -0.61298511
   3.04790922  0.53790394 -6.26697739
   6.09513470  1.94002950 -0.61660166
   6.09513470  0.49498469 -6.24363468
   1.52378368  9.22158407 -4.10273809
 


--------------------------------------------------------------------------------------------------------


 k-point   1 :   0.0000 0.0000 0.0000  plane waves:   27533
 k-point   2 :   0.5000 0.0000 0.0000  plane waves:   27522
 k-point   3 :   0.0000 0.5000 0.0000  plane waves:   27488
 k-point   4 :   0.5000 0.5000 0.0000  plane waves:   27488
 k-point   5 :   0.0000 0.0000 0.5000  plane waves:   27482
 k-point   6 :   0.5000 0.0000 0.5000  plane waves:   27476
 k-point   7 :   0.0000 0.5000 0.5000  plane waves:   27468
 k-point   8 :   0.5000 0.5000 0.5000  plane waves:   27564

 maximum and minimum number of plane-waves per node :     27564    27468

 maximum number of plane-waves:     27564
 maximum index in each direction: 
   IXMAX=   21   IYMAX=   15   IZMAX=   20
   IXMIN=  -21   IYMIN=  -16   IZMIN=  -20


 serial   3D FFT for wavefunctions
 parallel 3D FFT for charge:
    minimum data exchange during FFTs selected (reduces bandwidth)


 FFT grid for exact exchange (Hartree Fock) 
  NGX = 48; NGY = 36; NGZ = 48

 
 Radii for the augmentation spheres in the non-local exchange
 for species   1 augmentation radius   1.392 (default was   1.031)
       energy cutoff for augmentation   1800.0
 for species   2 augmentation radius   0.974 (default was   0.722)
       energy cutoff for augmentation   1800.0
 for species   3 augmentation radius   1.294 (default was   0.959)
       energy cutoff for augmentation   1800.0
 Maximum index for augmentation-charges in exchange           750
  SETUP_FOCK is finished

 total amount of memory used by VASP MPI-rank0  7175145. kBytes
=======================================================================

   base      :      30000. kBytes
   nonlr-proj:      32476. kBytes
   fftplans  :      51012. kBytes
   grid      :     102973. kBytes
   one-center:       1850. kBytes
   HF        :        194. kBytes
   wavefun   :    6956640. kBytes
 
     INWAV:  cpu time      0.0001: real time      0.0001
 Broyden mixing: mesh for mixing (old mesh)
   NGX = 43   NGY = 31   NGZ = 41
  (NGX  =128   NGY  = 96   NGZ  =120)
  gives a total of  54653 points

 charge density for first step will be calculated from the start-wavefunctions


--------------------------------------------------------------------------------------------------------


 Maximum index for non-local projection operator          1717
 Maximum index for augmentation-charges          5352 (set IRDMAX)


--------------------------------------------------------------------------------------------------------


 initial charge from wavefunction
 First call to EWALD:  gamma=   0.164
 Maximum number of real-space cells 3x 3x 3
 Maximum number of reciprocal cells 3x 2x 3

    FEWALD:  cpu time      0.0718: real time      0.0717


--------------------------------------- Ionic step        1  -------------------------------------------




--------------------------------------- Iteration      1(   1)  ---------------------------------------


    POTLOK:  cpu time      0.0318: real time      0.0318
    SETDIJ:  cpu time      0.1411: real time      0.1411
    TRIAL :  cpu time      2.7993: real time      2.8053
    CORREC:  cpu time      0.0015: real time      0.0015
    --------------------------------------------
      LOOP:  cpu time      3.8638: real time      3.8695

 eigenvalue-minimisations  : 10456
 total energy-change (2. order) :-0.1843377E+05  (-0.5429770E+05)
 number of electron    1041.9999493 magnetization 
 augmentation part      118.3632566 magnetization 

 Free energy of the ion-electron system (eV)
  ---------------------------------------------------
  alpha Z        PSCENC =      5376.25786726
  Ewald energy   TEWEN  =    -86652.75323191
  -Hartree energ DENC   =     -2072.20797061
  -exchange      EXHF   =         0.00000000
  -V(xc)+E(xc)   XCENC  =      2751.48580700
  PAW double counting   =    330938.13845841  -359683.08807477
  entropy T*S    EENTRO =        -0.00829189
  eigenvalues    EBANDS =    -40591.83371463
  atomic energy  EATOM  =    131500.23896116
  ---------------------------------------------------
  free energy    TOTEN  =    -18433.77018998 eV

  energy without entropy =   -18433.76189809  energy(sigma->0) =   -18433.76604403
  exchange ACFDT corr.  =         0.00000000  see jH, gK, PRB 81, 115126


--------------------------------------------------------------------------------------------------------




--------------------------------------- Iteration      1(   2)  ---------------------------------------


    TRIAL :  cpu time      3.0568: real time      3.0562
    CORREC:  cpu time      0.0015: real time      0.0015
    --------------------------------------------
      LOOP:  cpu time      3.0585: real time      3.0589

 eigenvalue-minimisations  : 13200
 total energy-change (2. order) :-0.4450197E+05  (-0.4298187E+05)
 number of electron    1041.9999493 magnetization 
 augmentation part      118.3632566 magnetization 

 Free energy of the ion-electron system (eV)
  ---------------------------------------------------
  alpha Z        PSCENC =      5376.25786726
  Ewald energy   TEWEN  =    -86652.75323191
  -Hartree energ DENC   =     -2072.20797061
  -exchange      EXHF   =         0.00000000
  -V(xc)+E(xc)   XCENC  =      2751.48580700
  PAW double counting   =    330938.13845841  -359683.08807477
  entropy T*S    EENTRO =        -0.01337331
  eigenvalues    EBANDS =    -85093.80110813
  atomic energy  EATOM  =    131500.23896116
  ---------------------------------------------------
  free energy    TOTEN  =    -62935.74266490 eV

  energy without entropy =   -62935.72929159  energy(sigma->0) =   -62935.73597824
  exchange ACFDT corr.  =         0.00000000  see jH, gK, PRB 81, 115126


--------------------------------------------------------------------------------------------------------




--------------------------------------- Iteration      1(   3)  ---------------------------------------


    TRIAL :  cpu time      3.2785: real time      3.2780
    CORREC:  cpu time      0.0016: real time      0.0016
    --------------------------------------------
      LOOP:  cpu time      3.2803: real time      3.2801

 eigenvalue-minimisations  : 14600
 total energy-change (2. order) :-0.5087884E+04  (-0.4617486E+04)
 number of electron    1041.9999493 magnetization 
 augmentation part      118.3632566 magnetization 

 Free energy of the ion-electron system (eV)
  ---------------------------------------------------
  alpha Z        PSCENC =      5376.25786726
  Ewald energy   TEWEN  =    -86652.75323191
  -Hartree energ DENC   =     -2072.20797061
  -exchange      EXHF   =         0.00000000
  -V(xc)+E(xc)   XCENC  =      2751.48580700
  PAW double counting   =    330938.13845841  -359683.08807477
  entropy T*S    EENTRO =        -0.02148514
  eigenvalues    EBANDS =    -90181.67722639
  atomic energy  EATOM  =    131500.23896116
  ---------------------------------------------------
  free energy    TOTEN  =    -68023.62689498 eV

  energy without entropy =   -68023.60540984  energy(sigma->0) =   -68023.61615241
  exchange ACFDT corr.  =         0.00000000  see jH, gK, PRB 81, 115126


--------------------------------------------------------------------------------------------------------




--------------------------------------- Iteration      1(   4)  ---------------------------------------


    TRIAL :  cpu time      3.7158: real time      3.7152
    CORREC:  cpu time      0.0016: real time      0.0016
    --------------------------------------------
      LOOP:  cpu time      3.7176: real time      3.7173

 eigenvalue-minimisations  : 17720
 total energy-change (2. order) :-0.7020213E+03  (-0.6357729E+03)
 number of electron    1041.9999493 magnetization 
 augmentation part      118.3632566 magnetization 

 Free energy of the ion-electron system (eV)
  ---------------------------------------------------
  alpha Z        PSCENC =      5376.25786726
  Ewald energy   TEWEN  =    -86652.75323191
  -Hartree energ DENC   =     -2072.20797061
  -exchange      EXHF   =         0.00000000
  -V(xc)+E(xc)   XCENC  =      2751.48580700
  PAW double counting   =    330938.13845841  -359683.08807477
  entropy T*S    EENTRO =        -0.03836202
  eigenvalues    EBANDS =    -90883.68160613
  atomic energy  EATOM  =    131500.23896116
  ---------------------------------------------------
  free energy    TOTEN  =    -68725.64815161 eV

  energy without entropy =   -68725.60978959  energy(sigma->0) =   -68725.62897060
  exchange ACFDT corr.  =         0.00000000  see jH, gK, PRB 81, 115126


--------------------------------------------------------------------------------------------------------




--------------------------------------- Iteration      1(   5)  ---------------------------------------


    POTLOK:  cpu time      1.4171: real time      1.4168
    SETDIJ:  cpu time      0.4165: real time      0.4164
    TRIAL :  cpu time    229.1997: real time    229.1679
    CORREC:  cpu time      0.0015: real time      0.0015
    CHARGE:  cpu time      0.2040: real time      0.2039
    --------------------------------------------
      LOOP:  cpu time    231.2390: real time    231.2072

 eigenvalue-minimisations  : 17872
 total energy-change (2. order) : 0.2958770E+05  (-0.6892970E+02)
 number of electron    1041.9998640 magnetization 
 augmentation part      476.9656326 magnetization 

 Free energy of the ion-electron system (eV)
  ---------------------------------------------------
  alpha Z        PSCENC =      5376.25786726
  Ewald energy   TEWEN  =    -86652.75323191
  -Hartree energ DENC   =     -2072.20797061
  -exchange      EXHF   =      4713.03808382
  -V(xc)+E(xc)   XCENC  =      1902.00473851
  PAW double counting   =    332145.22307753  -334132.92332109
  entropy T*S    EENTRO =        -0.01150580
  eigenvalues    EBANDS =    -91916.81192577
  atomic energy  EATOM  =    131500.23896116
  ---------------------------------------------------
  free energy    TOTEN  =    -39137.94522690 eV

  energy without entropy =   -39137.93372110  energy(sigma->0) =   -39137.93947400
  exchange ACFDT corr.  =        -0.12843263  see jH, gK, PRB 81, 115126


--------------------------------------------------------------------------------------------------------




--------------------------------------- Iteration      1(   6)  ---------------------------------------


    POTLOK:  cpu time      1.3804: real time      1.3801
    SETDIJ:  cpu time      0.4426: real time      0.4425
    TRIAL :  cpu time    227.8831: real time    227.8453
    CORREC:  cpu time    230.0816: real time    230.0438
    CHARGE:  cpu time      0.2029: real time      0.2029
    --------------------------------------------
      LOOP:  cpu time    459.9924: real time    459.9167

 eigenvalue-minimisations  :     0
 total energy-change (2. order) : 0.6934782E+05  (-0.2295201E+05)
 number of electron    1041.9998056 magnetization 
 augmentation part      451.7267343 magnetization 

 Free energy of the ion-electron system (eV)
  ---------------------------------------------------
  alpha Z        PSCENC =      5376.25786726
  Ewald energy   TEWEN  =    -86652.75323191
  -Hartree energ DENC   =    -78944.20453883
  -exchange      EXHF   =      4809.10051970
  -V(xc)+E(xc)   XCENC  =      3730.19243876
  PAW double counting   =    149670.97696202  -174458.60892393
  entropy T*S    EENTRO =        -0.01195365
  eigenvalues    EBANDS =     75178.68685350
  atomic energy  EATOM  =    131500.23896116
  ---------------------------------------------------
  free energy    TOTEN  =     30209.87540193 eV

  energy without entropy =    30209.88735559  energy(sigma->0) =    30209.88137876
  exchange ACFDT corr.  =        -0.06296196  see jH, gK, PRB 81, 115126


--------------------------------------------------------------------------------------------------------




--------------------------------------- Iteration      1(   7)  ---------------------------------------


    POTLOK:  cpu time      1.4966: real time      1.4964
    SETDIJ:  cpu time      0.4606: real time      0.4605
    TRIAL :  cpu time    227.5758: real time    227.5381
    CORREC:  cpu time    230.0642: real time    230.0276
    CHARGE:  cpu time      0.2016: real time      0.2016
    --------------------------------------------
      LOOP:  cpu time    459.8008: real time    459.7266

 eigenvalue-minimisations  :     0
 total energy-change (2. order) :-0.1998899E+05  (-0.5266180E+04)
 number of electron    1041.9998185 magnetization 
 augmentation part      420.6432772 magnetization 

 Free energy of the ion-electron system (eV)
  ---------------------------------------------------
  alpha Z        PSCENC =      5376.25786726
  Ewald energy   TEWEN  =    -86652.75323191
  -Hartree energ DENC   =    -39525.52063100
  -exchange      EXHF   =      3634.75990981
  -V(xc)+E(xc)   XCENC  =      2828.32241090
  PAW double counting   =    151568.26150782  -168531.02181905
  entropy T*S    EENTRO =        -0.04883495
  eigenvalues    EBANDS =     10022.35732471
  atomic energy  EATOM  =    131500.23896116
  ---------------------------------------------------
  free energy    TOTEN  =     10220.89034604 eV

  energy without entropy =    10220.93918099  energy(sigma->0) =    10220.91476351
  exchange ACFDT corr.  =      -140.57615701  see jH, gK, PRB 81, 115126


--------------------------------------------------------------------------------------------------------




--------------------------------------- Iteration      1(   8)  ---------------------------------------


    POTLOK:  cpu time      1.4948: real time      1.4946
    SETDIJ:  cpu time      0.4602: real time      0.4601
    TRIAL :  cpu time    228.4691: real time    228.4329
    CORREC:  cpu time    229.6717: real time    229.6340
    CHARGE:  cpu time      0.2008: real time      0.2007
    --------------------------------------------
      LOOP:  cpu time    460.2970: real time    460.2276

 eigenvalue-minimisations  :     0
 total energy-change (2. order) :-0.5242074E+04  (-0.2835328E+04)
 number of electron    1041.9998051 magnetization 
 augmentation part      430.5473102 magnetization 

 Free energy of the ion-electron system (eV)
  ---------------------------------------------------
  alpha Z        PSCENC =      5376.25786726
  Ewald energy   TEWEN  =    -86652.75323191
  -Hartree energ DENC   =    -29678.98079910
  -exchange      EXHF   =      3377.60750145
  -V(xc)+E(xc)   XCENC  =      2632.85975074
  PAW double counting   =    140981.01831384  -154971.43003076
  entropy T*S    EENTRO =        -0.02782488
  eigenvalues    EBANDS =     -7585.95279044
  atomic energy  EATOM  =    131500.23896116
  ---------------------------------------------------
  free energy    TOTEN  =      4978.81670729 eV

  energy without entropy =     4978.84453216  energy(sigma->0) =     4978.83061973
  exchange ACFDT corr.  =      -112.16255691  see jH, gK, PRB 81, 115126


--------------------------------------------------------------------------------------------------------




--------------------------------------- Iteration      1(   9)  ---------------------------------------


    POTLOK:  cpu time      1.5248: real time      1.5245
    SETDIJ:  cpu time      0.4161: real time      0.4160
    TRIAL :  cpu time    228.0753: real time    228.0353
    CORREC:  cpu time    229.5642: real time    229.5256
    CHARGE:  cpu time      0.2020: real time      0.2019
    --------------------------------------------
      LOOP:  cpu time    459.7855: real time    459.7071

 eigenvalue-minimisations  :     0
 total energy-change (2. order) :-0.2157516E+04  (-0.1820664E+04)
 number of electron    1041.9998046 magnetization 
 augmentation part      447.1783586 magnetization 

 Free energy of the ion-electron system (eV)
  ---------------------------------------------------
  alpha Z        PSCENC =      5376.25786726
  Ewald energy   TEWEN  =    -86652.75323191
  -Hartree energ DENC   =    -29993.70835478
  -exchange      EXHF   =      3420.94708050
  -V(xc)+E(xc)   XCENC  =      2662.98477655
  PAW double counting   =    139400.41324176  -153913.51512245
  entropy T*S    EENTRO =        -0.01297745
  eigenvalues    EBANDS =     -8979.53695114
  atomic energy  EATOM  =    131500.23896116
  ---------------------------------------------------
  free energy    TOTEN  =      2821.30044207 eV

  energy without entropy =     2821.31341952  energy(sigma->0) =     2821.30693080
  exchange ACFDT corr.  =       -52.27161561  see jH, gK, PRB 81, 115126


--------------------------------------------------------------------------------------------------------




--------------------------------------- Iteration      1(  10)  ---------------------------------------


    POTLOK:  cpu time      1.4941: real time      1.4941
    SETDIJ:  cpu time      0.4305: real time      0.4305
    TRIAL :  cpu time    227.6957: real time    227.6564
    CORREC:  cpu time    229.7158: real time    229.6730
    CHARGE:  cpu time      0.2012: real time      0.2012
    --------------------------------------------
      LOOP:  cpu time    459.5392: real time    459.4573

 eigenvalue-minimisations  :     0
 total energy-change (2. order) :-0.1556693E+04  (-0.1135805E+04)
 number of electron    1041.9998071 magnetization 
 augmentation part      452.6942958 magnetization 

 Free energy of the ion-electron system (eV)
  ---------------------------------------------------
  alpha Z        PSCENC =      5376.25786726
  Ewald energy   TEWEN  =    -86652.75323191
  -Hartree energ DENC   =    -32087.02420029
  -exchange      EXHF   =      3558.92101222
  -V(xc)+E(xc)   XCENC  =      2760.83779796
  PAW double counting   =    143661.46351839  -159237.53172167
  entropy T*S    EENTRO =        -0.00751137
  eigenvalues    EBANDS =     -7615.78959278
  atomic energy  EATOM  =    131500.23896116
  ---------------------------------------------------
  free energy    TOTEN  =      1264.60743289 eV

  energy without entropy =     1264.61494426  energy(sigma->0) =     1264.61118857
  exchange ACFDT corr.  =        -0.57784726  see jH, gK, PRB 81, 115126


--------------------------------------------------------------------------------------------------------




--------------------------------------- Iteration      1(  11)  ---------------------------------------


    POTLOK:  cpu time      1.4793: real time      1.4791
    SETDIJ:  cpu time      0.4611: real time      0.4610
    TRIAL :  cpu time    227.3893: real time    227.3505
    CORREC:  cpu time    229.5698: real time    229.5372
    CHARGE:  cpu time      0.2019: real time      0.2018
    --------------------------------------------
      LOOP:  cpu time    459.1035: real time    459.0322

[...]
   0.667E-06 0.655E+02 -.593E+02   0.560E-10 -.636E+02 0.613E+02   0.000E+00 -.170E+01 -.187E+01
   0.233E+02 0.418E+02 -.116E+02   -.219E+02 -.405E+02 0.128E+02   -.118E+01 -.110E+01 -.118E+01
   0.284E+01 0.738E+02 -.620E+02   -.299E+01 -.719E+02 0.643E+02   0.124E+00 -.164E+01 -.214E+01
   -.233E+02 0.418E+02 -.116E+02   0.219E+02 -.405E+02 0.128E+02   0.118E+01 -.110E+01 -.118E+01
   -.284E+01 0.738E+02 -.620E+02   0.299E+01 -.719E+02 0.643E+02   -.124E+00 -.164E+01 -.214E+01
   0.239E-04 0.439E+02 0.107E+03   0.324E-10 -.366E+02 -.115E+03   0.000E+00 -.631E+01 0.656E+01
   -.292E-04 -.213E+02 -.837E+02   0.601E-11 0.316E+02 0.824E+02   0.000E+00 -.890E+01 0.112E+01
   0.221E+02 -.849E+01 0.469E+02   -.224E+02 0.161E+02 -.502E+02   0.278E+00 -.651E+01 0.288E+01
   0.875E+01 -.231E+02 -.349E+02   -.718E+01 0.323E+02 0.317E+02   -.135E+01 -.793E+01 0.273E+01
   -.221E+02 -.849E+01 0.469E+02   0.224E+02 0.161E+02 -.502E+02   -.278E+00 -.651E+01 0.288E+01
   -.875E+01 -.231E+02 -.349E+02   0.718E+01 0.323E+02 0.317E+02   0.135E+01 -.793E+01 0.273E+01
   -.516E+01 -.829E+01 -.320E+02   0.406E+01 -.250E+00 0.372E+02   0.960E+00 0.737E+01 -.450E+01
   -.797E+01 0.150E+02 -.279E+01   0.828E+01 -.228E+02 0.634E+01   -.269E+00 0.670E+01 -.306E+01
   0.516E+01 -.829E+01 -.320E+02   -.406E+01 -.250E+00 0.372E+02   -.960E+00 0.737E+01 -.450E+01
   0.797E+01 0.150E+02 -.279E+01   -.828E+01 -.228E+02 0.634E+01   0.269E+00 0.670E+01 -.306E+01
   0.362E-05 0.861E+01 -.147E+02   0.117E-11 -.169E+02 0.186E+02   0.000E+00 0.712E+01 -.336E+01
   0.387E-05 0.200E+02 -.130E+02   0.626E-11 -.278E+02 0.174E+02   0.000E+00 0.672E+01 -.380E+01
   -.613E-04 -.986E+02 0.323E+02   0.151E-10 0.885E+02 -.187E+02   0.000E+00 0.873E+01 -.118E+02
   0.188E-04 0.530E+02 0.379E+02   0.172E-11 -.509E+02 -.326E+02   0.000E+00 -.177E+01 -.454E+01
   0.406E+02 0.305E+02 0.745E+02   -.408E+02 -.281E+02 -.705E+02   0.212E+00 -.202E+01 -.343E+01
   -.715E+00 0.490E+02 0.395E+02   0.146E+01 -.465E+02 -.355E+02   -.640E+00 -.218E+01 -.348E+01
   -.406E+02 0.305E+02 0.745E+02   0.408E+02 -.281E+02 -.705E+02   -.212E+00 -.202E+01 -.343E+01
   0.715E+00 0.490E+02 0.395E+02   -.146E+01 -.465E+02 -.355E+02   0.640E+00 -.218E+01 -.348E+01
   -.163E+03 -.812E+02 0.934E+02   0.169E+03 0.805E+02 -.100E+03   -.522E+01 0.630E+00 0.603E+01
   -.823E+01 -.752E+02 -.611E+02   0.851E+01 0.719E+02 0.557E+02   -.238E+00 0.281E+01 0.462E+01
   0.163E+03 -.812E+02 0.934E+02   -.169E+03 0.805E+02 -.100E+03   0.522E+01 0.630E+00 0.603E+01
   0.823E+01 -.752E+02 -.611E+02   -.851E+01 0.719E+02 0.557E+02   0.238E+00 0.281E+01 0.462E+01
   -.708E-05 -.701E+02 -.149E+02   0.165E-10 0.675E+02 0.122E+02   0.000E+00 0.220E+01 0.234E+01
   -.175E-04 -.821E+02 -.526E+02   0.206E-11 0.804E+02 0.471E+02   0.000E+00 0.146E+01 0.475E+01
   -.668E+02 0.249E+02 -.696E+02   0.524E+02 -.380E+02 0.676E+02   0.125E+02 0.112E+02 0.166E+01
   -.109E+02 0.118E+03 0.926E+02   0.104E+02 -.131E+03 -.898E+02   0.462E+00 0.108E+02 -.236E+01
   0.668E+02 0.249E+02 -.696E+02   -.524E+02 -.380E+02 0.676E+02   -.125E+02 0.112E+02 0.166E+01
   0.109E+02 0.118E+03 0.926E+02   -.104E+02 -.131E+03 -.898E+02   -.462E+00 0.108E+02 -.236E+01
   -.281E-04 0.962E+02 0.538E+02   0.337E-11 -.108E+03 -.498E+02   0.000E+00 0.979E+01 -.349E+01
   -.973E-05 0.123E+03 0.734E+02   0.768E-11 -.136E+03 -.703E+02   0.000E+00 0.116E+02 -.271E+01
   0.195E-04 -.141E+03 0.147E+02   0.245E-10 0.153E+03 -.175E+02   0.000E+00 -.103E+02 0.243E+01
   0.419E-05 -.159E+03 -.954E+02   0.763E-11 0.171E+03 0.916E+02   0.000E+00 -.110E+02 0.329E+01
   0.101E+02 -.128E+03 -.445E+02   -.917E+01 0.140E+03 0.420E+02   -.841E+00 -.107E+02 0.217E+01
   0.131E+02 -.154E+03 -.878E+02   -.137E+02 0.167E+03 0.843E+02   0.531E+00 -.110E+02 0.302E+01
   -.101E+02 -.128E+03 -.445E+02   0.917E+01 0.140E+03 0.420E+02   0.841E+00 -.107E+02 0.217E+01
   -.131E+02 -.154E+03 -.878E+02   0.137E+02 0.167E+03 0.843E+02   -.531E+00 -.110E+02 0.302E+01
   -.218E+02 -.379E+02 0.503E+02   0.217E+02 0.440E+02 -.550E+02   0.946E-01 -.529E+01 0.404E+01
   -.876E+00 -.165E+02 0.706E+00   0.849E+00 0.231E+02 -.431E+01   0.242E-01 -.570E+01 0.311E+01
   0.218E+02 -.379E+02 0.503E+02   -.217E+02 0.440E+02 -.550E+02   -.946E-01 -.529E+01 0.404E+01
   0.876E+00 -.165E+02 0.706E+00   -.849E+00 0.231E+02 -.431E+01   -.242E-01 -.570E+01 0.311E+01
   0.306E-05 -.173E+02 0.285E+02   0.322E-10 0.241E+02 -.324E+02   0.000E+00 -.584E+01 0.331E+01
   -.277E-05 -.187E+02 -.236E+01   0.314E-10 0.257E+02 -.105E+01   0.000E+00 -.602E+01 0.294E+01
   -.337E-04 0.179E+02 -.158E+02   0.262E-10 -.248E+02 0.199E+02   0.000E+00 0.592E+01 -.349E+01
   0.770E+02 -.738E+00 0.128E+02   -.800E+02 0.354E+00 -.124E+02   0.265E+01 0.297E+00 -.338E+00
   0.345E+01 0.124E+02 -.249E+02   -.335E+01 -.190E+02 0.293E+02   -.861E-01 0.569E+01 -.380E+01
   -.770E+02 -.738E+00 0.128E+02   0.800E+02 0.354E+00 -.124E+02   -.265E+01 0.297E+00 -.338E+00
   -.345E+01 0.124E+02 -.249E+02   0.335E+01 -.190E+02 0.293E+02   0.861E-01 0.569E+01 -.380E+01
   0.143E+02 0.135E+03 0.771E+02   -.159E+02 -.137E+03 -.762E+02   0.136E+01 0.170E+01 -.730E+00
   0.868E+00 0.809E+02 0.151E+02   -.121E+01 -.792E+02 -.959E+01   0.295E+00 -.154E+01 -.476E+01
   -.143E+02 0.135E+03 0.771E+02   0.159E+02 -.137E+03 -.762E+02   -.136E+01 0.170E+01 -.730E+00
   -.868E+00 0.809E+02 0.151E+02   0.121E+01 -.792E+02 -.959E+01   -.295E+00 -.154E+01 -.476E+01
   0.162E-04 0.947E+02 0.657E+02   0.807E-11 -.927E+02 -.617E+02   0.000E+00 -.169E+01 -.342E+01
   0.270E-04 0.808E+02 0.112E+02   0.102E-10 -.796E+02 -.540E+01   0.000E+00 -.106E+01 -.501E+01
   -.929E-05 -.636E+02 -.303E+02   0.109E-10 0.613E+02 0.251E+02   0.000E+00 0.205E+01 0.447E+01
   -.644E-05 -.552E+02 -.468E+02   0.222E-10 0.537E+02 0.419E+02   0.000E+00 0.135E+01 0.423E+01
   0.291E+01 -.575E+02 -.302E+02   -.287E+01 0.554E+02 0.254E+02   -.284E-01 0.185E+01 0.419E+01
   0.193E+01 -.456E+02 -.523E+02   -.207E+01 0.432E+02 0.476E+02   0.129E+00 0.214E+01 0.408E+01
   -.291E+01 -.575E+02 -.302E+02   0.287E+01 0.554E+02 0.254E+02   0.284E-01 0.185E+01 0.419E+01
   -.193E+01 -.456E+02 -.523E+02   0.207E+01 0.432E+02 0.476E+02   -.129E+00 0.214E+01 0.408E+01
   -.803E-05 0.132E+03 0.525E+02   0.776E-11 -.145E+03 -.488E+02   0.000E+00 0.104E+02 -.320E+01
   0.476E-05 0.124E+03 0.712E+02   0.234E-10 -.136E+03 -.677E+02   0.000E+00 0.106E+02 -.303E+01
   0.421E+01 0.147E+03 0.540E+02   -.439E+01 -.159E+03 -.503E+02   0.155E+00 0.108E+02 -.315E+01
   0.411E+00 0.125E+03 0.677E+02   -.810E-01 -.138E+03 -.644E+02   -.286E+00 0.106E+02 -.283E+01
   -.421E+01 0.147E+03 0.540E+02   0.439E+01 -.159E+03 -.503E+02   -.155E+00 0.108E+02 -.315E+01
   -.411E+00 0.125E+03 0.677E+02   0.810E-01 -.138E+03 -.644E+02   0.286E+00 0.106E+02 -.283E+01
   -.565E+01 -.104E+03 -.490E+02   0.542E+01 0.116E+03 0.448E+02   0.203E+00 -.105E+02 0.370E+01
   0.162E+02 -.766E+02 -.132E+03   -.175E+02 0.882E+02 0.135E+03   0.108E+01 -.100E+02 -.201E+01
   0.565E+01 -.104E+03 -.490E+02   -.542E+01 0.116E+03 0.448E+02   -.203E+00 -.105E+02 0.370E+01
   -.162E+02 -.766E+02 -.132E+03   0.175E+02 0.882E+02 0.135E+03   -.108E+01 -.100E+02 -.201E+01
   0.274E-04 -.114E+03 -.511E+02   0.803E-11 0.127E+03 0.469E+02   0.000E+00 -.108E+02 0.359E+01
   -.903E-05 -.970E+02 -.969E+02   0.774E-11 0.109E+03 0.945E+02   0.000E+00 -.103E+02 0.205E+01
   -.800E-04 -.142E+03 -.231E+02   0.616E-11 0.162E+03 0.321E+02   0.000E+00 -.198E+02 -.908E+01
 -----------------------------------------------------------------------------------------------
   0.905E-04 0.351E+02 0.776E+01   0.167E-12 -.193E-11 -.111E-11   -.222E-15 -.324E+02 -.862E+01
 
 
 POSITION                                       TOTAL-FORCE (eV/Angst)
 -----------------------------------------------------------------------------------
      9.08242      7.72255     -1.72281        -0.146704      0.186607      0.084330
      9.13535      6.27597     -7.44445        -0.001617      0.059720     -0.000470
      3.10785      7.72255     -1.72281         0.146704      0.186607      0.084330
      3.05492      6.27597     -7.44445         0.001617      0.059720     -0.000470
      6.09513      7.67440     -1.76150         0.000000      0.050684      0.052192
      6.09513      6.30171     -7.40572         0.000000      0.069573     -0.012332
      1.52378      7.99668     -9.56057         0.000000     -0.072333     -0.028483
      4.57986      9.45556     -3.78946         0.066571     -0.004392      0.222710
      4.57033      8.01249     -9.53526         0.006603     -0.061294     -0.029775
      7.61041      9.45556     -3.78946        -0.066571     -0.004392      0.222710
      7.61994      8.01249     -9.53526        -0.006603     -0.061294     -0.029775
      1.52378      6.13057     -4.55225         0.000000     -0.046949     -0.076487
      1.52378      4.77846    -10.17062         0.000000     -0.038942      0.043202
      4.57464      6.17853     -4.49134         0.012890     -0.020205      0.031559
      4.58327      4.76176    -10.10409         0.005945     -0.019322     -0.018484
      7.61563      6.17853     -4.49134        -0.012890     -0.020205      0.031559
      7.60700      4.76176    -10.10409        -0.005945     -0.019322     -0.018484
      9.13122     10.91535     -1.17121        -0.039129     -0.043733     -0.076053
      0.00936      9.51030     -6.86336         0.023438      0.056838     -0.073684
      3.05905     10.91535     -1.17121         0.039129     -0.043733     -0.076053
      3.03820      9.51030     -6.86336        -0.023438      0.056838     -0.073684
      6.09513     10.92696     -1.12574         0.000000      0.025389     -0.018311
      6.09513      9.49450     -6.78170         0.000000      0.076771     -0.023615
      1.52378      1.55368     -1.79191         0.000000      0.060161     -0.070230
      1.52378      0.18654     -7.41494         0.000000      0.099083      0.107984
      4.56722      1.54659     -1.78963        -0.027228      0.040031     -0.043085
      4.56191      0.14783     -7.38523        -0.027798      0.102103      0.098939
      7.62305      1.54659     -1.78963         0.027228      0.040031     -0.043085
      7.62836      0.14783     -7.38523         0.027798      0.102103      0.098939
      9.13767      3.23687     -3.88577        -0.006705     -0.144209      0.000979
      9.14193      1.85776     -9.53695         0.001400     -0.073650      0.003356
      3.05260      3.23687     -3.88577         0.006705     -0.144209      0.000979
      3.04834      1.85776     -9.53695        -0.001400     -0.073650      0.003356
      6.09513      3.24904     -3.88870         0.000000     -0.086409     -0.017419
      6.09513      1.83796     -9.52584         0.000000     -0.061539      0.019268
      0.28522     -0.02471     -4.47307        -0.331689      0.339249     -0.108238
      0.00065     -1.35008    -10.15096        -0.005238     -0.000170      0.008513
      2.76235     -0.02471     -4.47307         0.331689      0.339249     -0.108238
      3.04691     -1.35008    -10.15096         0.005238     -0.000170      0.008513
      6.09513     -0.02123     -4.46995         0.000000      0.133948     -0.061354
      6.09513     -1.34799    -10.15167         0.000000     -0.005840      0.032382
      1.52378      4.78345     -1.17486         0.000000     -0.018243     -0.023900
      1.52378      3.37200     -6.81999         0.000000     -0.004307     -0.001640
      4.56435      4.77125     -1.16961         0.040265     -0.007367     -0.027305
      4.57660      3.36485     -6.81379        -0.010103      0.000450      0.014042
      7.62592      4.77125     -1.16961        -0.040265     -0.007367     -0.027305
      7.61367      3.36485     -6.81379         0.010103      0.000450      0.014042
      1.52378     11.87188     -1.55500         0.000000     -0.152893      0.260568
      1.52378     10.53532     -7.03767         0.000000     -0.297057      0.029569
      4.58076     11.92904     -1.41620         0.010303     -0.188214      0.111046
      4.56474     10.48991     -7.05949        -0.037467     -0.238822      0.092422
      7.60951     11.92904     -1.41620        -0.010303     -0.188214      0.111046
      7.62553     10.48991     -7.05949         0.037467     -0.238822      0.092422
      9.14193      5.17832     -4.20416         0.040865      0.226758     -0.156596
      0.00420      3.77802     -9.87313        -0.010472      0.184463     -0.108728
      3.04833      5.17832     -4.20416        -0.040865      0.226758     -0.156596
      3.04337      3.77802     -9.87313         0.010472      0.184463     -0.108728
      6.09513      5.17547     -4.21758         0.000000      0.208727     -0.125629
      6.09513      3.75624     -9.81340         0.000000      0.189739     -0.133983
      1.52378      7.66268     -3.37288         0.000000      0.372610     -0.437706
      1.52378      6.10765     -8.85569         0.000000     -0.038703     -0.125814
      4.57979      7.51666     -3.18344         0.011615     -0.058863     -0.093276
      4.57274      6.11718     -8.81457        -0.023347     -0.055175     -0.085736
      7.61048      7.51666     -3.18344        -0.011615     -0.058863     -0.093276
      7.61753      6.11718     -8.81457         0.023347     -0.055175     -0.085736
      8.96936      9.53601     -2.38391        -0.288524     -0.039563      0.223415
      0.00859      8.17409     -8.14661        -0.009853      0.076993      0.131880
      3.22091      9.53601     -2.38391         0.288524     -0.039563      0.223415
      3.03898      8.17409     -8.14661         0.009853      0.076993      0.131880
      6.09513      9.59655     -2.44122         0.000000      0.052652      0.046409
      6.09513      8.18582     -8.11834         0.000000      0.022547      0.143276
      0.15485      8.90692     -5.07277         0.476598      0.366591      0.108946
      9.14175      7.62771    -10.70108         0.015472      0.395233     -0.038588
      2.89272      8.90692     -5.07277        -0.476598      0.366591      0.108946
      3.04852      7.62771    -10.70108        -0.015472      0.395233     -0.038588
      6.09513      9.06278     -4.98911         0.000000      0.346443     -0.079438
      6.09513      7.61704    -10.67126         0.000000      0.423865     -0.055050
      1.52378      8.04706     -0.65821         0.000000     -0.390019      0.075473
      1.52378      6.65067     -6.30840         0.000000     -0.390228      0.105607
      4.61222      8.02970     -0.56511        -0.036663     -0.388842      0.045514
      4.56237      6.70841     -6.25940         0.019951     -0.410357      0.073147
      7.57805      8.02970     -0.56511         0.036663     -0.388842      0.045514
      7.62790      6.70841     -6.25940        -0.019951     -0.410357      0.073147
      0.00460      5.80082     -1.48164         0.006017     -0.151501      0.143361
      9.13684      4.37131     -7.10292         0.003227     -0.137238      0.106810
      3.04297      5.80082     -1.48164        -0.006017     -0.151501      0.143361
      3.05343      4.37131     -7.10292        -0.003227     -0.137238      0.106810
      6.09513      5.76303     -1.45059         0.000000     -0.150176      0.116705
      6.09513      4.38792     -7.08627         0.000000     -0.156597      0.100368
      1.52378     -2.36277     -9.85678         0.000000      0.159441     -0.122807
      4.45632     -0.95859     -4.23397         0.095555     -0.040181     -0.015347
      4.57127     -2.35346     -9.84495        -0.005576      0.148049     -0.133473
      7.73395     -0.95859     -4.23397        -0.095555     -0.040181     -0.015347
      7.61900     -2.35346     -9.84495         0.005576      0.148049     -0.133473
      9.13269      1.37593     -3.15980         0.030689      0.104783      0.021020
      0.00361     -0.02979     -8.82606         0.011545     -0.036160     -0.143528
      3.05758      1.37593     -3.15980        -0.030689      0.104783      0.021020
      3.04396     -0.02979     -8.82606        -0.011545     -0.036160     -0.143528
      6.09513      1.34622     -3.17960         0.000000     -0.027540     -0.072443
      6.09513     -0.03944     -8.80724         0.000000     -0.017889     -0.155303
      1.52378      3.45740     -2.48719         0.000000      0.059797      0.130808
      1.52378      2.05883     -8.15135         0.000000      0.025765      0.113598
      4.57649      3.44598     -2.48706        -0.003615      0.056062      0.123278
      4.57307      2.03588     -8.13094         0.005813      0.060712      0.108791
      7.61378      3.44598     -2.48706         0.003615      0.056062      0.123278
      7.61720      2.03588     -8.13094        -0.005813      0.060712      0.108791
      1.52378      2.89115     -5.04676         0.000000      0.398613     -0.081836
      1.52378      1.49794    -10.70846         0.000000      0.385680     -0.083355
      4.57558      2.88407     -5.04403         0.007645      0.407032     -0.082072
      4.56715      1.48789    -10.70079        -0.010691      0.385950     -0.067809
      7.61469      2.88407     -5.04403        -0.007645      0.407032     -0.082072
      7.62312      1.48789    -10.70079         0.010691      0.385950     -0.067809
      0.00836      1.92170     -0.61299         0.007894     -0.383410      0.100803
      9.14236      0.53790     -6.26698         0.011359     -0.369101     -0.134559
      3.03921      1.92170     -0.61299        -0.007894     -0.383410      0.100803
      3.04791      0.53790     -6.26698        -0.011359     -0.369101     -0.134559
      6.09513      1.94003     -0.61660         0.000000     -0.397160      0.098372
      6.09513      0.49498     -6.24363         0.000000     -0.377295      0.027628
      1.52378      9.22158     -4.10274         0.000000     -1.083077     -0.532378
 -----------------------------------------------------------------------------------
    total drift:                                0.000091      0.119015     -0.104500


--------------------------------------------------------------------------------------------------------



  FREE ENERGIE OF THE ION-ELECTRON SYSTEM (eV)
  ---------------------------------------------------
  free  energy   TOTEN  =      -947.53039428 eV

  energy  without entropy=     -947.53039428  energy(sigma->0) =     -947.53039428
 


--------------------------------------------------------------------------------------------------------


    POTLOK:  cpu time      1.9689: real time      1.9762


--------------------------------------------------------------------------------------------------------


 writing wavefunctions
     LOOP+:  cpu time  18015.5647: real time  18015.1387
    4ORBIT:  cpu time      0.0000: real time      0.0000

 total amount of memory used by VASP MPI-rank0  7418508. kBytes
=======================================================================

   base      :      30000. kBytes
   nonlr-proj:      46606. kBytes
   fftplans  :      51012. kBytes
   grid      :     102973. kBytes
   one-center:       1850. kBytes
   HF        :        194. kBytes
   wavefun   :    6956640. kBytes
   fock_wrk  :     229233. kBytes
 
  
  
 General timing and accounting informations for this job:
 ========================================================
  
                  Total CPU time used (sec):    18047.061
                            User time (sec):    18035.111
                          System time (sec):       11.950
                         Elapsed time (sec):    18049.016
  
                   Maximum memory used (kb):    13203264.
                   Average memory used (kb):          N/A
  
                          Minor page faults:      5096165
                          Major page faults:            2
                 Voluntary context switches:       347597
