<?xml version="1.0" encoding="ISO-8859-1"?>
<modeling>
 <generator>
  <i name="program" type="string">vasp </i>
  <i name="version" type="string">6.4.2  </i>
  <i name="subversion" type="string">20Jul23 (build Nov 12 2023 22:16:35) complex                          parallel </i>
  <i name="platform" type="string">LinuxNV </i>
  <i name="date" type="string">2025 03 28 </i>
  <i name="time" type="string">19:38:17 </i>
 </generator>
 <incar>
  <i type="int" name="ISTART">     0</i>
  <i type="string" name="PREC">Normal</i>
  <i type="string" name="ALGO">All</i>
  <i type="int" name="ISPIN">     1</i>
  <i type="int" name="ICHARG">     0</i>
  <i type="int" name="NELM">   500</i>
  <i type="int" name="IBRION">    -1</i>
  <i name="EDIFF">      0.00001000</i>
  <i name="EDIFFG">     -0.00500000</i>
  <i type="int" name="NSW">     0</i>
  <i type="int" name="ISIF">     2</i>
  <i name="ENCUT">    450.00000000</i>
  <i type="string" name="LREAL">Auto</i>
  <i type="logical" name="LPLANE"> T  </i>
  <i name="TIME">      0.40000000</i>
  <i type="int" name="ISMEAR">     0</i>
  <i name="SIGMA">      0.05000000</i>
  <i type="logical" name="LWAVE"> T  </i>
  <i type="logical" name="LCHARG"> T  </i>
  <i name="HFSCREEN">      0.20000000</i>
  <i type="logical" name="LHFCALC"> T  </i>
  <i type="int" name="LMAXFOCK">     4</i>
  <i name="AEXX">      0.32000000</i>
  <i type="string" name="PRECFOCK">Fast</i>
 </incar>
 <primitive_cell>
  <structure name="primitive_cell" >
   <crystal>
    <varray name="basis" >
     <v>       0.00000000      12.28047342       0.00000000 </v>
     <v>       9.14270205       0.00000000       0.00000000 </v>
     <v>       0.00000000      -2.76826177     -11.30069772 </v>
    </varray>
    <i name="volume">   1268.80515525 </i>
    <varray name="rec_basis" >
     <v>       0.00000000       0.08143009      -0.01994742 </v>
     <v>       0.10937686      -0.00000000       0.00000000 </v>
     <v>       0.00000000       0.00000000      -0.08849011 </v>
    </varray>
   </crystal>
   <varray name="positions" >
    <v>       0.66321357       0.99340610       0.15245181 </v>
    <v>       0.65955000       0.99919605       0.65876011 </v>
    <v>       0.66321357       0.33992723       0.15245181 </v>
    <v>       0.65955000       0.33413729       0.65876011 </v>
    <v>       0.66006421       0.66666667       0.15587495 </v>
    <v>       0.66087404       0.66666667       0.65533275 </v>
    <v>       0.84187901       0.16666667       0.84601587 </v>
    <v>       0.84555697       0.50093069       0.33532998 </v>
    <v>       0.84266196       0.49988791       0.84377652 </v>
    <v>       0.84555697       0.83240264       0.33532998 </v>
    <v>       0.84266196       0.83344543       0.84377652 </v>
    <v>       0.59001836       0.16666667       0.40282926 </v>
    <v>       0.59198837       0.16666667       0.89999951 </v>
    <v>       0.59270907       0.50035921       0.39743955 </v>
    <v>       0.58930135       0.50130392       0.89411166 </v>
    <v>       0.59270907       0.83297412       0.39743955 </v>
    <v>       0.58930135       0.83202941       0.89411166 </v>
    <v>       0.91220035       0.99874422       0.10364042 </v>
    <v>       0.91133059       0.00102406       0.60733915 </v>
    <v>       0.91220035       0.33458911       0.10364042 </v>
    <v>       0.91133059       0.33230927       0.60733915 </v>
    <v>       0.91223911       0.66666667       0.09961718 </v>
    <v>       0.90841506       0.66666667       0.60011346 </v>
    <v>       0.16225995       0.16666667       0.15856615 </v>
    <v>       0.16309913       0.16666667       0.65614853 </v>
    <v>       0.16163751       0.49954771       0.15836430 </v>
    <v>       0.15935447       0.49896695       0.65351962 </v>
    <v>       0.16163751       0.83378562       0.15836430 </v>
    <v>       0.15935447       0.83436638       0.65351962 </v>
    <v>       0.34108936       0.99944974       0.34385220 </v>
    <v>       0.34151516       0.99991600       0.84392570 </v>
    <v>       0.34108936       0.33388359       0.34385220 </v>
    <v>       0.34151516       0.33341734       0.84392570 </v>
    <v>       0.34213929       0.66666667       0.34411142 </v>
    <v>       0.33968096       0.66666667       0.84294240 </v>
    <v>       0.08721438       0.03119665       0.39582290 </v>
    <v>       0.09254864       0.00007140       0.89825922 </v>
    <v>       0.08721438       0.30213668       0.39582290 </v>
    <v>       0.09254864       0.33326194       0.89825922 </v>
    <v>       0.08743528       0.66666667       0.39554640 </v>
    <v>       0.09273250       0.66666667       0.89832225 </v>
    <v>       0.41295216       0.16666667       0.10396344 </v>
    <v>       0.41062371       0.16666667       0.60350137 </v>
    <v>       0.41185419       0.49923469       0.10349854 </v>
    <v>       0.40991758       0.50057387       0.60295293 </v>
    <v>       0.41185419       0.83409865       0.10349854 </v>
    <v>       0.40991758       0.83275946       0.60295293 </v>
    <v>       0.99774679       0.16666667       0.13760204 </v>
    <v>       0.99827549       0.16666667       0.62276403 </v>
    <v>       0.99963215       0.50102925       0.12531981 </v>
    <v>       0.99501257       0.49927661       0.62469466 </v>
    <v>       0.99963215       0.83230409       0.12531981 </v>
    <v>       0.99501257       0.83405672       0.62469466 </v>
    <v>       0.50553325       0.99991609       0.37202630 </v>
    <v>       0.50458761       0.00045929       0.87367445 </v>
    <v>       0.50553325       0.33341724       0.37202630 </v>
    <v>       0.50458761       0.33287404       0.87367445 </v>
    <v>       0.50556897       0.66666667       0.37321391 </v>
    <v>       0.50162285       0.66666667       0.86838905 </v>
    <v>       0.69125301       0.16666667       0.29846643 </v>
    <v>       0.67399468       0.16666667       0.78364100 </v>
    <v>       0.67558340       0.50092321       0.28170273 </v>
    <v>       0.67395078       0.50015197       0.78000216 </v>
    <v>       0.67558340       0.83241012       0.28170273 </v>
    <v>       0.67395078       0.83318136       0.78000216 </v>
    <v>       0.82407134       0.98104011       0.21095237 </v>
    <v>       0.82812081       0.00093956       0.72089423 </v>
    <v>       0.82407134       0.35229323       0.21095237 </v>
    <v>       0.82812081       0.33239377       0.72089423 </v>
    <v>       0.83014428       0.66666667       0.21602386 </v>
    <v>       0.82851175       0.66666667       0.71839289 </v>
    <v>       0.82648019       0.01693656       0.44889008 </v>
    <v>       0.83458369       0.99989590       0.94693956 </v>
    <v>       0.82648019       0.31639677       0.44889008 </v>
    <v>       0.83458369       0.33343743       0.94693956 </v>
    <v>       0.83750311       0.66666667       0.44148731 </v>
    <v>       0.83312026       0.66666667       0.94430125 </v>
    <v>       0.66840242       0.16666667       0.05824493 </v>
    <v>       0.66740092       0.16666667       0.55823143 </v>
    <v>       0.66513173       0.50447031       0.05000657 </v>
    <v>       0.67112488       0.49901778       0.55389486 </v>
    <v>       0.66513173       0.82886302       0.05000657 </v>
    <v>       0.67112488       0.83431555       0.55389486 </v>
    <v>       0.50191653       0.00050262       0.13111043 </v>
    <v>       0.49764149       0.99935834       0.62853847 </v>
    <v>       0.50191653       0.33283072       0.13111043 </v>
    <v>       0.49764149       0.33397500       0.62853847 </v>
    <v>       0.49821932       0.66666667       0.12836278 </v>
    <v>       0.49866121       0.66666667       0.62706480 </v>
    <v>       0.00421700       0.16666667       0.87222737 </v>
    <v>       0.00639894       0.48741856       0.37466479 </v>
    <v>       0.00473898       0.49999153       0.87118102 </v>
    <v>       0.00639894       0.84591478       0.37466479 </v>
    <v>       0.00473898       0.83334180       0.87118102 </v>
    <v>       0.17507225       0.99890453       0.27961065 </v>
    <v>       0.17363170       0.00039468       0.78101917 </v>
    <v>       0.17507225       0.33442880       0.27961065 </v>
    <v>       0.17363170       0.33293865       0.78101917 </v>
    <v>       0.17304752       0.66666667       0.28136279 </v>
    <v>       0.17247054       0.66666667       0.77935407 </v>
    <v>       0.33114916       0.16666667       0.22009209 </v>
    <v>       0.33024942       0.16666667       0.72131374 </v>
    <v>       0.33021702       0.50056226       0.22008038 </v>
    <v>       0.32797323       0.50018808       0.71950792 </v>
    <v>       0.33021702       0.83277108       0.22008038 </v>
    <v>       0.32797323       0.83314526       0.71950792 </v>
    <v>       0.33609632       0.16666667       0.44658815 </v>
    <v>       0.33558376       0.16666667       0.94759254 </v>
    <v>       0.33546562       0.50046277       0.44634693 </v>
    <v>       0.33461195       0.49954093       0.94691367 </v>
    <v>       0.33546562       0.83287057       0.44634693 </v>
    <v>       0.33461195       0.83379240       0.94691367 </v>
    <v>       0.16871185       0.00091429       0.05424312 </v>
    <v>       0.16881161       0.99996261       0.55456553 </v>
    <v>       0.16871185       0.33241904       0.05424312 </v>
    <v>       0.16881161       0.33337073       0.55456553 </v>
    <v>       0.17027638       0.66666667       0.05456315 </v>
    <v>       0.16485107       0.66666667       0.55249993 </v>
    <v>       0.83275343       0.16666667       0.36305175 </v>
   </varray>
  </structure>
  <varray name="primitive_index" >
   <v type="int" >        1 </v>
   <v type="int" >        2 </v>
   <v type="int" >        3 </v>
   <v type="int" >        4 </v>
   <v type="int" >        5 </v>
   <v type="int" >        6 </v>
   <v type="int" >        7 </v>
   <v type="int" >        8 </v>
   <v type="int" >        9 </v>
   <v type="int" >       10 </v>
   <v type="int" >       11 </v>
   <v type="int" >       12 </v>
   <v type="int" >       13 </v>
   <v type="int" >       14 </v>
   <v type="int" >       15 </v>
   <v type="int" >       16 </v>
   <v type="int" >       17 </v>
   <v type="int" >       18 </v>
   <v type="int" >       19 </v>
   <v type="int" >       20 </v>
   <v type="int" >       21 </v>
   <v type="int" >       22 </v>
   <v type="int" >       23 </v>
   <v type="int" >       24 </v>
   <v type="int" >       25 </v>
   <v type="int" >       26 </v>
   <v type="int" >       27 </v>
   <v type="int" >       28 </v>
   <v type="int" >       29 </v>
   <v type="int" >       30 </v>
   <v type="int" >       31 </v>
   <v type="int" >       32 </v>
   <v type="int" >       33 </v>
   <v type="int" >       34 </v>
   <v type="int" >       35 </v>
   <v type="int" >       36 </v>
   <v type="int" >       37 </v>
   <v type="int" >       38 </v>
   <v type="int" >       39 </v>
   <v type="int" >       40 </v>
   <v type="int" >       41 </v>
   <v type="int" >       42 </v>
   <v type="int" >       43 </v>
   <v type="int" >       44 </v>
   <v type="int" >       45 </v>
   <v type="int" >       46 </v>
   <v type="int" >       47 </v>
   <v type="int" >       48 </v>
   <v type="int" >       49 </v>
   <v type="int" >       50 </v>
   <v type="int" >       51 </v>
   <v type="int" >       52 </v>
   <v type="int" >       53 </v>
   <v type="int" >       54 </v>
   <v type="int" >       55 </v>
   <v type="int" >       56 </v>
   <v type="int" >       57 </v>
   <v type="int" >       58 </v>
   <v type="int" >       59 </v>
   <v type="int" >       60 </v>
   <v type="int" >       61 </v>
   <v type="int" >       62 </v>
   <v type="int" >       63 </v>
   <v type="int" >       64 </v>
   <v type="int" >       65 </v>
   <v type="int" >       66 </v>
   <v type="int" >       67 </v>
   <v type="int" >       68 </v>
   <v type="int" >       69 </v>
   <v type="int" >       70 </v>
   <v type="int" >       71 </v>
   <v type="int" >       72 </v>
   <v type="int" >       73 </v>
   <v type="int" >       74 </v>
   <v type="int" >       75 </v>
   <v type="int" >       76 </v>
   <v type="int" >       77 </v>
   <v type="int" >       78 </v>
   <v type="int" >       79 </v>
   <v type="int" >       80 </v>
   <v type="int" >       81 </v>
   <v type="int" >       82 </v>
   <v type="int" >       83 </v>
   <v type="int" >       84 </v>
   <v type="int" >       85 </v>
   <v type="int" >       86 </v>
   <v type="int" >       87 </v>
   <v type="int" >       88 </v>
   <v type="int" >       89 </v>
   <v type="int" >       90 </v>
   <v type="int" >       91 </v>
   <v type="int" >       92 </v>
   <v type="int" >       93 </v>
   <v type="int" >       94 </v>
   <v type="int" >       95 </v>
   <v type="int" >       96 </v>
   <v type="int" >       97 </v>
   <v type="int" >       98 </v>
   <v type="int" >       99 </v>
   <v type="int" >      100 </v>
   <v type="int" >      101 </v>
   <v type="int" >      102 </v>
   <v type="int" >      103 </v>
   <v type="int" >      104 </v>
   <v type="int" >      105 </v>
   <v type="int" >      106 </v>
   <v type="int" >      107 </v>
   <v type="int" >      108 </v>
   <v type="int" >      109 </v>
   <v type="int" >      110 </v>
   <v type="int" >      111 </v>
   <v type="int" >      112 </v>
   <v type="int" >      113 </v>
   <v type="int" >      114 </v>
   <v type="int" >      115 </v>
   <v type="int" >      116 </v>
   <v type="int" >      117 </v>
   <v type="int" >      118 </v>
   <v type="int" >      119 </v>
  </varray>
 </primitive_cell>
 <kpoints>
  <generation param="Gamma">
   <v type="int" name="divisions">       2        2        2 </v>
   <v name="usershift">      0.00000000       0.00000000       0.00000000 </v>
   <v name="genvec1">      0.50000000       0.00000000       0.00000000 </v>
   <v name="genvec2">      0.00000000       0.50000000       0.00000000 </v>
   <v name="genvec3">      0.00000000       0.00000000       0.50000000 </v>
   <v name="shift">      0.00000000       0.00000000       0.00000000 </v>
  </generation>
  <varray name="kpointlist" >
   <v>       0.00000000       0.00000000       0.00000000 </v>
   <v>       0.50000000       0.00000000       0.00000000 </v>
   <v>       0.00000000       0.50000000       0.00000000 </v>
   <v>       0.50000000       0.50000000       0.00000000 </v>
   <v>       0.00000000       0.00000000       0.50000000 </v>
   <v>       0.50000000       0.00000000       0.50000000 </v>
   <v>       0.00000000       0.50000000       0.50000000 </v>
   <v>       0.50000000       0.50000000       0.50000000 </v>
  </varray>
  <varray name="weights" >
   <v>       0.12500000 </v>
   <v>       0.12500000 </v>
   <v>       0.12500000 </v>
   <v>       0.12500000 </v>
   <v>       0.12500000 </v>
   <v>       0.12500000 </v>
   <v>       0.12500000 </v>
   <v>       0.12500000 </v>
  </varray>
 </kpoints>
 <parameters>
  <separator name="general" >
   <i type="string" name="SYSTEM">unknown system</i>
   <i type="logical" name="LCOMPAT"> F  </i>
  </separator>
  <separator name="electronic" >
   <i type="string" name="PREC">normal</i>
   <i name="ENMAX">    450.00000000</i>
   <i name="ENAUG">    605.39200000</i>
   <i name="EDIFF">      0.00001000</i>
   <i type="int" name="IALGO">    58</i>
   <i type="int" name="IWAVPR">    10</i>
   <i type="int" name="NBANDS">   625</i>
   <i type="int" name="NBANDSLOW">    -1</i>
   <i type="int" name="NBANDSHIGH">    -1</i>
   <i name="NELECT">   1042.00000000</i>
   <i type="int" name="TURBO">     0</i>
   <i type="int" name="IRESTART">     0</i>
   <i type="int" name="NREBOOT">     0</i>
   <i type="int" name="NMIN">     0</i>
   <i name="EREF">      0.00000000</i>
   <separator name="electronic smearing" >
    <i type="int" name="ISMEAR">     0</i>
    <i name="SIGMA">      0.05000000</i>
    <i name="KSPACING">      0.50000000</i>
    <i type="logical" name="KGAMMA"> T  </i>
    <i type="logical" name="KBLOWUP"> T  </i>
   </separator>
   <separator name="electronic projectors" >
    <i type="logical" name="LREAL"> T  </i>
    <v name="ROPT">     -0.00050000     -0.00050000     -0.00050000</v>
    <i type="int" name="LMAXPAW">  -100</i>
    <i type="int" name="LMAXMIX">     2</i>
    <i type="logical" name="NLSPLINE"> F  </i>
   </separator>
   <separator name="electronic startup" >
    <i type="int" name="ISTART">     0</i>
    <i type="int" name="ICHARG">     0</i>
    <i type="int" name="INIWAV">     1</i>
   </separator>
   <separator name="electronic spin" >
    <i type="int" name="ISPIN">     1</i>
    <i type="logical" name="LNONCOLLINEAR"> F  </i>
    <v name="MAGMOM">      1.00000000      1.00000000      1.00000000      1.00000000      1.00000000      1.00000000      1.00000000      1.00000000      1.00000000      1.00000000      1.00000000      1.00000000      1.00000000      1.00000000      1.00000000      1.00000000      1.00000000      1.00000000      1.00000000      1.00000000
      1.00000000      1.00000000      1.00000000      1.00000000      1.00000000      1.00000000      1.00000000      1.00000000      1.00000000      1.00000000      1.00000000      1.00000000      1.00000000      1.00000000      1.00000000      1.00000000      1.00000000      1.00000000      1.00000000      1.00000000
      1.00000000      1.00000000      1.00000000      1.00000000      1.00000000      1.00000000      1.00000000      1.00000000      1.00000000      1.00000000      1.00000000      1.00000000      1.00000000      1.00000000      1.00000000      1.00000000      1.00000000      1.00000000      1.00000000      1.00000000
      1.00000000      1.00000000      1.00000000      1.00000000      1.00000000      1.00000000      1.00000000      1.00000000      1.00000000      1.00000000      1.00000000      1.00000000      1.00000000      1.00000000      1.00000000      1.00000000      1.00000000      1.00000000      1.00000000      1.00000000
      1.00000000      1.00000000      1.00000000      1.00000000      1.00000000      1.00000000      1.00000000      1.00000000      1.00000000      1.00000000      1.00000000      1.00000000      1.00000000      1.00000000      1.00000000      1.00000000      1.00000000      1.00000000      1.00000000      1.00000000
      1.00000000      1.00000000      1.00000000      1.00000000      1.00000000      1.00000000      1.00000000      1.00000000      1.00000000      1.00000000      1.00000000      1.00000000      1.00000000      1.00000000      1.00000000      1.00000000      1.00000000      1.00000000      1.00000000</v>
    <i name="NUPDOWN">     -1.00000000</i>
    <i type="logical" name="LSORBIT"> F  </i>
    <v name="SAXIS">      0.00000000      0.00000000      1.00000000</v>
    <i type="logical" name="LSPIRAL"> F  </i>
    <v name="QSPIRAL">      0.00000000      0.00000000      0.00000000</v>
    <i type="logical" name="LZEROZ"> F  </i>
   </separator>
   <separator name="electronic exchange-correlation" >
    <i type="logical" name="LASPH"> F  </i>
    <i type="logical" name="LMETAGGA"> F  </i>
   </separator>
   <separator name="electronic convergence" >
    <i type="int" name="NELM">   500</i>
    <i type="int" name="NELMDL">    -5</i>
    <i type="int" name="NELMIN">     2</i>
    <i name="ENINI">    450.00000000</i>
    <separator name="electronic convergence detail" >
     <i type="logical" name="LDIAG"> T  </i>
     <i type="logical" name="LSUBROT"> F  </i>
     <i name="WEIMIN">      0.00000000</i>
     <i name="EBREAK">      0.00000000</i>
     <i name="DEPER">      0.30000000</i>
     <i type="int" name="NRMM">     4</i>
     <i name="TIME">      0.40000000</i>
    </separator>
   </separator>
   <separator name="electronic mixer" >
    <i name="AMIX">      0.40000000</i>
    <i name="BMIX">      1.00000000</i>
    <i name="AMIN">      0.10000000</i>
    <i name="AMIX_MAG">      1.60000000</i>
    <i name="BMIX_MAG">      1.00000000</i>
    <separator name="electronic mixer details" >
     <i type="int" name="IMIX">     4</i>
     <i type="logical" name="MIXFIRST"> F  </i>
     <i type="int" name="MAXMIX">   -45</i>
     <i name="WC">    100.00000000</i>
     <i type="int" name="INIMIX">     1</i>
     <i type="int" name="MIXPRE">     1</i>
     <i type="int" name="MREMOVE">     5</i>
    </separator>
   </separator>
   <separator name="electronic dipolcorrection" >
    <i type="logical" name="LDIPOL"> F  </i>
    <i type="logical" name="LMONO"> F  </i>
    <i type="int" name="IDIPOL">     0</i>
    <i name="EPSILON">      1.00000000</i>
    <v name="DIPOL">   -100.00000000   -100.00000000   -100.00000000</v>
    <i name="EFIELD">      0.00000000</i>
   </separator>
  </separator>
  <separator name="grids" >
   <i type="int" name="NGX">    64</i>
   <i type="int" name="NGY">    48</i>
   <i type="int" name="NGZ">    60</i>
   <i type="int" name="NGXF">   128</i>
   <i type="int" name="NGYF">    96</i>
   <i type="int" name="NGZF">   120</i>
   <i type="logical" name="ADDGRID"> F  </i>
  </separator>
  <separator name="ionic" >
   <i type="int" name="NSW">     0</i>
   <i type="int" name="IBRION">    -1</i>
   <i type="int" name="MDALGO">     0</i>
   <i type="int" name="ISIF">     2</i>
   <i name="PSTRESS">      0.00000000</i>
   <i name="EDIFFG">     -0.00500000</i>
   <i type="int" name="NFREE">     0</i>
   <i name="POTIM">      0.50000000</i>
   <i name="SMASS">     -3.00000000</i>
   <i name="SCALEE">      1.00000000</i>
  </separator>
  <separator name="ionic md" >
   <i name="TEBEG">      0.00010000</i>
   <i name="TEEND">      0.00010000</i>
   <i type="int" name="NBLOCK">     1</i>
   <i type="int" name="KBLOCK">     1</i>
   <i type="int" name="NPACO">   256</i>
   <i name="APACO">     10.00000000</i>
  </separator>
  <separator name="symmetry" >
   <i type="int" name="ISYM">     3</i>
   <i name="SYMPREC">      0.00001000</i>
  </separator>
  <separator name="dos" >
   <i type="int" name="LORBIT">     0</i>
   <v name="RWIGS">     -1.00000000     -1.00000000     -1.00000000</v>
   <i type="int" name="NEDOS">   301</i>
   <i name="EMIN">     10.00000000</i>
   <i name="EMAX">    -10.00000000</i>
   <i name="EFERMI">      0.00000000</i>
  </separator>
  <separator name="writing" >
   <i type="int" name="NWRITE">     2</i>
   <i type="logical" name="LWAVE"> T  </i>
   <i type="logical" name="LDOWNSAMPLE"> F  </i>
   <i type="logical" name="LCHARG"> T  </i>
   <i type="logical" name="LPARD"> F  </i>
   <i type="logical" name="LVTOT"> F  </i>
   <i type="logical" name="LVHAR"> F  </i>
   <i type="logical" name="LELF"> F  </i>
   <i type="logical" name="LOPTICS"> F  </i>
   <v name="STM">      0.00000000      0.00000000      0.00000000      0.00000000      0.00000000      0.00000000      0.00000000</v>
  </separator>
  <separator name="performance" >
   <i type="int" name="NPAR">     1</i>
   <i type="int" name="NSIM">     4</i>
   <i type="int" name="NBLK">    -1</i>
   <i type="logical" name="LPLANE"> T  </i>
   <i type="logical" name="LSCALAPACK"> T  </i>
   <i type="logical" name="LSCAAWARE"> F  </i>
   <i type="logical" name="LSCALU"> F  </i>
   <i type="logical" name="LASYNC"> F  </i>
   <i type="logical" name="LORBITALREAL"> F  </i>
  </separator>
  <separator name="miscellaneous" >
   <i type="int" name="IDIOT">     3</i>
   <i type="int" name="PHON_NSTRUCT">    -1</i>
   <i type="logical" name="LMUSIC"> F  </i>
   <v name="POMASS">     69.72300000     16.00000000     30.97400000</v>
   <v name="DARWINR">      0.00000000      0.00000000      0.00000000</v>
   <v name="DARWINV">      1.00000000      1.00000000      1.00000000</v>
   <i type="logical" name="LCORR"> T  </i>
  </separator>
  <i type="logical" name="GGA_COMPAT"> T  </i>
  <i type="logical" name="LBERRY"> F  </i>
  <i type="int" name="ICORELEVEL">     0</i>
  <i type="logical" name="LDAU"> F  </i>
  <i type="int" name="I_CONSTRAINED_M">     0</i>
  <separator name="electronic exchange-correlation" >
   <i type="string" name="GGA">--</i>
   <i type="int" name="VOSKOWN">     0</i>
   <i type="logical" name="LHFCALC"> T  </i>
   <i type="string" name="PRECFOCK">fast</i>
   <i type="logical" name="LSYMGRAD"> F  </i>
   <i type="logical" name="LHFONE"> F  </i>
   <i type="logical" name="LRHFCALC"> F  </i>
   <i type="logical" name="LTHOMAS"> F  </i>
   <i type="logical" name="LMODELHF"> F  </i>
   <i type="logical" name="LFOCKACE"> T  </i>
   <i name="ENCUT4O">     -1.00000000</i>
   <i type="int" name="EXXOEP">     0</i>
   <i type="int" name="FOURORBIT">     0</i>
   <i name="AEXX">      0.32000000</i>
   <i name="HFALPHA">     -1.00000000</i>
   <i name="MCALPHA">      0.00000000</i>
   <i name="ALDAX">      0.68000000</i>
   <i name="AGGAX">      0.68000000</i>
   <i name="ALDAC">      1.00000000</i>
   <i name="AGGAC">      1.00000000</i>
   <i type="int" name="NKREDX">     1</i>
   <i type="int" name="NKREDY">     1</i>
   <i type="int" name="NKREDZ">     1</i>
   <i type="logical" name="SHIFTRED"> F  </i>
   <i type="logical" name="ODDONLY"> F  </i>
   <i type="logical" name="EVENONLY"> F  </i>
   <i type="int" name="LMAXFOCK">     4</i>
   <i type="int" name="NMAXFOCKAE">     1</i>
   <i type="logical" name="LFOCKAEDFT"> F  </i>
   <i name="HFSCREEN">      0.20000000</i>
   <i name="HFSCREENC">      0.20000000</i>
   <i type="int" name="NBANDSGWLOW">     1</i>
  </separator>
  <separator name="vdW DFT" >
   <i type="logical" name="LUSE_VDW"> F  </i>
   <i type="int" name="IVDW_NL">     1</i>
   <i type="logical" name="LSPIN_VDW"> F  </i>
   <i name="Zab_VDW">     -0.84910000</i>
   <i name="PARAM1">      0.12340000</i>
   <i name="PARAM2">      1.00000000</i>
   <i name="PARAM3">      0.00000000</i>
  </separator>
  <separator name="model GW" >
   <i type="int" name="MODEL_GW">     0</i>
   <i name="MODEL_EPS0">      6.39733692</i>
   <i name="MODEL_ALPHA">      1.00000000</i>
  </separator>
  <separator name="linear response parameters" >
   <i type="logical" name="LEPSILON"> F  </i>
   <i type="logical" name="LRPA"> F  </i>
   <i type="logical" name="LNABLA"> F  </i>
   <i type="logical" name="LVEL"> F  </i>
   <i name="CSHIFT">      0.10000000</i>
   <i name="OMEGAMAX">     -1.00000000</i>
   <i name="DEG_THRESHOLD">      0.00200000</i>
   <i name="RTIME">     -0.10000000</i>
   <i name="WPLASMAI">      0.00000000</i>
   <v name="DFIELD">      0.00000000      0.00000000      0.00000000</v>
   <v name="WPLASMA">      0.00000000      0.00000000      0.00000000      0.00000000      0.00000000      0.00000000      0.00000000      0.00000000      0.00000000</v>
  </separator>
  <separator name="orbital magnetization" >
   <i type="logical" name="NUCIND"> F  </i>
   <v name="MAGPOS">      0.00000000      0.00000000      0.00000000</v>
   <i type="logical" name="LNICSALL"> T  </i>
   <i type="logical" name="ORBITALMAG"> F  </i>
   <i type="logical" name="LMAGBLOCH"> F  </i>
   <i type="logical" name="LCHIMAG"> F  </i>
   <i type="logical" name="LGAUGE"> T  </i>
   <i type="int" name="MAGATOM">     0</i>
   <v name="MAGDIPOL">      0.00000000      0.00000000      0.00000000</v>
   <v name="AVECCONST">      0.00000000      0.00000000      0.00000000</v>
  </separator>
  <separator name="response functions" >
   <i type="logical" name="LALL_IN_ONE"> F  </i>
   <i type="int" name="IALL_IN_ONE">    -1</i>
   <i type="int" name="NBANDS_WAVE">    -1</i>
   <i type="logical" name="LFINITE_TEMPERATURE"> F  </i>
   <i type="logical" name="LADDER"> F  </i>
   <i type="logical" name="LRPAFORCE"> F  </i>
   <i type="logical" name="LFXC"> F  </i>
   <i type="logical" name="LHARTREE"> T  </i>
   <i type="int" name="IBSE">     0</i>
   <v type="int" name="KPOINT">    -1     0     0     0</v>
   <i type="logical" name="LTCTC"> F  </i>
   <i type="logical" name="LTCTE"> F  </i>
   <i type="logical" name="LTETE"> F  </i>
   <i type="logical" name="LTRIPLET"> F  </i>
   <i type="logical" name="LFXCEPS"> F  </i>
   <i type="logical" name="LFXHEG"> F  </i>
   <i type="int" name="NATURALO">     2</i>
   <i type="logical" name="LHOLEGF"> F  </i>
   <i type="logical" name="L2ORDER"> F  </i>
   <i type="logical" name="LDMP1"> F  </i>
   <i type="logical" name="LMP2LT"> F  </i>
   <i type="logical" name="LSMP2LT"> F  </i>
   <i type="logical" name="LGWLF"> F  </i>
   <i name="ENCUTGW">     -1.60000002</i>
   <i name="ENCUTGWSOFT">     -1.60000002</i>
   <i name="ENCUTLF">     -1.00000000</i>
   <i type="logical" name="LESF_SPLINES"> F  </i>
   <i type="int" name="LMAXMP2">    -1</i>
   <i name="SCISSOR">      0.00000000</i>
   <i type="int" name="NOMEGA">     0</i>
   <i type="int" name="NOMEGAR">     0</i>
   <i type="int" name="NBANDSGW">    -1</i>
   <i type="int" name="NBANDSO">    -1</i>
   <i type="int" name="NBANDSV">    -1</i>
   <i type="int" name="NELMGW">     1</i>
   <i type="int" name="NELMHF">     1</i>
   <i type="int" name="DIM">     3</i>
   <i type="int" name="IESPILON">     4</i>
   <i type="int" name="ANTIRES">     0</i>
   <i name="OMEGAMAX">    -30.00000000</i>
   <i name="OMEGAMIN">    -30.00000000</i>
   <i name="OMEGATL">   -200.00000000</i>
   <i type="int" name="OMEGAGRID">     0</i>
   <i name="CSHIFT">     -0.10000000</i>
   <i type="logical" name="LSELFENERGY"> F  </i>
   <i type="logical" name="LSPECTRAL"> F  </i>
   <i type="logical" name="LSPECTRALGW"> F  </i>
   <i type="logical" name="LSINGLES"> F  </i>
   <i type="logical" name="LFERMIGW"> F  </i>
   <i type="logical" name="ODDONLYGW"> F  </i>
   <i type="logical" name="EVENONLYGW"> F  </i>
   <i type="int" name="NKREDLFX">     1</i>
   <i type="int" name="NKREDLFY">     1</i>
   <i type="int" name="NKREDLFZ">     1</i>
   <i type="int" name="MAXMEM">  2800</i>
   <i type="int" name="TELESCOPE">     0</i>
   <i type="int" name="NTAUPAR">    -1</i>
   <i type="int" name="NOMEGAPAR">    -1</i>
   <i name="DAMP_NEWTON">      0.80000001</i>
   <i name="LAMBDA">      1.00000000</i>
  </separator>
  <separator name="External order field" >
   <i name="OFIELD_KAPPA">      0.00000000</i>
   <v name="OFIELD_K">      0.00000000      0.00000000      0.00000000</v>
   <i name="OFIELD_Q6_NEAR">      0.00000000</i>
   <i name="OFIELD_Q6_FAR">      0.00000000</i>
   <i name="OFIELD_A">      0.00000000</i>
  </separator>
  <separator name="optional k-points parameters" >
   <i type="int" name="KPOINTS_OPT_MODE">     1</i>
   <i type="logical" name="LKPOINTS_OPT"> F  </i>
  </separator>
 </parameters>
 <atominfo>
  <atoms>     119 </atoms>
  <types>       3 </types>
  <array name="atoms" >
   <dimension dim="1">ion</dimension>
   <field type="string">element</field>
   <field type="int">atomtype</field>
   <set>
    <rc><c>Ga</c><c>   1</c></rc>
    <rc><c>Ga</c><c>   1</c></rc>
    <rc><c>Ga</c><c>   1</c></rc>
    <rc><c>Ga</c><c>   1</c></rc>
    <rc><c>Ga</c><c>   1</c></rc>
    <rc><c>Ga</c><c>   1</c></rc>
    <rc><c>Ga</c><c>   1</c></rc>
    <rc><c>Ga</c><c>   1</c></rc>
    <rc><c>Ga</c><c>   1</c></rc>
    <rc><c>Ga</c><c>   1</c></rc>
    <rc><c>Ga</c><c>   1</c></rc>
    <rc><c>Ga</c><c>   1</c></rc>
    <rc><c>Ga</c><c>   1</c></rc>
    <rc><c>Ga</c><c>   1</c></rc>
    <rc><c>Ga</c><c>   1</c></rc>
    <rc><c>Ga</c><c>   1</c></rc>
    <rc><c>Ga</c><c>   1</c></rc>
    <rc><c>Ga</c><c>   1</c></rc>
    <rc><c>Ga</c><c>   1</c></rc>
    <rc><c>Ga</c><c>   1</c></rc>
    <rc><c>Ga</c><c>   1</c></rc>
    <rc><c>Ga</c><c>   1</c></rc>
    <rc><c>Ga</c><c>   1</c></rc>
    <rc><c>Ga</c><c>   1</c></rc>
    <rc><c>Ga</c><c>   1</c></rc>
    <rc><c>Ga</c><c>   1</c></rc>
    <rc><c>Ga</c><c>   1</c></rc>
    <rc><c>Ga</c><c>   1</c></rc>
    <rc><c>Ga</c><c>   1</c></rc>
    <rc><c>Ga</c><c>   1</c></rc>
    <rc><c>Ga</c><c>   1</c></rc>
    <rc><c>Ga</c><c>   1</c></rc>
    <rc><c>Ga</c><c>   1</c></rc>
    <rc><c>Ga</c><c>   1</c></rc>
    <rc><c>Ga</c><c>   1</c></rc>
    <rc><c>Ga</c><c>   1</c></rc>
    <rc><c>Ga</c><c>   1</c></rc>
    <rc><c>Ga</c><c>   1</c></rc>
    <rc><c>Ga</c><c>   1</c></rc>
    <rc><c>Ga</c><c>   1</c></rc>
    <rc><c>Ga</c><c>   1</c></rc>
    <rc><c>Ga</c><c>   1</c></rc>
    <rc><c>Ga</c><c>   1</c></rc>
    <rc><c>Ga</c><c>   1</c></rc>
    <rc><c>Ga</c><c>   1</c></rc>
    <rc><c>Ga</c><c>   1</c></rc>
    <rc><c>Ga</c><c>   1</c></rc>
    <rc><c>O </c><c>   2</c></rc>
    <rc><c>O </c><c>   2</c></rc>
    <rc><c>O </c><c>   2</c></rc>
    <rc><c>O </c><c>   2</c></rc>
    <rc><c>O </c><c>   2</c></rc>
    <rc><c>O </c><c>   2</c></rc>
    <rc><c>O </c><c>   2</c></rc>
    <rc><c>O </c><c>   2</c></rc>
    <rc><c>O </c><c>   2</c></rc>
    <rc><c>O </c><c>   2</c></rc>
    <rc><c>O </c><c>   2</c></rc>
    <rc><c>O </c><c>   2</c></rc>
    <rc><c>O </c><c>   2</c></rc>
    <rc><c>O </c><c>   2</c></rc>
    <rc><c>O </c><c>   2</c></rc>
    <rc><c>O </c><c>   2</c></rc>
    <rc><c>O </c><c>   2</c></rc>
    <rc><c>O </c><c>   2</c></rc>
    <rc><c>O </c><c>   2</c></rc>
    <rc><c>O </c><c>   2</c></rc>
    <rc><c>O </c><c>   2</c></rc>
    <rc><c>O </c><c>   2</c></rc>
    <rc><c>O </c><c>   2</c></rc>
    <rc><c>O </c><c>   2</c></rc>
    <rc><c>O </c><c>   2</c></rc>
    <rc><c>O </c><c>   2</c></rc>
    <rc><c>O </c><c>   2</c></rc>
    <rc><c>O </c><c>   2</c></rc>
    <rc><c>O </c><c>   2</c></rc>
    <rc><c>O </c><c>   2</c></rc>
    <rc><c>O </c><c>   2</c></rc>
    <rc><c>O </c><c>   2</c></rc>
    <rc><c>O </c><c>   2</c></rc>
    <rc><c>O </c><c>   2</c></rc>
    <rc><c>O </c><c>   2</c></rc>
    <rc><c>O </c><c>   2</c></rc>
    <rc><c>O </c><c>   2</c></rc>
    <rc><c>O </c><c>   2</c></rc>
    <rc><c>O </c><c>   2</c></rc>
    <rc><c>O </c><c>   2</c></rc>
    <rc><c>O </c><c>   2</c></rc>
    <rc><c>O </c><c>   2</c></rc>
    <rc><c>O </c><c>   2</c></rc>
    <rc><c>O </c><c>   2</c></rc>
    <rc><c>O </c><c>   2</c></rc>
    <rc><c>O </c><c>   2</c></rc>
    <rc><c>O </c><c>   2</c></rc>
    <rc><c>O </c><c>   2</c></rc>
    <rc><c>O </c><c>   2</c></rc>
    <rc><c>O </c><c>   2</c></rc>
    <rc><c>O </c><c>   2</c></rc>
    <rc><c>O </c><c>   2</c></rc>
    <rc><c>O </c><c>   2</c></rc>
    <rc><c>O </c><c>   2</c></rc>
    <rc><c>O </c><c>   2</c></rc>
    <rc><c>O </c><c>   2</c></rc>
    <rc><c>O </c><c>   2</c></rc>
    <rc><c>O </c><c>   2</c></rc>
    <rc><c>O </c><c>   2</c></rc>
    <rc><c>O </c><c>   2</c></rc>
    <rc><c>O </c><c>   2</c></rc>
    <rc><c>O </c><c>   2</c></rc>
    <rc><c>O </c><c>   2</c></rc>
    <rc><c>O </c><c>   2</c></rc>
    <rc><c>O </c><c>   2</c></rc>
    <rc><c>O </c><c>   2</c></rc>
    <rc><c>O </c><c>   2</c></rc>
    <rc><c>O </c><c>   2</c></rc>
    <rc><c>O </c><c>   2</c></rc>
    <rc><c>O </c><c>   2</c></rc>
    <rc><c>O </c><c>   2</c></rc>
    <rc><c>P </c><c>   3</c></rc>
   </set>
  </array>
  <array name="atomtypes" >
   <dimension dim="1">type</dimension>
   <field type="int">atomspertype</field>
   <field type="string">element</field>
   <field>mass</field>
   <field>valence</field>
   <field type="string">pseudopotential</field>
   <set>
    <rc><c>  47</c><c>Ga</c><c>     69.72300000</c><c>     13.00000000</c><c>  PAW_PBE Ga_d 06Jul2010                </c></rc>
    <rc><c>  71</c><c>O </c><c>     16.00000000</c><c>      6.00000000</c><c>   PAW_PBE O 08Apr2002                  </c></rc>
    <rc><c>   1</c><c>P </c><c>     30.97400000</c><c>      5.00000000</c><c>  PAW_PBE P 06Sep2000                   </c></rc>
   </set>
  </array>
 </atominfo>
 <structure name="initialpos" >
  <crystal>
   <varray name="basis" >
    <v>       0.00000000      12.28047342       0.00000000 </v>
    <v>       9.14270205       0.00000000       0.00000000 </v>
    <v>       0.00000000      -2.76826177     -11.30069772 </v>
   </varray>
   <i name="volume">   1268.80515525 </i>
   <varray name="rec_basis" >
    <v>       0.00000000       0.08143009      -0.01994742 </v>
    <v>       0.10937686      -0.00000000       0.00000000 </v>
    <v>       0.00000000       0.00000000      -0.08849011 </v>
   </varray>
  </crystal>
  <varray name="positions" >
   <v>       0.66321357       0.99340610       0.15245181 </v>
   <v>       0.65955000       0.99919605       0.65876011 </v>
   <v>       0.66321357       0.33992723       0.15245181 </v>
   <v>       0.65955000       0.33413729       0.65876011 </v>
   <v>       0.66006421       0.66666667       0.15587495 </v>
   <v>       0.66087404       0.66666667       0.65533275 </v>
   <v>       0.84187901       0.16666667       0.84601587 </v>
   <v>       0.84555697       0.50093069       0.33532998 </v>
   <v>       0.84266196       0.49988791       0.84377652 </v>
   <v>       0.84555697       0.83240264       0.33532998 </v>
   <v>       0.84266196       0.83344543       0.84377652 </v>
   <v>       0.59001836       0.16666667       0.40282926 </v>
   <v>       0.59198837       0.16666667       0.89999951 </v>
   <v>       0.59270907       0.50035921       0.39743955 </v>
   <v>       0.58930135       0.50130392       0.89411166 </v>
   <v>       0.59270907       0.83297412       0.39743955 </v>
   <v>       0.58930135       0.83202941       0.89411166 </v>
   <v>       0.91220035       0.99874422       0.10364042 </v>
   <v>       0.91133059       0.00102406       0.60733915 </v>
   <v>       0.91220035       0.33458911       0.10364042 </v>
   <v>       0.91133059       0.33230927       0.60733915 </v>
   <v>       0.91223911       0.66666667       0.09961718 </v>
   <v>       0.90841506       0.66666667       0.60011346 </v>
   <v>       0.16225995       0.16666667       0.15856615 </v>
   <v>       0.16309913       0.16666667       0.65614853 </v>
   <v>       0.16163751       0.49954771       0.15836430 </v>
   <v>       0.15935447       0.49896695       0.65351962 </v>
   <v>       0.16163751       0.83378562       0.15836430 </v>
   <v>       0.15935447       0.83436638       0.65351962 </v>
   <v>       0.34108936       0.99944974       0.34385220 </v>
   <v>       0.34151516       0.99991600       0.84392570 </v>
   <v>       0.34108936       0.33388359       0.34385220 </v>
   <v>       0.34151516       0.33341734       0.84392570 </v>
   <v>       0.34213929       0.66666667       0.34411142 </v>
   <v>       0.33968096       0.66666667       0.84294240 </v>
   <v>       0.08721438       0.03119665       0.39582290 </v>
   <v>       0.09254864       0.00007140       0.89825922 </v>
   <v>       0.08721438       0.30213668       0.39582290 </v>
   <v>       0.09254864       0.33326194       0.89825922 </v>
   <v>       0.08743528       0.66666667       0.39554640 </v>
   <v>       0.09273250       0.66666667       0.89832225 </v>
   <v>       0.41295216       0.16666667       0.10396344 </v>
   <v>       0.41062371       0.16666667       0.60350137 </v>
   <v>       0.41185419       0.49923469       0.10349854 </v>
   <v>       0.40991758       0.50057387       0.60295293 </v>
   <v>       0.41185419       0.83409865       0.10349854 </v>
   <v>       0.40991758       0.83275946       0.60295293 </v>
   <v>       0.99774679       0.16666667       0.13760204 </v>
   <v>       0.99827549       0.16666667       0.62276403 </v>
   <v>       0.99963215       0.50102925       0.12531981 </v>
   <v>       0.99501257       0.49927661       0.62469466 </v>
   <v>       0.99963215       0.83230409       0.12531981 </v>
   <v>       0.99501257       0.83405672       0.62469466 </v>
   <v>       0.50553325       0.99991609       0.37202630 </v>
   <v>       0.50458761       0.00045929       0.87367445 </v>
   <v>       0.50553325       0.33341724       0.37202630 </v>
   <v>       0.50458761       0.33287404       0.87367445 </v>
   <v>       0.50556897       0.66666667       0.37321391 </v>
   <v>       0.50162285       0.66666667       0.86838905 </v>
   <v>       0.69125301       0.16666667       0.29846643 </v>
   <v>       0.67399468       0.16666667       0.78364100 </v>
   <v>       0.67558340       0.50092321       0.28170273 </v>
   <v>       0.67395078       0.50015197       0.78000216 </v>
   <v>       0.67558340       0.83241012       0.28170273 </v>
   <v>       0.67395078       0.83318136       0.78000216 </v>
   <v>       0.82407134       0.98104011       0.21095237 </v>
   <v>       0.82812081       0.00093956       0.72089423 </v>
   <v>       0.82407134       0.35229323       0.21095237 </v>
   <v>       0.82812081       0.33239377       0.72089423 </v>
   <v>       0.83014428       0.66666667       0.21602386 </v>
   <v>       0.82851175       0.66666667       0.71839289 </v>
   <v>       0.82648019       0.01693656       0.44889008 </v>
   <v>       0.83458369       0.99989590       0.94693956 </v>
   <v>       0.82648019       0.31639677       0.44889008 </v>
   <v>       0.83458369       0.33343743       0.94693956 </v>
   <v>       0.83750311       0.66666667       0.44148731 </v>
   <v>       0.83312026       0.66666667       0.94430125 </v>
   <v>       0.66840242       0.16666667       0.05824493 </v>
   <v>       0.66740092       0.16666667       0.55823143 </v>
   <v>       0.66513173       0.50447031       0.05000657 </v>
   <v>       0.67112488       0.49901778       0.55389486 </v>
   <v>       0.66513173       0.82886302       0.05000657 </v>
   <v>       0.67112488       0.83431555       0.55389486 </v>
   <v>       0.50191653       0.00050262       0.13111043 </v>
   <v>       0.49764149       0.99935834       0.62853847 </v>
   <v>       0.50191653       0.33283072       0.13111043 </v>
   <v>       0.49764149       0.33397500       0.62853847 </v>
   <v>       0.49821932       0.66666667       0.12836278 </v>
   <v>       0.49866121       0.66666667       0.62706480 </v>
   <v>       0.00421700       0.16666667       0.87222737 </v>
   <v>       0.00639894       0.48741856       0.37466479 </v>
   <v>       0.00473898       0.49999153       0.87118102 </v>
   <v>       0.00639894       0.84591478       0.37466479 </v>
   <v>       0.00473898       0.83334180       0.87118102 </v>
   <v>       0.17507225       0.99890453       0.27961065 </v>
   <v>       0.17363170       0.00039468       0.78101917 </v>
   <v>       0.17507225       0.33442880       0.27961065 </v>
   <v>       0.17363170       0.33293865       0.78101917 </v>
   <v>       0.17304752       0.66666667       0.28136279 </v>
   <v>       0.17247054       0.66666667       0.77935407 </v>
   <v>       0.33114916       0.16666667       0.22009209 </v>
   <v>       0.33024942       0.16666667       0.72131374 </v>
   <v>       0.33021702       0.50056226       0.22008038 </v>
   <v>       0.32797323       0.50018808       0.71950792 </v>
   <v>       0.33021702       0.83277108       0.22008038 </v>
   <v>       0.32797323       0.83314526       0.71950792 </v>
   <v>       0.33609632       0.16666667       0.44658815 </v>
   <v>       0.33558376       0.16666667       0.94759254 </v>
   <v>       0.33546562       0.50046277       0.44634693 </v>
   <v>       0.33461195       0.49954093       0.94691367 </v>
   <v>       0.33546562       0.83287057       0.44634693 </v>
   <v>       0.33461195       0.83379240       0.94691367 </v>
   <v>       0.16871185       0.00091429       0.05424312 </v>
   <v>       0.16881161       0.99996261       0.55456553 </v>
   <v>       0.16871185       0.33241904       0.05424312 </v>
   <v>       0.16881161       0.33337073       0.55456553 </v>
   <v>       0.17027638       0.66666667       0.05456315 </v>
   <v>       0.16485107       0.66666667       0.55249993 </v>
   <v>       0.83275343       0.16666667       0.36305175 </v>
  </varray>
 </structure>
 <calculation>
  <scstep>
   <time name="total">    3.86    3.87</time>
   <energy>
    <i name="alphaZ">   5376.25786726 </i>
    <i name="ewald"> -86652.75323191 </i>
    <i name="hartreedc">  -2072.20797061 </i>
    <i name="XCdc">   2751.48580700 </i>
    <i name="pawpsdc"> 330938.13845841 </i>
    <i name="pawaedc">-359683.08807477 </i>
    <i name="eentropy">     -0.00829189 </i>
    <i name="bandstr"> -40591.83371463 </i>
    <i name="atom"> 131500.23896116 </i>
    <i name="e_fr_energy"> -18433.77018998 </i>
    <i name="e_wo_entrp"> -18433.76189809 </i>
    <i name="e_0_energy"> -18433.76604403 </i>
   </energy>
  </scstep>
  <scstep>
   <time name="total">    3.06    3.06</time>
   <energy>
    <i name="e_fr_energy"> -62935.74266490 </i>
    <i name="e_wo_entrp"> -62935.72929159 </i>
    <i name="e_0_energy"> -62935.73597824 </i>
   </energy>
  </scstep>
  <scstep>
   <time name="total">    3.28    3.28</time>
   <energy>
    <i name="e_fr_energy"> -68023.62689498 </i>
    <i name="e_wo_entrp"> -68023.60540984 </i>
    <i name="e_0_energy"> -68023.61615241 </i>
   </energy>
  </scstep>
  <scstep>
   <time name="total">    3.72    3.72</time>
   <energy>
    <i name="e_fr_energy"> -68725.64815161 </i>
    <i name="e_wo_entrp"> -68725.60978959 </i>
    <i name="e_0_energy"> -68725.62897060 </i>
   </energy>
  </scstep>
  <scstep>
   <time name="total">  231.24  231.21</time>
   <energy>
    <i name="e_fr_energy"> -39137.94522690 </i>
    <i name="e_wo_entrp"> -39137.93372110 </i>
    <i name="e_0_energy"> -39137.93947400 </i>
   </energy>
  </scstep>
  <scstep>
   <time name="total">  459.99  459.92</time>
   <energy>
    <i name="e_fr_energy">  30209.87540193 </i>
    <i name="e_wo_entrp">  30209.88735559 </i>
    <i name="e_0_energy">  30209.88137876 </i>
   </energy>
  </scstep>
  <scstep>
   <time name="total">  459.80  459.73</time>
   <energy>
    <i name="e_fr_energy">  10220.89034604 </i>
    <i name="e_wo_entrp">  10220.93918099 </i>
    <i name="e_0_energy">  10220.91476351 </i>
   </energy>
  </scstep>
  <scstep>
   <time name="total">  460.30  460.23</time>
   <energy>
    <i name="e_fr_energy">   4978.81670729 </i>
    <i name="e_wo_entrp">   4978.84453216 </i>
    <i name="e_0_energy">   4978.83061973 </i>
   </energy>
  </scstep>
  <scstep>
   <time name="total">  459.79  459.71</time>
   <energy>
    <i name="e_fr_energy">   2821.30044207 </i>
    <i name="e_wo_entrp">   2821.31341952 </i>
    <i name="e_0_energy">   2821.30693080 </i>
   </energy>
  </scstep>
  <scstep>
   <time name="total">  459.54  459.46</time>
   <energy>
    <i name="e_fr_energy">   1264.60743289 </i>
    <i name="e_wo_entrp">   1264.61494426 </i>
    <i name="e_0_energy">   1264.61118857 </i>
   </energy>
  </scstep>
  <scstep>
   <time name="total">  459.10  459.03</time>
   <energy>
    <i name="e_fr_energy">     98.00916674 </i>
    <i name="e_wo_entrp">     98.02089366 </i>
    <i name="e_0_energy">     98.01503020 </i>
   </energy>
  </scstep>
  <scstep>
   <time name="total">  459.24  459.18</time>
   <energy>
    <i name="e_fr_energy">   -431.00896159 </i>
    <i name="e_wo_entrp">   -431.00240010 </i>
    <i name="e_0_energy">   -431.00568085 </i>
   </energy>
  </scstep>
  <scstep>
   <time name="total">  458.82  458.76</time>
   <energy>
    <i name="e_fr_energy">   -701.32244408 </i>
    <i name="e_wo_entrp">   -701.31207179 </i>
    <i name="e_0_energy">   -701.31725793 </i>
   </energy>
  </scstep>
  <scstep>
   <time name="total">  459.27  459.20</time>
   <energy>
    <i name="e_fr_energy">   -822.65726308 </i>
    <i name="e_wo_entrp">   -822.65275706 </i>
    <i name="e_0_energy">   -822.65501007 </i>
   </energy>
  </scstep>
  <scstep>
   <time name="total">  459.00  458.92</time>
   <energy>
    <i name="e_fr_energy">   -877.80544547 </i>
    <i name="e_wo_entrp">   -877.79478998 </i>
    <i name="e_0_energy">   -877.80011773 </i>
   </energy>
  </scstep>
  <scstep>
   <time name="total">  458.47  458.39</time>
   <energy>
    <i name="e_fr_energy">   -905.97491773 </i>
    <i name="e_wo_entrp">   -905.97489645 </i>
    <i name="e_0_energy">   -905.97490709 </i>
   </energy>
  </scstep>
  <scstep>
   <time name="total">  458.78  458.71</time>
   <energy>
    <i name="e_fr_energy">   -923.63603087 </i>
    <i name="e_wo_entrp">   -923.63603087 </i>
    <i name="e_0_energy">   -923.63603087 </i>
   </energy>
  </scstep>
  <scstep>
   <time name="total">  458.56  458.49</time>
   <energy>
    <i name="e_fr_energy">   -934.65593864 </i>
    <i name="e_wo_entrp">   -934.65593864 </i>
    <i name="e_0_energy">   -934.65593864 </i>
   </energy>
  </scstep>
  <scstep>
   <time name="total">  458.66  458.59</time>
   <energy>
    <i name="e_fr_energy">   -940.01019766 </i>
    <i name="e_wo_entrp">   -940.01019766 </i>
    <i name="e_0_energy">   -940.01019766 </i>
   </energy>
  </scstep>
  <scstep>
   <time name="total">  458.73  458.65</time>
   <energy>
    <i name="e_fr_energy">   -943.34054597 </i>
    <i name="e_wo_entrp">   -943.34054597 </i>
    <i name="e_0_energy">   -943.34054597 </i>
   </energy>
  </scstep>
  <scstep>
   <time name="total">  458.63  458.55</time>
   <energy>
    <i name="e_fr_energy">   -945.20013069 </i>
    <i name="e_wo_entrp">   -945.20013069 </i>
    <i name="e_0_energy">   -945.20013069 </i>
   </energy>
  </scstep>
  <scstep>
   <time name="total">  458.62  458.54</time>
   <energy>
    <i name="e_fr_energy">   -946.18631373 </i>
    <i name="e_wo_entrp">   -946.18631373 </i>
    <i name="e_0_energy">   -946.18631373 </i>
   </energy>
  </scstep>
  <scstep>
   <time name="total">  458.75  458.69</time>
   <energy>
    <i name="e_fr_energy">   -946.77823667 </i>
    <i name="e_wo_entrp">   -946.77823667 </i>
    <i name="e_0_energy">   -946.77823667 </i>
   </energy>
  </scstep>
  <scstep>
   <time name="total">  459.17  459.09</time>
   <energy>
    <i name="e_fr_energy">   -947.07897617 </i>
    <i name="e_wo_entrp">   -947.07897617 </i>
    <i name="e_0_energy">   -947.07897617 </i>
   </energy>
  </scstep>
  <scstep>
   <time name="total">  458.29  458.22</time>
   <energy>
    <i name="e_fr_energy">   -947.27479804 </i>
    <i name="e_wo_entrp">   -947.27479804 </i>
    <i name="e_0_energy">   -947.27479804 </i>
   </energy>
  </scstep>
  <scstep>
   <time name="total">  458.42  458.34</time>
   <energy>
    <i name="e_fr_energy">   -947.38848773 </i>
    <i name="e_wo_entrp">   -947.38848773 </i>
    <i name="e_0_energy">   -947.38848773 </i>
   </energy>
  </scstep>
  <scstep>
   <time name="total">  458.50  458.43</time>
   <energy>
    <i name="e_fr_energy">   -947.44812395 </i>
    <i name="e_wo_entrp">   -947.44812395 </i>
    <i name="e_0_energy">   -947.44812395 </i>
   </energy>
  </scstep>
  <scstep>
   <time name="total">  458.46  458.38</time>
   <energy>
    <i name="e_fr_energy">   -947.48446570 </i>
    <i name="e_wo_entrp">   -947.48446570 </i>
    <i name="e_0_energy">   -947.48446570 </i>
   </energy>
  </scstep>
  <scstep>
   <time name="total">  458.39  458.32</time>
   <energy>
    <i name="e_fr_energy">   -947.50286832 </i>
    <i name="e_wo_entrp">   -947.50286832 </i>
    <i name="e_0_energy">   -947.50286832 </i>
   </energy>
  </scstep>
  <scstep>
   <time name="total">  458.33  458.26</time>
   <energy>
    <i name="e_fr_energy">   -947.51369532 </i>
    <i name="e_wo_entrp">   -947.51369532 </i>
    <i name="e_0_energy">   -947.51369532 </i>
   </energy>
  </scstep>
  <scstep>
   <time name="total">  458.80  458.72</time>
   <energy>
    <i name="e_fr_energy">   -947.52068296 </i>
    <i name="e_wo_entrp">   -947.52068296 </i>
    <i name="e_0_energy">   -947.52068296 </i>
   </energy>
  </scstep>
  <scstep>
   <time name="total">  458.47  458.40</time>
   <energy>
    <i name="e_fr_energy">   -947.52471013 </i>
    <i name="e_wo_entrp">   -947.52471013 </i>
    <i name="e_0_energy">   -947.52471013 </i>
   </energy>
  </scstep>
  <scstep>
   <time name="total">  458.50  458.44</time>
   <energy>
    <i name="e_fr_energy">   -947.52717403 </i>
    <i name="e_wo_entrp">   -947.52717403 </i>
    <i name="e_0_energy">   -947.52717403 </i>
   </energy>
  </scstep>
  <scstep>
   <time name="total">  458.53  458.47</time>
   <energy>
    <i name="e_fr_energy">   -947.52853515 </i>
    <i name="e_wo_entrp">   -947.52853515 </i>
    <i name="e_0_energy">   -947.52853515 </i>
   </energy>
  </scstep>
  <scstep>
   <time name="total">  458.57  458.51</time>
   <energy>
    <i name="e_fr_energy">   -947.52926523 </i>
    <i name="e_wo_entrp">   -947.52926523 </i>
    <i name="e_0_energy">   -947.52926523 </i>
   </energy>
  </scstep>
  <scstep>
   <time name="total">  458.67  458.61</time>
   <energy>
    <i name="e_fr_energy">   -947.52971539 </i>
    <i name="e_wo_entrp">   -947.52971539 </i>
    <i name="e_0_energy">   -947.52971539 </i>
   </energy>
  </scstep>
  <scstep>
   <time name="total">  458.41  458.33</time>
   <energy>
    <i name="e_fr_energy">   -947.52998600 </i>
    <i name="e_wo_entrp">   -947.52998600 </i>
    <i name="e_0_energy">   -947.52998600 </i>
   </energy>
  </scstep>
  <scstep>
   <time name="total">  458.41  458.34</time>
   <energy>
    <i name="e_fr_energy">   -947.53026065 </i>
    <i name="e_wo_entrp">   -947.53026065 </i>
    <i name="e_0_energy">   -947.53026065 </i>
   </energy>
  </scstep>
  <scstep>
   <time name="total">  458.21  458.15</time>
   <energy>
    <i name="e_fr_energy">   -947.53034710 </i>
    <i name="e_wo_entrp">   -947.53034710 </i>
    <i name="e_0_energy">   -947.53034710 </i>
   </energy>
  </scstep>
  <scstep>
   <time name="total">  458.43  458.38</time>
   <energy>
    <i name="e_fr_energy">   -947.53037848 </i>
    <i name="e_wo_entrp">   -947.53037848 </i>
    <i name="e_0_energy">   -947.53037848 </i>
   </energy>
  </scstep>
  <scstep>
   <time name="total">  458.47  458.40</time>
   <energy>
    <i name="e_fr_energy">   -947.53038995 </i>
    <i name="e_wo_entrp">   -947.53038995 </i>
    <i name="e_0_energy">   -947.53038995 </i>
   </energy>
  </scstep>
  <scstep>
   <time name="total">  683.83  683.73</time>
   <energy>
    <i name="alphaZ">   5376.25786726 </i>
    <i name="ewald"> -86652.75323191 </i>
    <i name="hartreedc"> -33891.62140839 </i>
    <i name="XCdc">   2869.42238383 </i>
    <i name="pawpsdc"> 120297.63751404 </i>
    <i name="pawaedc">-135535.70451902 </i>
    <i name="eentropy">     -0.00000000 </i>
    <i name="bandstr">  -8745.96539811 </i>
    <i name="atom"> 131500.23896116 </i>
    <i name="e_fr_energy">   -947.53039428 </i>
    <i name="e_wo_entrp">   -947.53039428 </i>
    <i name="e_0_energy">   -947.53039428 </i>
   </energy>
  </scstep>
  <structure>
   <crystal>
    <varray name="basis" >
     <v>       0.00000000      12.28047342       0.00000000 </v>
     <v>       9.14270205       0.00000000       0.00000000 </v>
     <v>       0.00000000      -2.76826177     -11.30069772 </v>
    </varray>
    <i name="volume">   1268.80515525 </i>
    <varray name="rec_basis" >
     <v>       0.00000000       0.08143009      -0.01994742 </v>
     <v>       0.10937686      -0.00000000       0.00000000 </v>
     <v>       0.00000000       0.00000000      -0.08849011 </v>
    </varray>
   </crystal>
   <varray name="positions" >
    <v>       0.66321357       0.99340610       0.15245181 </v>
    <v>       0.65955000       0.99919605       0.65876011 </v>
    <v>       0.66321357       0.33992723       0.15245181 </v>
    <v>       0.65955000       0.33413729       0.65876011 </v>
    <v>       0.66006421       0.66666667       0.15587495 </v>
    <v>       0.66087404       0.66666667       0.65533275 </v>
    <v>       0.84187901       0.16666667       0.84601587 </v>
    <v>       0.84555697       0.50093069       0.33532998 </v>
    <v>       0.84266196       0.49988791       0.84377652 </v>
    <v>       0.84555697       0.83240264       0.33532998 </v>
    <v>       0.84266196       0.83344543       0.84377652 </v>
    <v>       0.59001836       0.16666667       0.40282926 </v>
    <v>       0.59198837       0.16666667       0.89999951 </v>
    <v>       0.59270907       0.50035921       0.39743955 </v>
    <v>       0.58930135       0.50130392       0.89411166 </v>
    <v>       0.59270907       0.83297412       0.39743955 </v>
    <v>       0.58930135       0.83202941       0.89411166 </v>
    <v>       0.91220035       0.99874422       0.10364042 </v>
    <v>       0.91133059       0.00102406       0.60733915 </v>
    <v>       0.91220035       0.33458911       0.10364042 </v>
    <v>       0.91133059       0.33230927       0.60733915 </v>
    <v>       0.91223911       0.66666667       0.09961718 </v>
    <v>       0.90841506       0.66666667       0.60011346 </v>
    <v>       0.16225995       0.16666667       0.15856615 </v>
    <v>       0.16309913       0.16666667       0.65614853 </v>
    <v>       0.16163751       0.49954771       0.15836430 </v>
    <v>       0.15935447       0.49896695       0.65351962 </v>
    <v>       0.16163751       0.83378562       0.15836430 </v>
    <v>       0.15935447       0.83436638       0.65351962 </v>
    <v>       0.34108936       0.99944974       0.34385220 </v>
    <v>       0.34151516       0.99991600       0.84392570 </v>
    <v>       0.34108936       0.33388359       0.34385220 </v>
    <v>       0.34151516       0.33341734       0.84392570 </v>
    <v>       0.34213929       0.66666667       0.34411142 </v>
    <v>       0.33968096       0.66666667       0.84294240 </v>
    <v>       0.08721438       0.03119665       0.39582290 </v>
    <v>       0.09254864       0.00007140       0.89825922 </v>
    <v>       0.08721438       0.30213668       0.39582290 </v>
    <v>       0.09254864       0.33326194       0.89825922 </v>
    <v>       0.08743528       0.66666667       0.39554640 </v>
    <v>       0.09273250       0.66666667       0.89832225 </v>
    <v>       0.41295216       0.16666667       0.10396344 </v>
    <v>       0.41062371       0.16666667       0.60350137 </v>
    <v>       0.41185419       0.49923469       0.10349854 </v>
    <v>       0.40991758       0.50057387       0.60295293 </v>
    <v>       0.41185419       0.83409865       0.10349854 </v>
    <v>       0.40991758       0.83275946       0.60295293 </v>
    <v>       0.99774679       0.16666667       0.13760204 </v>
    <v>       0.99827549       0.16666667       0.62276403 </v>
    <v>       0.99963215       0.50102925       0.12531981 </v>
    <v>       0.99501257       0.49927661       0.62469466 </v>
    <v>       0.99963215       0.83230409       0.12531981 </v>
    <v>       0.99501257       0.83405672       0.62469466 </v>
    <v>       0.50553325       0.99991609       0.37202630 </v>
    <v>       0.50458761       0.00045929       0.87367445 </v>
    <v>       0.50553325       0.33341724       0.37202630 </v>
    <v>       0.50458761       0.33287404       0.87367445 </v>
    <v>       0.50556897       0.66666667       0.37321391 </v>
    <v>       0.50162285       0.66666667       0.86838905 </v>
    <v>       0.69125301       0.16666667       0.29846643 </v>
    <v>       0.67399468       0.16666667       0.78364100 </v>
    <v>       0.67558340       0.50092321       0.28170273 </v>
    <v>       0.67395078       0.50015197       0.78000216 </v>
    <v>       0.67558340       0.83241012       0.28170273 </v>
    <v>       0.67395078       0.83318136       0.78000216 </v>
    <v>       0.82407134       0.98104011       0.21095237 </v>
    <v>       0.82812081       0.00093956       0.72089423 </v>
    <v>       0.82407134       0.35229323       0.21095237 </v>
    <v>       0.82812081       0.33239377       0.72089423 </v>
    <v>       0.83014428       0.66666667       0.21602386 </v>
    <v>       0.82851175       0.66666667       0.71839289 </v>
    <v>       0.82648019       0.01693656       0.44889008 </v>
    <v>       0.83458369       0.99989590       0.94693956 </v>
    <v>       0.82648019       0.31639677       0.44889008 </v>
    <v>       0.83458369       0.33343743       0.94693956 </v>
    <v>       0.83750311       0.66666667       0.44148731 </v>
    <v>       0.83312026       0.66666667       0.94430125 </v>
    <v>       0.66840242       0.16666667       0.05824493 </v>
    <v>       0.66740092       0.16666667       0.55823143 </v>
    <v>       0.66513173       0.50447031       0.05000657 </v>
    <v>       0.67112488       0.49901778       0.55389486 </v>
    <v>       0.66513173       0.82886302       0.05000657 </v>
    <v>       0.67112488       0.83431555       0.55389486 </v>
    <v>       0.50191653       0.00050262       0.13111043 </v>
    <v>       0.49764149       0.99935834       0.62853847 </v>
    <v>       0.50191653       0.33283072       0.13111043 </v>
    <v>       0.49764149       0.33397500       0.62853847 </v>
    <v>       0.49821932       0.66666667       0.12836278 </v>
    <v>       0.49866121       0.66666667       0.62706480 </v>
    <v>       0.00421700       0.16666667       0.87222737 </v>
    <v>       0.00639894       0.48741856       0.37466479 </v>
    <v>       0.00473898       0.49999153       0.87118102 </v>
    <v>       0.00639894       0.84591478       0.37466479 </v>
    <v>       0.00473898       0.83334180       0.87118102 </v>
    <v>       0.17507225       0.99890453       0.27961065 </v>
    <v>       0.17363170       0.00039468       0.78101917 </v>
    <v>       0.17507225       0.33442880       0.27961065 </v>
    <v>       0.17363170       0.33293865       0.78101917 </v>
    <v>       0.17304752       0.66666667       0.28136279 </v>
    <v>       0.17247054       0.66666667       0.77935407 </v>
    <v>       0.33114916       0.16666667       0.22009209 </v>
    <v>       0.33024942       0.16666667       0.72131374 </v>
    <v>       0.33021702       0.50056226       0.22008038 </v>
    <v>       0.32797323       0.50018808       0.71950792 </v>
    <v>       0.33021702       0.83277108       0.22008038 </v>
    <v>       0.32797323       0.83314526       0.71950792 </v>
    <v>       0.33609632       0.16666667       0.44658815 </v>
    <v>       0.33558376       0.16666667       0.94759254 </v>
    <v>       0.33546562       0.50046277       0.44634693 </v>
    <v>       0.33461195       0.49954093       0.94691367 </v>
    <v>       0.33546562       0.83287057       0.44634693 </v>
    <v>       0.33461195       0.83379240       0.94691367 </v>
    <v>       0.16871185       0.00091429       0.05424312 </v>
    <v>       0.16881161       0.99996261       0.55456553 </v>
    <v>       0.16871185       0.33241904       0.05424312 </v>
    <v>       0.16881161       0.33337073       0.55456553 </v>
    <v>       0.17027638       0.66666667       0.05456315 </v>
    <v>       0.16485107       0.66666667       0.55249993 </v>
    <v>       0.83275343       0.16666667       0.36305175 </v>
   </varray>
  </structure>
  <varray name="forces" >
   <v>      -0.14670391       0.18660687       0.08433010 </v>
   <v>      -0.00161722       0.05972003      -0.00046964 </v>
   <v>       0.14670391       0.18660687       0.08433010 </v>
   <v>       0.00161722       0.05972003      -0.00046964 </v>
   <v>       0.00000000       0.05068372       0.05219171 </v>
   <v>       0.00000000       0.06957283      -0.01233187 </v>
   <v>       0.00000000      -0.07233281      -0.02848320 </v>
   <v>       0.06657066      -0.00439227       0.22270968 </v>
   <v>       0.00660276      -0.06129402      -0.02977532 </v>
   <v>      -0.06657066      -0.00439227       0.22270968 </v>
   <v>      -0.00660276      -0.06129402      -0.02977532 </v>
   <v>       0.00000000      -0.04694885      -0.07648738 </v>
   <v>       0.00000000      -0.03894234       0.04320246 </v>
   <v>       0.01288973      -0.02020507       0.03155945 </v>
   <v>       0.00594521      -0.01932180      -0.01848378 </v>
   <v>      -0.01288973      -0.02020507       0.03155945 </v>
   <v>      -0.00594521      -0.01932180      -0.01848378 </v>
   <v>      -0.03912915      -0.04373330      -0.07605315 </v>
   <v>       0.02343844       0.05683846      -0.07368446 </v>
   <v>       0.03912915      -0.04373330      -0.07605315 </v>
   <v>      -0.02343844       0.05683846      -0.07368446 </v>
   <v>       0.00000000       0.02538939      -0.01831092 </v>
   <v>       0.00000000       0.07677081      -0.02361484 </v>
   <v>       0.00000000       0.06016071      -0.07022992 </v>
   <v>       0.00000000       0.09908323       0.10798385 </v>
   <v>      -0.02722764       0.04003052      -0.04308496 </v>
   <v>      -0.02779789       0.10210321       0.09893897 </v>
   <v>       0.02722764       0.04003052      -0.04308496 </v>
   <v>       0.02779789       0.10210321       0.09893897 </v>
   <v>      -0.00670500      -0.14420934       0.00097872 </v>
   <v>       0.00139975      -0.07365014       0.00335639 </v>
   <v>       0.00670500      -0.14420934       0.00097872 </v>
   <v>      -0.00139975      -0.07365014       0.00335639 </v>
   <v>       0.00000000      -0.08640950      -0.01741938 </v>
   <v>       0.00000000      -0.06153866       0.01926770 </v>
   <v>      -0.33168937       0.33924925      -0.10823772 </v>
   <v>      -0.00523834      -0.00017041       0.00851275 </v>
   <v>       0.33168937       0.33924925      -0.10823772 </v>
   <v>       0.00523834      -0.00017041       0.00851275 </v>
   <v>       0.00000000       0.13394837      -0.06135399 </v>
   <v>       0.00000000      -0.00584006       0.03238162 </v>
   <v>       0.00000000      -0.01824318      -0.02389960 </v>
   <v>       0.00000000      -0.00430673      -0.00164011 </v>
   <v>       0.04026501      -0.00736695      -0.02730526 </v>
   <v>      -0.01010347       0.00044993       0.01404167 </v>
   <v>      -0.04026501      -0.00736695      -0.02730526 </v>
   <v>       0.01010347       0.00044993       0.01404167 </v>
   <v>       0.00000000      -0.15289324       0.26056773 </v>
   <v>       0.00000000      -0.29705661       0.02956917 </v>
   <v>       0.01030325      -0.18821409       0.11104562 </v>
   <v>      -0.03746720      -0.23882245       0.09242175 </v>
   <v>      -0.01030325      -0.18821409       0.11104562 </v>
   <v>       0.03746720      -0.23882245       0.09242175 </v>
   <v>       0.04086475       0.22675786      -0.15659618 </v>
   <v>      -0.01047209       0.18446325      -0.10872804 </v>
   <v>      -0.04086475       0.22675786      -0.15659618 </v>
   <v>       0.01047209       0.18446325      -0.10872804 </v>
   <v>       0.00000000       0.20872660      -0.12562852 </v>
   <v>       0.00000000       0.18973894      -0.13398350 </v>
   <v>       0.00000000       0.37261024      -0.43770605 </v>
   <v>       0.00000000      -0.03870276      -0.12581410 </v>
   <v>       0.01161477      -0.05886314      -0.09327572 </v>
   <v>      -0.02334725      -0.05517499      -0.08573608 </v>
   <v>      -0.01161477      -0.05886314      -0.09327572 </v>
   <v>       0.02334725      -0.05517499      -0.08573608 </v>
   <v>      -0.28852424      -0.03956263       0.22341547 </v>
   <v>      -0.00985265       0.07699276       0.13188041 </v>
   <v>       0.28852424      -0.03956263       0.22341547 </v>
   <v>       0.00985265       0.07699276       0.13188041 </v>
   <v>       0.00000000       0.05265221       0.04640855 </v>
   <v>       0.00000000       0.02254685       0.14327569 </v>
   <v>       0.47659816       0.36659101       0.10894633 </v>
   <v>       0.01547234       0.39523334      -0.03858804 </v>
   <v>      -0.47659816       0.36659101       0.10894633 </v>
   <v>      -0.01547234       0.39523334      -0.03858804 </v>
   <v>       0.00000000       0.34644307      -0.07943826 </v>
   <v>       0.00000000       0.42386466      -0.05505048 </v>
   <v>       0.00000000      -0.39001872       0.07547344 </v>
   <v>       0.00000000      -0.39022800       0.10560705 </v>
   <v>      -0.03666257      -0.38884164       0.04551378 </v>
   <v>       0.01995080      -0.41035741       0.07314693 </v>
   <v>       0.03666257      -0.38884164       0.04551378 </v>
   <v>      -0.01995080      -0.41035741       0.07314693 </v>
   <v>       0.00601665      -0.15150103       0.14336119 </v>
   <v>       0.00322739      -0.13723815       0.10681019 </v>
   <v>      -0.00601665      -0.15150103       0.14336119 </v>
   <v>      -0.00322739      -0.13723815       0.10681019 </v>
   <v>       0.00000000      -0.15017625       0.11670454 </v>
   <v>       0.00000000      -0.15659698       0.10036784 </v>
   <v>       0.00000000       0.15944149      -0.12280745 </v>
   <v>       0.09555502      -0.04018140      -0.01534712 </v>
   <v>      -0.00557594       0.14804853      -0.13347316 </v>
   <v>      -0.09555502      -0.04018140      -0.01534712 </v>
   <v>       0.00557594       0.14804853      -0.13347316 </v>
   <v>       0.03068949       0.10478282       0.02101959 </v>
   <v>       0.01154474      -0.03616012      -0.14352811 </v>
   <v>      -0.03068949       0.10478282       0.02101959 </v>
   <v>      -0.01154474      -0.03616012      -0.14352811 </v>
   <v>       0.00000000      -0.02754005      -0.07244292 </v>
   <v>       0.00000000      -0.01788905      -0.15530325 </v>
   <v>       0.00000000       0.05979666       0.13080808 </v>
   <v>       0.00000000       0.02576462       0.11359811 </v>
   <v>      -0.00361459       0.05606219       0.12327814 </v>
   <v>       0.00581301       0.06071232       0.10879114 </v>
   <v>       0.00361459       0.05606219       0.12327814 </v>
   <v>      -0.00581301       0.06071232       0.10879114 </v>
   <v>       0.00000000       0.39861338      -0.08183609 </v>
   <v>       0.00000000       0.38568031      -0.08335480 </v>
   <v>       0.00764499       0.40703224      -0.08207248 </v>
   <v>      -0.01069111       0.38594977      -0.06780899 </v>
   <v>      -0.00764499       0.40703224      -0.08207248 </v>
   <v>       0.01069111       0.38594977      -0.06780899 </v>
   <v>       0.00789442      -0.38340983       0.10080265 </v>
   <v>       0.01135899      -0.36910051      -0.13455935 </v>
   <v>      -0.00789442      -0.38340983       0.10080265 </v>
   <v>      -0.01135899      -0.36910051      -0.13455935 </v>
   <v>       0.00000000      -0.39715996       0.09837192 </v>
   <v>       0.00000000      -0.37729454       0.02762818 </v>
   <v>       0.00000000      -1.08307715      -0.53237779 </v>
  </varray>
  <varray name="stress" >
   <v>     -56.90604769       0.00000000       0.00000000 </v>
   <v>       0.00000000     -44.01868212       3.27864810 </v>
   <v>       0.00000000       3.27864893     -39.30196729 </v>
  </varray>
  <energy>
   <i name="e_fr_energy">   -947.53039428 </i>
   <i name="e_wo_entrp">   -947.53039428 </i>
   <i name="e_0_energy">   -947.53039428 </i>
  </energy>
  <time name="totalsc">18015.5618015.14</time>
  <eigenvalues>
   <array>
    <dimension dim="1">band</dimension>
    <dimension dim="2">kpoint</dimension>
    <dimension dim="3">spin</dimension>
    <field>eigene</field>
    <field>occ</field>
    <set>
     <set comment="spin 1">
      <set comment="kpoint 1">
       <r>  -19.5850    1.0000 </r>
       <r>  -18.6421    1.0000 </r>
       <r>  -18.3855    1.0000 </r>
       <r>  -18.3032    1.0000 </r>
       <r>  -18.1868    1.0000 </r>
       <r>  -18.1737    1.0000 </r>
       <r>  -18.1650    1.0000 </r>
       <r>  -18.0175    1.0000 </r>
       <r>  -17.9715    1.0000 </r>
       <r>  -17.9584    1.0000 </r>
       <r>  -17.9030    1.0000 </r>
       <r>  -17.8291    1.0000 </r>
       <r>  -17.8066    1.0000 </r>
       <r>  -17.7566    1.0000 </r>
       <r>  -17.7435    1.0000 </r>
       <r>  -17.7366    1.0000 </r>
       <r>  -17.6772    1.0000 </r>
       <r>  -17.6762    1.0000 </r>
       <r>  -17.6738    1.0000 </r>
       <r>  -17.6215    1.0000 </r>
       <r>  -17.5830    1.0000 </r>
       <r>  -17.5638    1.0000 </r>
       <r>  -17.5572    1.0000 </r>
       <r>  -17.5548    1.0000 </r>
       <r>  -17.5328    1.0000 </r>
       <r>  -17.4936    1.0000 </r>
       <r>  -17.4514    1.0000 </r>
       <r>  -17.4224    1.0000 </r>
       <r>  -17.4107    1.0000 </r>
       <r>  -17.3931    1.0000 </r>
       <r>  -17.3715    1.0000 </r>
       <r>  -17.3695    1.0000 </r>
       <r>  -17.3483    1.0000 </r>
       <r>  -17.3454    1.0000 </r>
       <r>  -17.3161    1.0000 </r>
       <r>  -17.3009    1.0000 </r>
       <r>  -17.2683    1.0000 </r>
       <r>  -17.2542    1.0000 </r>
       <r>  -17.2536    1.0000 </r>
       <r>  -17.2410    1.0000 </r>
       <r>  -17.1925    1.0000 </r>
       <r>  -17.1779    1.0000 </r>
       <r>  -17.1438    1.0000 </r>
       <r>  -17.1281    1.0000 </r>
       <r>  -17.1205    1.0000 </r>
       <r>  -17.0976    1.0000 </r>
       <r>  -17.0893    1.0000 </r>
       <r>  -17.0834    1.0000 </r>
       <r>  -17.0432    1.0000 </r>
       <r>  -17.0135    1.0000 </r>
       <r>  -17.0117    1.0000 </r>
       <r>  -16.9804    1.0000 </r>
       <r>  -16.9767    1.0000 </r>
       <r>  -16.9712    1.0000 </r>
       <r>  -16.9588    1.0000 </r>
       <r>  -16.9512    1.0000 </r>
       <r>  -16.9493    1.0000 </r>
       <r>  -16.9392    1.0000 </r>
       <r>  -16.9300    1.0000 </r>
       <r>  -16.8997    1.0000 </r>
       <r>  -16.8861    1.0000 </r>
       <r>  -16.8808    1.0000 </r>
       <r>  -16.8738    1.0000 </r>
       <r>  -16.8636    1.0000 </r>
       <r>  -16.8309    1.0000 </r>
       <r>  -16.8041    1.0000 </r>
       <r>  -16.7621    1.0000 </r>
       <r>  -16.7386    1.0000 </r>
       <r>  -16.6478    1.0000 </r>
       <r>  -16.5396    1.0000 </r>
       <r>  -16.5298    1.0000 </r>
       <r>  -13.3263    1.0000 </r>
       <r>  -13.2312    1.0000 </r>
       <r>  -13.2018    1.0000 </r>
       <r>  -13.1944    1.0000 </r>
       <r>  -13.1723    1.0000 </r>
       <r>  -13.1630    1.0000 </r>
       <r>  -13.1508    1.0000 </r>
       <r>  -13.1361    1.0000 </r>
       <r>  -13.1289    1.0000 </r>
       <r>  -13.1074    1.0000 </r>
       <r>  -13.1036    1.0000 </r>
       <r>  -13.0935    1.0000 </r>
       <r>  -13.0676    1.0000 </r>
       <r>  -13.0624    1.0000 </r>
       <r>  -13.0623    1.0000 </r>
       <r>  -13.0392    1.0000 </r>
       <r>  -13.0385    1.0000 </r>
       <r>  -13.0300    1.0000 </r>
       <r>  -13.0238    1.0000 </r>
       <r>  -13.0188    1.0000 </r>
       <r>  -13.0161    1.0000 </r>
       <r>  -13.0011    1.0000 </r>
       <r>  -12.9969    1.0000 </r>
       <r>  -12.9953    1.0000 </r>
       <r>  -12.9931    1.0000 </r>
       <r>  -12.9789    1.0000 </r>
       <r>  -12.9756    1.0000 </r>
       <r>  -12.9669    1.0000 </r>
       <r>  -12.9657    1.0000 </r>
       <r>  -12.9646    1.0000 </r>
       <r>  -12.9582    1.0000 </r>
       <r>  -12.9552    1.0000 </r>
       <r>  -12.9540    1.0000 </r>
       <r>  -12.9485    1.0000 </r>
       <r>  -12.9447    1.0000 </r>
       <r>  -12.9389    1.0000 </r>
       <r>  -12.9361    1.0000 </r>
       <r>  -12.9359    1.0000 </r>
       <r>  -12.9308    1.0000 </r>
       <r>  -12.9281    1.0000 </r>
       <r>  -12.9257    1.0000 </r>
       <r>  -12.9250    1.0000 </r>
       <r>  -12.9222    1.0000 </r>
       <r>  -12.9172    1.0000 </r>
       <r>  -12.9122    1.0000 </r>
       <r>  -12.9101    1.0000 </r>
       <r>  -12.9079    1.0000 </r>
       <r>  -12.9032    1.0000 </r>
       <r>  -12.8974    1.0000 </r>
       <r>  -12.8973    1.0000 </r>
       <r>  -12.8940    1.0000 </r>
       <r>  -12.8936    1.0000 </r>
       <r>  -12.8897    1.0000 </r>
       <r>  -12.8871    1.0000 </r>
       <r>  -12.8769    1.0000 </r>
       <r>  -12.8712    1.0000 </r>
       <r>  -12.8695    1.0000 </r>
       <r>  -12.8639    1.0000 </r>
       <r>  -12.8621    1.0000 </r>
       <r>  -12.8576    1.0000 </r>
       <r>  -12.8570    1.0000 </r>
       <r>  -12.8525    1.0000 </r>
       <r>  -12.8443    1.0000 </r>
       <r>  -12.8439    1.0000 </r>
       <r>  -12.8437    1.0000 </r>
       <r>  -12.8390    1.0000 </r>
       <r>  -12.8324    1.0000 </r>
       <r>  -12.8248    1.0000 </r>
       <r>  -12.8246    1.0000 </r>
       <r>  -12.8161    1.0000 </r>
       <r>  -12.8141    1.0000 </r>
       <r>  -12.8115    1.0000 </r>
       <r>  -12.8101    1.0000 </r>
       <r>  -12.8035    1.0000 </r>
       <r>  -12.8026    1.0000 </r>
       <r>  -12.8004    1.0000 </r>
       <r>  -12.7961    1.0000 </r>
       <r>  -12.7960    1.0000 </r>
       <r>  -12.7933    1.0000 </r>
       <r>  -12.7902    1.0000 </r>
       <r>  -12.7898    1.0000 </r>
       <r>  -12.7843    1.0000 </r>
       <r>  -12.7834    1.0000 </r>
       <r>  -12.7833    1.0000 </r>
       <r>  -12.7800    1.0000 </r>
       <r>  -12.7768    1.0000 </r>
       <r>  -12.7729    1.0000 </r>
       <r>  -12.7692    1.0000 </r>
       <r>  -12.7684    1.0000 </r>
       <r>  -12.7672    1.0000 </r>
       <r>  -12.7636    1.0000 </r>
       <r>  -12.7635    1.0000 </r>
       <r>  -12.7586    1.0000 </r>
       <r>  -12.7557    1.0000 </r>
       <r>  -12.7542    1.0000 </r>
       <r>  -12.7529    1.0000 </r>
       <r>  -12.7455    1.0000 </r>
       <r>  -12.7429    1.0000 </r>
       <r>  -12.7408    1.0000 </r>
       <r>  -12.7387    1.0000 </r>
       <r>  -12.7374    1.0000 </r>
       <r>  -12.7324    1.0000 </r>
       <r>  -12.7295    1.0000 </r>
       <r>  -12.7282    1.0000 </r>
       <r>  -12.7261    1.0000 </r>
       <r>  -12.7246    1.0000 </r>
       <r>  -12.7227    1.0000 </r>
       <r>  -12.7169    1.0000 </r>
       <r>  -12.7147    1.0000 </r>
       <r>  -12.7116    1.0000 </r>
       <r>  -12.7085    1.0000 </r>
       <r>  -12.7074    1.0000 </r>
       <r>  -12.7058    1.0000 </r>
       <r>  -12.7037    1.0000 </r>
       <r>  -12.7016    1.0000 </r>
       <r>  -12.6922    1.0000 </r>
       <r>  -12.6901    1.0000 </r>
       <r>  -12.6890    1.0000 </r>
       <r>  -12.6885    1.0000 </r>
       <r>  -12.6835    1.0000 </r>
       <r>  -12.6831    1.0000 </r>
       <r>  -12.6731    1.0000 </r>
       <r>  -12.6726    1.0000 </r>
       <r>  -12.6705    1.0000 </r>
       <r>  -12.6671    1.0000 </r>
       <r>  -12.6638    1.0000 </r>
       <r>  -12.6586    1.0000 </r>
       <r>  -12.6556    1.0000 </r>
       <r>  -12.6555    1.0000 </r>
       <r>  -12.6509    1.0000 </r>
       <r>  -12.6501    1.0000 </r>
       <r>  -12.6456    1.0000 </r>
       <r>  -12.6455    1.0000 </r>
       <r>  -12.6430    1.0000 </r>
       <r>  -12.6393    1.0000 </r>
       <r>  -12.6345    1.0000 </r>
       <r>  -12.6330    1.0000 </r>
       <r>  -12.6296    1.0000 </r>
       <r>  -12.6291    1.0000 </r>
       <r>  -12.6252    1.0000 </r>
       <r>  -12.6233    1.0000 </r>
       <r>  -12.6203    1.0000 </r>
       <r>  -12.6098    1.0000 </r>
       <r>  -12.6078    1.0000 </r>
       <r>  -12.6048    1.0000 </r>
       <r>  -12.6033    1.0000 </r>
       <r>  -12.6006    1.0000 </r>
       <r>  -12.5954    1.0000 </r>
       <r>  -12.5951    1.0000 </r>
       <r>  -12.5864    1.0000 </r>
       <r>  -12.5862    1.0000 </r>
       <r>  -12.5797    1.0000 </r>
       <r>  -12.5743    1.0000 </r>
       <r>  -12.5684    1.0000 </r>
       <r>  -12.5652    1.0000 </r>
       <r>  -12.5605    1.0000 </r>
       <r>  -12.5582    1.0000 </r>
       <r>  -12.5493    1.0000 </r>
       <r>  -12.5471    1.0000 </r>
       <r>  -12.5415    1.0000 </r>
       <r>  -12.5412    1.0000 </r>
       <r>  -12.5372    1.0000 </r>
       <r>  -12.5300    1.0000 </r>
       <r>  -12.5273    1.0000 </r>
       <r>  -12.5192    1.0000 </r>
       <r>  -12.5186    1.0000 </r>
       <r>  -12.5123    1.0000 </r>
       <r>  -12.5119    1.0000 </r>
       <r>  -12.5053    1.0000 </r>
       <r>  -12.4988    1.0000 </r>
       <r>  -12.4926    1.0000 </r>
       <r>  -12.4872    1.0000 </r>
       <r>  -12.4871    1.0000 </r>
       <r>  -12.4794    1.0000 </r>
       <r>  -12.4768    1.0000 </r>
       <r>  -12.4689    1.0000 </r>
       <r>  -12.4661    1.0000 </r>
       <r>  -12.4564    1.0000 </r>
       <r>  -12.4513    1.0000 </r>
       <r>  -12.4451    1.0000 </r>
       <r>  -12.4429    1.0000 </r>
       <r>  -12.4398    1.0000 </r>
       <r>  -12.4395    1.0000 </r>
       <r>  -12.4299    1.0000 </r>
[...]
       <r>   -13.1323    94.6880   157.6188 </r>
       <r>   -12.9961   236.3727   189.8217 </r>
       <r>   -12.8599   522.0551   260.9452 </r>
       <r>   -12.7236   668.2123   351.9808 </r>
       <r>   -12.5874   646.9837   440.1243 </r>
       <r>   -12.4511   430.9393   498.8345 </r>
       <r>   -12.3149   266.2946   535.1138 </r>
       <r>   -12.1787   144.2770   554.7698 </r>
       <r>   -12.0424   112.6127   570.1118 </r>
       <r>   -11.9062    97.1717   583.3503 </r>
       <r>   -11.7699   103.9250   597.5088 </r>
       <r>   -11.6337    78.8847   608.2558 </r>
       <r>   -11.4975    26.4859   611.8642 </r>
       <r>   -11.3612     0.9967   612.0000 </r>
       <r>   -11.2250     0.0000   612.0000 </r>
       <r>   -11.0888     0.0000   612.0000 </r>
       <r>   -10.9525     0.0000   612.0000 </r>
       <r>   -10.8163     0.0000   612.0000 </r>
       <r>   -10.6800     0.0000   612.0000 </r>
       <r>   -10.5438     0.0000   612.0000 </r>
       <r>   -10.4076     0.0000   612.0000 </r>
       <r>   -10.2713     0.0000   612.0000 </r>
       <r>   -10.1351     0.0000   612.0000 </r>
       <r>    -9.9989     0.0000   612.0000 </r>
       <r>    -9.8626     0.0000   612.0000 </r>
       <r>    -9.7264     0.0000   612.0000 </r>
       <r>    -9.5901     0.0000   612.0000 </r>
       <r>    -9.4539     0.0000   612.0000 </r>
       <r>    -9.3177     0.0000   612.0000 </r>
       <r>    -9.1814     0.0000   612.0000 </r>
       <r>    -9.0452     0.0000   612.0000 </r>
       <r>    -8.9090     0.0000   612.0000 </r>
       <r>    -8.7727     0.0000   612.0000 </r>
       <r>    -8.6365     0.0000   612.0000 </r>
       <r>    -8.5002     0.0000   612.0000 </r>
       <r>    -8.3640     0.0000   612.0000 </r>
       <r>    -8.2278     0.0000   612.0000 </r>
       <r>    -8.0915     0.0000   612.0000 </r>
       <r>    -7.9553     0.0000   612.0000 </r>
       <r>    -7.8191     0.0000   612.0000 </r>
       <r>    -7.6828     0.0000   612.0000 </r>
       <r>    -7.5466     0.0000   612.0000 </r>
       <r>    -7.4103     0.0000   612.0000 </r>
       <r>    -7.2741     0.0120   612.0016 </r>
       <r>    -7.1379    10.9211   613.4895 </r>
       <r>    -7.0016     3.7470   614.0000 </r>
       <r>    -6.8654     0.0001   614.0000 </r>
       <r>    -6.7292     0.0000   614.0000 </r>
       <r>    -6.5929     0.0000   614.0000 </r>
       <r>    -6.4567     0.0000   614.0000 </r>
       <r>    -6.3204     0.0000   614.0000 </r>
       <r>    -6.1842     0.0000   614.0000 </r>
       <r>    -6.0480     0.0000   614.0000 </r>
       <r>    -5.9117     0.0000   614.0000 </r>
       <r>    -5.7755     0.0000   614.0000 </r>
       <r>    -5.6393     0.0000   614.0000 </r>
       <r>    -5.5030     0.0000   614.0000 </r>
       <r>    -5.3668     0.0000   614.0000 </r>
       <r>    -5.2305     0.6050   614.0824 </r>
       <r>    -5.0943     6.8868   615.0207 </r>
       <r>    -4.9581    21.1614   617.9037 </r>
       <r>    -4.8218    21.7656   620.8690 </r>
       <r>    -4.6856    31.7102   625.1891 </r>
       <r>    -4.5494    27.6833   628.9606 </r>
       <r>    -4.4131    45.8223   635.2033 </r>
       <r>    -4.2769    39.7008   640.6120 </r>
       <r>    -4.1406    51.5702   647.6378 </r>
       <r>    -4.0044    53.3505   654.9062 </r>
       <r>    -3.8682    41.7918   660.5998 </r>
       <r>    -3.7319    44.1579   666.6158 </r>
       <r>    -3.5957    42.5867   672.4177 </r>
       <r>    -3.4595    32.5412   676.8510 </r>
       <r>    -3.3232    31.3269   681.1189 </r>
       <r>    -3.1870    36.4717   686.0877 </r>
       <r>    -3.0507    40.7193   691.6352 </r>
       <r>    -2.9145    40.0456   697.0909 </r>
       <r>    -2.7783    34.3662   701.7729 </r>
       <r>    -2.6420    31.2333   706.0280 </r>
       <r>    -2.5058    43.1183   711.9024 </r>
       <r>    -2.3696    33.8476   716.5137 </r>
       <r>    -2.2333    38.4138   721.7471 </r>
       <r>    -2.0971    48.0301   728.2906 </r>
       <r>    -1.9608    38.9383   733.5955 </r>
       <r>    -1.8246    52.3165   740.7229 </r>
       <r>    -1.6884    68.8788   750.1068 </r>
       <r>    -1.5521    56.7737   757.8415 </r>
       <r>    -1.4159    59.9540   766.0095 </r>
       <r>    -1.2797    65.0068   774.8659 </r>
       <r>    -1.1434    55.8878   782.4799 </r>
       <r>    -1.0072    53.3501   789.7482 </r>
       <r>    -0.8709    62.5628   798.2716 </r>
       <r>    -0.7347    70.3532   807.8564 </r>
       <r>    -0.5985    71.0648   817.5381 </r>
       <r>    -0.4622    70.8016   827.1839 </r>
       <r>    -0.3260    64.9578   836.0336 </r>
       <r>    -0.1898    63.1724   844.6401 </r>
       <r>    -0.0535    67.0245   853.7713 </r>
       <r>     0.0827    74.3256   863.8973 </r>
       <r>     0.2190    83.3297   875.2499 </r>
       <r>     0.3552    65.6380   884.1923 </r>
       <r>     0.4914    76.2191   894.5762 </r>
       <r>     0.6277    77.9797   905.1999 </r>
       <r>     0.7639    87.9645   917.1840 </r>
       <r>     0.9001    89.0829   929.3204 </r>
       <r>     1.0364    89.3215   941.4894 </r>
       <r>     1.1726    99.3214   955.0207 </r>
       <r>     1.3089   118.5284   971.1687 </r>
       <r>     1.4451   117.7611   987.2122 </r>
       <r>     1.5813   119.0492  1003.4312 </r>
       <r>     1.7176    97.1650  1016.6687 </r>
       <r>     1.8538    70.8426  1026.3201 </r>
       <r>     1.9900    44.9199  1032.4399 </r>
       <r>     2.1263    38.2389  1037.6495 </r>
       <r>     2.2625     2.5727  1038.0000 </r>
       <r>     2.3988     0.0001  1038.0000 </r>
       <r>     2.5350     0.0000  1038.0000 </r>
       <r>     2.6712     0.0000  1038.0000 </r>
       <r>     2.8075     0.0245  1038.0033 </r>
       <r>     2.9437     2.4166  1038.3326 </r>
       <r>     3.0799     9.6203  1039.6432 </r>
       <r>     3.2162     2.6185  1040.0000 </r>
       <r>     3.3524     0.0003  1040.0000 </r>
       <r>     3.4887     0.0000  1040.0000 </r>
       <r>     3.6249     0.0000  1040.0000 </r>
       <r>     3.7611     0.0000  1040.0000 </r>
       <r>     3.8974     0.0000  1040.0000 </r>
       <r>     4.0336     0.0000  1040.0000 </r>
       <r>     4.1698     0.0000  1040.0000 </r>
       <r>     4.3061     0.0132  1040.0018 </r>
       <r>     4.4423     4.6707  1040.6381 </r>
       <r>     4.5786     9.7541  1041.9670 </r>
       <r>     4.7148     0.2421  1042.0000 </r>
       <r>     4.8510     0.0000  1042.0000 </r>
       <r>     4.9873     0.0000  1042.0000 </r>
       <r>     5.1235     0.0000  1042.0000 </r>
       <r>     5.2597     0.0000  1042.0000 </r>
       <r>     5.3960     0.0000  1042.0000 </r>
       <r>     5.5322     0.0000  1042.0000 </r>
       <r>     5.6685     0.0000  1042.0000 </r>
       <r>     5.8047     0.0000  1042.0000 </r>
       <r>     5.9409     0.0000  1042.0000 </r>
       <r>     6.0772     0.0000  1042.0000 </r>
       <r>     6.2134     0.0000  1042.0000 </r>
       <r>     6.3497     0.0000  1042.0000 </r>
       <r>     6.4859     0.0000  1042.0000 </r>
       <r>     6.6221     0.0000  1042.0000 </r>
       <r>     6.7584     0.0000  1042.0000 </r>
       <r>     6.8946     0.5534  1042.0754 </r>
       <r>     7.0308     1.2808  1042.2499 </r>
       <r>     7.1671     0.0008  1042.2500 </r>
       <r>     7.3033     0.0000  1042.2500 </r>
       <r>     7.4396     0.0004  1042.2500 </r>
       <r>     7.5758     1.6037  1042.4685 </r>
       <r>     7.7120     2.0996  1042.7546 </r>
       <r>     7.8483     4.5677  1043.3769 </r>
       <r>     7.9845     2.7701  1043.7543 </r>
       <r>     8.1207     3.3042  1044.2044 </r>
       <r>     8.2570     4.0548  1044.7568 </r>
       <r>     8.3932     1.8152  1045.0041 </r>
       <r>     8.5295     4.8714  1045.6678 </r>
       <r>     8.6657     4.1052  1046.2271 </r>
       <r>     8.8019     4.9096  1046.8959 </r>
       <r>     8.9382     6.4520  1047.7749 </r>
       <r>     9.0744     6.0542  1048.5998 </r>
       <r>     9.2106     6.4636  1049.4803 </r>
       <r>     9.3469    15.6185  1051.6082 </r>
       <r>     9.4831     9.6800  1052.9270 </r>
       <r>     9.6194     8.1752  1054.0407 </r>
       <r>     9.7556    14.9949  1056.0836 </r>
       <r>     9.8918    10.2134  1057.4750 </r>
       <r>    10.0281    14.3036  1059.4237 </r>
       <r>    10.1643    12.8193  1061.1702 </r>
       <r>    10.3005    22.6351  1064.2540 </r>
       <r>    10.4368    19.3379  1066.8885 </r>
       <r>    10.5730    33.5713  1071.4622 </r>
       <r>    10.7093    41.9255  1077.1740 </r>
       <r>    10.8455    30.7417  1081.3622 </r>
       <r>    10.9817    30.6162  1085.5333 </r>
       <r>    11.1180    33.9316  1090.1560 </r>
       <r>    11.2542    32.0752  1094.5259 </r>
       <r>    11.3904    30.8168  1098.7243 </r>
       <r>    11.5267    34.8596  1103.4735 </r>
       <r>    11.6629    36.9638  1108.5093 </r>
       <r>    11.7992    31.1365  1112.7513 </r>
       <r>    11.9354    39.2116  1118.0934 </r>
       <r>    12.0716    29.5866  1122.1242 </r>
       <r>    12.2079    32.4432  1126.5442 </r>
       <r>    12.3441    38.1791  1131.7456 </r>
       <r>    12.4803    44.5860  1137.8199 </r>
       <r>    12.6166    38.4945  1143.0643 </r>
       <r>    12.7528    28.2264  1146.9098 </r>
       <r>    12.8891    26.7803  1150.5583 </r>
       <r>    13.0253    27.8994  1154.3592 </r>
       <r>    13.1615    30.7094  1158.5430 </r>
       <r>    13.2978    38.6643  1163.8105 </r>
       <r>    13.4340    30.5406  1167.9713 </r>
       <r>    13.5702    27.0962  1171.6628 </r>
       <r>    13.7065    30.1763  1175.7739 </r>
       <r>    13.8427    29.1329  1179.7429 </r>
       <r>    13.9790    23.3538  1182.9246 </r>
       <r>    14.1152    32.3924  1187.3377 </r>
       <r>    14.2514    30.4132  1191.4811 </r>
       <r>    14.3877    25.0542  1194.8944 </r>
       <r>    14.5239    25.3215  1198.3442 </r>
       <r>    14.6601    28.3318  1202.2040 </r>
       <r>    14.7964    25.2935  1205.6499 </r>
       <r>    14.9326    25.2904  1209.0955 </r>
       <r>    15.0689    19.9627  1211.8151 </r>
       <r>    15.2051    27.8594  1215.6106 </r>
       <r>    15.3413    21.5529  1218.5469 </r>
       <r>    15.4776    25.0712  1221.9626 </r>
       <r>    15.6138    24.5516  1225.3074 </r>
       <r>    15.7500    20.4801  1228.0976 </r>
       <r>    15.8863    22.9247  1231.2208 </r>
       <r>    16.0225    23.5284  1234.4262 </r>
       <r>    16.1588    14.7550  1236.4364 </r>
       <r>    16.2950    19.8244  1239.1372 </r>
       <r>    16.4312    16.2186  1241.3468 </r>
       <r>    16.5675    19.2917  1243.9751 </r>
       <r>    16.7037    13.0660  1245.7552 </r>
       <r>    16.8399     8.4437  1246.9055 </r>
       <r>    16.9762     7.5578  1247.9352 </r>
       <r>    17.1124     6.4385  1248.8123 </r>
       <r>    17.2487     1.8084  1249.0587 </r>
       <r>    17.3849     2.4001  1249.3857 </r>
       <r>    17.5211     2.7786  1249.7642 </r>
       <r>    17.6574     1.7176  1249.9982 </r>
       <r>    17.7936     0.0130  1250.0000 </r>
       <r>    17.9298     0.0000  1250.0000 </r>
       <r>    18.0661     0.0000  1250.0000 </r>
       <r>    18.2023     0.0000  1250.0000 </r>
       <r>    18.3386     0.0000  1250.0000 </r>
       <r>    18.4748     0.0000  1250.0000 </r>
       <r>    18.6110     0.0000  1250.0000 </r>
       <r>    18.7473     0.0000  1250.0000 </r>
       <r>    18.8835     0.0000  1250.0000 </r>
       <r>    19.0197     0.0000  1250.0000 </r>
       <r>    19.1560     0.0000  1250.0000 </r>
       <r>    19.2922     0.0000  1250.0000 </r>
       <r>    19.4285     0.0000  1250.0000 </r>
      </set>
     </set>
    </array>
   </total>
  </dos>
 </calculation>
 <structure name="finalpos" >
  <crystal>
   <varray name="basis" >
    <v>       0.00000000      12.28047342       0.00000000 </v>
    <v>       9.14270205       0.00000000       0.00000000 </v>
    <v>       0.00000000      -2.76826177     -11.30069772 </v>
   </varray>
   <i name="volume">   1268.80515525 </i>
   <varray name="rec_basis" >
    <v>       0.00000000       0.08143009      -0.01994742 </v>
    <v>       0.10937686      -0.00000000       0.00000000 </v>
    <v>       0.00000000       0.00000000      -0.08849011 </v>
   </varray>
  </crystal>
  <varray name="positions" >
   <v>       0.66321357       0.99340610       0.15245181 </v>
   <v>       0.65955000       0.99919605       0.65876011 </v>
   <v>       0.66321357       0.33992723       0.15245181 </v>
   <v>       0.65955000       0.33413729       0.65876011 </v>
   <v>       0.66006421       0.66666667       0.15587495 </v>
   <v>       0.66087404       0.66666667       0.65533275 </v>
   <v>       0.84187901       0.16666667       0.84601587 </v>
   <v>       0.84555697       0.50093069       0.33532998 </v>
   <v>       0.84266196       0.49988791       0.84377652 </v>
   <v>       0.84555697       0.83240264       0.33532998 </v>
   <v>       0.84266196       0.83344543       0.84377652 </v>
   <v>       0.59001836       0.16666667       0.40282926 </v>
   <v>       0.59198837       0.16666667       0.89999951 </v>
   <v>       0.59270907       0.50035921       0.39743955 </v>
   <v>       0.58930135       0.50130392       0.89411166 </v>
   <v>       0.59270907       0.83297412       0.39743955 </v>
   <v>       0.58930135       0.83202941       0.89411166 </v>
   <v>       0.91220035       0.99874422       0.10364042 </v>
   <v>       0.91133059       0.00102406       0.60733915 </v>
   <v>       0.91220035       0.33458911       0.10364042 </v>
   <v>       0.91133059       0.33230927       0.60733915 </v>
   <v>       0.91223911       0.66666667       0.09961718 </v>
   <v>       0.90841506       0.66666667       0.60011346 </v>
   <v>       0.16225995       0.16666667       0.15856615 </v>
   <v>       0.16309913       0.16666667       0.65614853 </v>
   <v>       0.16163751       0.49954771       0.15836430 </v>
   <v>       0.15935447       0.49896695       0.65351962 </v>
   <v>       0.16163751       0.83378562       0.15836430 </v>
   <v>       0.15935447       0.83436638       0.65351962 </v>
   <v>       0.34108936       0.99944974       0.34385220 </v>
   <v>       0.34151516       0.99991600       0.84392570 </v>
   <v>       0.34108936       0.33388359       0.34385220 </v>
   <v>       0.34151516       0.33341734       0.84392570 </v>
   <v>       0.34213929       0.66666667       0.34411142 </v>
   <v>       0.33968096       0.66666667       0.84294240 </v>
   <v>       0.08721438       0.03119665       0.39582290 </v>
   <v>       0.09254864       0.00007140       0.89825922 </v>
   <v>       0.08721438       0.30213668       0.39582290 </v>
   <v>       0.09254864       0.33326194       0.89825922 </v>
   <v>       0.08743528       0.66666667       0.39554640 </v>
   <v>       0.09273250       0.66666667       0.89832225 </v>
   <v>       0.41295216       0.16666667       0.10396344 </v>
   <v>       0.41062371       0.16666667       0.60350137 </v>
   <v>       0.41185419       0.49923469       0.10349854 </v>
   <v>       0.40991758       0.50057387       0.60295293 </v>
   <v>       0.41185419       0.83409865       0.10349854 </v>
   <v>       0.40991758       0.83275946       0.60295293 </v>
   <v>       0.99774679       0.16666667       0.13760204 </v>
   <v>       0.99827549       0.16666667       0.62276403 </v>
   <v>       0.99963215       0.50102925       0.12531981 </v>
   <v>       0.99501257       0.49927661       0.62469466 </v>
   <v>       0.99963215       0.83230409       0.12531981 </v>
   <v>       0.99501257       0.83405672       0.62469466 </v>
   <v>       0.50553325       0.99991609       0.37202630 </v>
   <v>       0.50458761       0.00045929       0.87367445 </v>
   <v>       0.50553325       0.33341724       0.37202630 </v>
   <v>       0.50458761       0.33287404       0.87367445 </v>
   <v>       0.50556897       0.66666667       0.37321391 </v>
   <v>       0.50162285       0.66666667       0.86838905 </v>
   <v>       0.69125301       0.16666667       0.29846643 </v>
   <v>       0.67399468       0.16666667       0.78364100 </v>
   <v>       0.67558340       0.50092321       0.28170273 </v>
   <v>       0.67395078       0.50015197       0.78000216 </v>
   <v>       0.67558340       0.83241012       0.28170273 </v>
   <v>       0.67395078       0.83318136       0.78000216 </v>
   <v>       0.82407134       0.98104011       0.21095237 </v>
   <v>       0.82812081       0.00093956       0.72089423 </v>
   <v>       0.82407134       0.35229323       0.21095237 </v>
   <v>       0.82812081       0.33239377       0.72089423 </v>
   <v>       0.83014428       0.66666667       0.21602386 </v>
   <v>       0.82851175       0.66666667       0.71839289 </v>
   <v>       0.82648019       0.01693656       0.44889008 </v>
   <v>       0.83458369       0.99989590       0.94693956 </v>
   <v>       0.82648019       0.31639677       0.44889008 </v>
   <v>       0.83458369       0.33343743       0.94693956 </v>
   <v>       0.83750311       0.66666667       0.44148731 </v>
   <v>       0.83312026       0.66666667       0.94430125 </v>
   <v>       0.66840242       0.16666667       0.05824493 </v>
   <v>       0.66740092       0.16666667       0.55823143 </v>
   <v>       0.66513173       0.50447031       0.05000657 </v>
   <v>       0.67112488       0.49901778       0.55389486 </v>
   <v>       0.66513173       0.82886302       0.05000657 </v>
   <v>       0.67112488       0.83431555       0.55389486 </v>
   <v>       0.50191653       0.00050262       0.13111043 </v>
   <v>       0.49764149       0.99935834       0.62853847 </v>
   <v>       0.50191653       0.33283072       0.13111043 </v>
   <v>       0.49764149       0.33397500       0.62853847 </v>
   <v>       0.49821932       0.66666667       0.12836278 </v>
   <v>       0.49866121       0.66666667       0.62706480 </v>
   <v>       0.00421700       0.16666667       0.87222737 </v>
   <v>       0.00639894       0.48741856       0.37466479 </v>
   <v>       0.00473898       0.49999153       0.87118102 </v>
   <v>       0.00639894       0.84591478       0.37466479 </v>
   <v>       0.00473898       0.83334180       0.87118102 </v>
   <v>       0.17507225       0.99890453       0.27961065 </v>
   <v>       0.17363170       0.00039468       0.78101917 </v>
   <v>       0.17507225       0.33442880       0.27961065 </v>
   <v>       0.17363170       0.33293865       0.78101917 </v>
   <v>       0.17304752       0.66666667       0.28136279 </v>
   <v>       0.17247054       0.66666667       0.77935407 </v>
   <v>       0.33114916       0.16666667       0.22009209 </v>
   <v>       0.33024942       0.16666667       0.72131374 </v>
   <v>       0.33021702       0.50056226       0.22008038 </v>
   <v>       0.32797323       0.50018808       0.71950792 </v>
   <v>       0.33021702       0.83277108       0.22008038 </v>
   <v>       0.32797323       0.83314526       0.71950792 </v>
   <v>       0.33609632       0.16666667       0.44658815 </v>
   <v>       0.33558376       0.16666667       0.94759254 </v>
   <v>       0.33546562       0.50046277       0.44634693 </v>
   <v>       0.33461195       0.49954093       0.94691367 </v>
   <v>       0.33546562       0.83287057       0.44634693 </v>
   <v>       0.33461195       0.83379240       0.94691367 </v>
   <v>       0.16871185       0.00091429       0.05424312 </v>
   <v>       0.16881161       0.99996261       0.55456553 </v>
   <v>       0.16871185       0.33241904       0.05424312 </v>
   <v>       0.16881161       0.33337073       0.55456553 </v>
   <v>       0.17027638       0.66666667       0.05456315 </v>
   <v>       0.16485107       0.66666667       0.55249993 </v>
   <v>       0.83275343       0.16666667       0.36305175 </v>
  </varray>
 </structure>
</modeling>
