       N       E                     dE             d eps       ncg     rms          rms(c)
DAV:   1     0.218672464994E+05    0.21867E+05   -0.31807E+05 10016   0.281E+03
DAV:   2     0.485823365049E+04   -0.17009E+05   -0.16029E+05 10016   0.815E+02
DAV:   3    -0.139459588620E+03   -0.49977E+04   -0.47115E+04 12872   0.321E+02
DAV:   4    -0.764299375680E+03   -0.62484E+03   -0.61089E+03 12392   0.121E+02
DAV:   5    -0.806284064736E+03   -0.41985E+02   -0.41646E+02 14184   0.341E+01    0.605E+01
RMM:   6    -0.698526400848E+03    0.10776E+03   -0.37658E+02 13190   0.236E+01    0.207E+01
RMM:   7    -0.702523151860E+03   -0.39968E+01   -0.72159E+01 13770   0.101E+01    0.178E+01
RMM:   8    -0.700540656519E+03    0.19825E+01   -0.11398E+01 15127   0.458E+00    0.142E+01
RMM:   9    -0.698695206286E+03    0.18455E+01   -0.41201E+00 15045   0.213E+00    0.932E+00
RMM:  10    -0.699783250125E+03   -0.10880E+01   -0.60095E+00 11976   0.336E+00    0.961E+00
RMM:  11    -0.698791032398E+03    0.99222E+00   -0.82392E-01 13545   0.134E+00    0.106E+01
RMM:  12    -0.698759429275E+03    0.31603E-01   -0.82156E-01 13858   0.842E-01    0.848E+00
RMM:  13    -0.698390715625E+03    0.36871E+00   -0.19163E-01 13929   0.505E-01    0.407E+00
RMM:  14    -0.698392984213E+03   -0.22686E-02   -0.35895E-02 15411   0.236E-01    0.390E+00
RMM:  15    -0.698332800780E+03    0.60183E-01   -0.12456E-02 13054   0.136E-01    0.372E+00
RMM:  16    -0.698494554063E+03   -0.16175E+00   -0.12975E-01 13947   0.302E-01    0.838E+00
RMM:  17    -0.698380727352E+03    0.11383E+00   -0.22299E-02 14362   0.228E-01    0.722E+00
RMM:  18    -0.698214261765E+03    0.16647E+00   -0.35755E-02 14041   0.190E-01    0.125E+00
RMM:  19    -0.698249519344E+03   -0.35258E-01   -0.18184E-02 13905   0.180E-01    0.111E+00
RMM:  20    -0.698258129767E+03   -0.86104E-02   -0.10378E-02 14420   0.114E-01    0.228E+00
RMM:  21    -0.698241926280E+03    0.16203E-01   -0.41379E-03 13499   0.832E-02    0.615E-01
RMM:  22    -0.698246171122E+03   -0.42448E-02   -0.20811E-03 12416   0.568E-02    0.869E-01
RMM:  23    -0.698245417871E+03    0.75325E-03   -0.51189E-04 11545   0.329E-02    0.802E-01
RMM:  24    -0.698243997963E+03    0.14199E-02   -0.22809E-04 10761   0.194E-02    0.402E-01
RMM:  25    -0.698244067866E+03   -0.69902E-04   -0.22154E-04 11344   0.193E-02    0.136E-01
RMM:  26    -0.698244475250E+03   -0.40738E-03   -0.16798E-04 10711   0.167E-02    0.265E-01
RMM:  27    -0.698244585181E+03   -0.10993E-03   -0.64920E-05  8618   0.130E-02    0.306E-01
RMM:  28    -0.698244203668E+03    0.38151E-03   -0.82726E-05  9707   0.117E-02    0.661E-02
RMM:  29    -0.698244247819E+03   -0.44151E-04   -0.38415E-05  8494   0.942E-03    0.366E-02
RMM:  30    -0.698244249781E+03   -0.19619E-05   -0.17740E-05  6423   0.638E-03
   1 F= -.69824425E+03 E0= -.69822643E+03  d E =-.698244E+03
       N       E                     dE             d eps       ncg     rms          rms(c)
DAV:   1    -0.696603041505E+03    0.16412E+01   -0.31385E+02 11720   0.251E+01    0.265E+00
RMM:   2    -0.698473371782E+03   -0.18703E+01   -0.18341E+01 13706   0.914E+00    0.802E+00
RMM:   3    -0.698857640968E+03   -0.38427E+00   -0.52149E+00 14356   0.347E+00    0.605E+00
RMM:   4    -0.698890138612E+03   -0.32498E-01   -0.86865E-01 15595   0.129E+00    0.401E+00
RMM:   5    -0.698762969615E+03    0.12717E+00   -0.10978E-01 15507   0.517E-01    0.153E+00
RMM:   6    -0.698708986382E+03    0.53983E-01   -0.62888E-02 13348   0.342E-01    0.937E-01
RMM:   7    -0.698668613545E+03    0.40373E-01   -0.15379E-01 13315   0.544E-01    0.979E-01
RMM:   8    -0.698666891615E+03    0.17219E-02   -0.23191E-02 14749   0.212E-01    0.436E-01
RMM:   9    -0.698665883763E+03    0.10079E-02   -0.53759E-03 14879   0.984E-02    0.193E-01
RMM:  10    -0.698665928667E+03   -0.44904E-04   -0.19073E-03 13366   0.687E-02    0.196E-01
RMM:  11    -0.698665869536E+03    0.59131E-04   -0.64958E-04 13323   0.350E-02    0.492E-02
RMM:  12    -0.698665884181E+03   -0.14644E-04   -0.16888E-04 12010   0.183E-02    0.163E-02
RMM:  13    -0.698665891856E+03   -0.76753E-05   -0.54439E-05  9668   0.115E-02
   2 F= -.69866589E+03 E0= -.69864595E+03  d E =-.421642E+00
       N       E                     dE             d eps       ncg     rms          rms(c)
DAV:   1    -0.698614119236E+03    0.51765E-01   -0.30097E+01 11472   0.812E+00    0.968E-01
RMM:   2    -0.698777960855E+03   -0.16384E+00   -0.14776E+00 14191   0.257E+00    0.246E+00
RMM:   3    -0.698795154629E+03   -0.17194E-01   -0.36184E-01 14138   0.914E-01    0.262E+00
RMM:   4    -0.698786676881E+03    0.84777E-02   -0.50181E-02 15616   0.346E-01    0.170E+00
RMM:   5    -0.698777126643E+03    0.95502E-02   -0.80946E-03 14692   0.149E-01    0.340E-01
RMM:   6    -0.698774689682E+03    0.24370E-02   -0.30545E-03 14268   0.752E-02    0.285E-01
RMM:   7    -0.698771002204E+03    0.36875E-02   -0.12614E-02 13314   0.120E-01    0.134E-01
RMM:   8    -0.698771057838E+03   -0.55634E-04   -0.14609E-03 15145   0.525E-02    0.786E-02
RMM:   9    -0.698771043387E+03    0.14450E-04   -0.27358E-04 11225   0.204E-02    0.222E-02
RMM:  10    -0.698771056039E+03   -0.12651E-04   -0.93258E-05 10542   0.132E-02    0.196E-02
RMM:  11    -0.698771056529E+03   -0.49029E-06   -0.31190E-05  9450   0.769E-03
   3 F= -.69877106E+03 E0= -.69875253E+03  d E =-.526807E+00
       N       E                     dE             d eps       ncg     rms          rms(c)
DAV:   1    -0.698618797488E+03    0.15226E+00   -0.59574E+01 10808   0.113E+01    0.193E+00
RMM:   2    -0.699132775426E+03   -0.51398E+00   -0.25425E+00 13795   0.325E+00    0.631E+00
RMM:   3    -0.698936522353E+03    0.19625E+00   -0.59880E-01 14953   0.125E+00    0.478E+00
RMM:   4    -0.698884918176E+03    0.51604E-01   -0.89492E-02 15607   0.470E-01    0.108E+00
RMM:   5    -0.698890446089E+03   -0.55279E-02   -0.14524E-02 14904   0.198E-01    0.929E-01
RMM:   6    -0.698884951833E+03    0.54943E-02   -0.70558E-03 14587   0.105E-01    0.323E-01
RMM:   7    -0.698883060979E+03    0.18909E-02   -0.91340E-03 12783   0.111E-01    0.276E-01
RMM:   8    -0.698882986578E+03    0.74401E-04   -0.12650E-03 15080   0.523E-02    0.104E-01
RMM:   9    -0.698882971124E+03    0.15454E-04   -0.30255E-04 11182   0.210E-02    0.597E-02
RMM:  10    -0.698882973997E+03   -0.28730E-05   -0.92586E-05 10387   0.133E-02
   4 F= -.69888297E+03 E0= -.69886507E+03  d E =-.111917E+00
       N       E                     dE             d eps       ncg     rms          rms(c)
DAV:   1    -0.698882496798E+03    0.47433E-03   -0.22375E-01 10984   0.689E-01    0.132E-01
RMM:   2    -0.698885258846E+03   -0.27620E-02   -0.95713E-03 13651   0.194E-01    0.616E-01
RMM:   3    -0.698883311431E+03    0.19474E-02   -0.20398E-03 14646   0.748E-02    0.186E-01
RMM:   4    -0.698883476234E+03   -0.16480E-03   -0.34079E-04 13133   0.300E-02    0.146E-01
RMM:   5    -0.698883411024E+03    0.65211E-04   -0.65448E-05 10292   0.162E-02    0.285E-02
RMM:   6    -0.698883403940E+03    0.70834E-05   -0.26001E-05  7849   0.798E-03
   5 F= -.69888340E+03 E0= -.69886543E+03  d E =-.112347E+00
       N       E                     dE             d eps       ncg     rms          rms(c)
DAV:   1    -0.698829062328E+03    0.54349E-01   -0.27058E+01 10600   0.752E+00    0.124E+00
RMM:   2    -0.699064883974E+03   -0.23582E+00   -0.10398E+00 13477   0.204E+00    0.678E+00
RMM:   3    -0.698935557218E+03    0.12933E+00   -0.21589E-01 14971   0.788E-01    0.289E+00
RMM:   4    -0.698944633755E+03   -0.90765E-02   -0.38960E-02 15393   0.313E-01    0.160E+00
RMM:   5    -0.698936205919E+03    0.84278E-02   -0.66420E-03 14787   0.137E-01    0.421E-01
RMM:   6    -0.698934604448E+03    0.16015E-02   -0.31366E-03 14425   0.691E-02    0.232E-01
RMM:   7    -0.698933850336E+03    0.75411E-03   -0.42513E-03 12858   0.717E-02    0.140E-01
RMM:   8    -0.698933812888E+03    0.37448E-04   -0.51421E-04 13849   0.328E-02    0.905E-02
RMM:   9    -0.698933775865E+03    0.37023E-04   -0.18355E-04 10547   0.168E-02    0.329E-02
RMM:  10    -0.698933777311E+03   -0.14464E-05   -0.51204E-05  9224   0.989E-03
   6 F= -.69893378E+03 E0= -.69891642E+03  d E =-.503734E-01
       N       E                     dE             d eps       ncg     rms          rms(c)
DAV:   1    -0.698932485875E+03    0.12900E-02   -0.59142E-01 11640   0.111E+00    0.187E-01
RMM:   2    -0.698937426785E+03   -0.49409E-02   -0.22368E-02 13390   0.297E-01    0.877E-01
RMM:   3    -0.698934565365E+03    0.28614E-02   -0.48228E-03 14958   0.116E-01    0.284E-01
RMM:   4    -0.698935091471E+03   -0.52611E-03   -0.78442E-04 14152   0.447E-02    0.307E-01
RMM:   5    -0.698934740976E+03    0.35050E-03   -0.14886E-04 11760   0.230E-02    0.481E-02
RMM:   6    -0.698934735132E+03    0.58438E-05   -0.10396E-04 10247   0.137E-02    0.250E-02
RMM:   7    -0.698934727028E+03    0.81037E-05   -0.71483E-05  9791   0.116E-02
   7 F= -.69893473E+03 E0= -.69891742E+03  d E =-.513231E-01
       N       E                     dE             d eps       ncg     rms          rms(c)
DAV:   1    -0.698891167613E+03    0.43568E-01   -0.17638E+01 10536   0.598E+00    0.880E-01
RMM:   2    -0.699002989074E+03   -0.11182E+00   -0.64341E-01 13295   0.158E+00    0.374E+00
RMM:   3    -0.698956366106E+03    0.46623E-01   -0.13607E-01 15128   0.610E-01    0.818E-01
RMM:   4    -0.698961956868E+03   -0.55908E-02   -0.16439E-02 15296   0.216E-01    0.615E-01
RMM:   5    -0.698961749564E+03    0.20730E-03   -0.31963E-03 15311   0.807E-02    0.507E-01
RMM:   6    -0.698960057910E+03    0.16917E-02   -0.17302E-03 13102   0.539E-02    0.131E-01
RMM:   7    -0.698959914242E+03    0.14367E-03   -0.18204E-03 12632   0.495E-02    0.135E-01
RMM:   8    -0.698959835146E+03    0.79096E-04   -0.21964E-04 12189   0.230E-02    0.639E-02
RMM:   9    -0.698959828075E+03    0.70706E-05   -0.65672E-05  9830   0.112E-02
   8 F= -.69895983E+03 E0= -.69894312E+03  d E =-.251010E-01
       N       E                     dE             d eps       ncg     rms          rms(c)
DAV:   1    -0.698959291773E+03    0.54337E-03   -0.21780E-01 11560   0.666E-01    0.957E-02
RMM:   2    -0.698960674949E+03   -0.13832E-02   -0.78909E-03 13226   0.175E-01    0.475E-01
RMM:   3    -0.698960095790E+03    0.57916E-03   -0.17015E-03 15016   0.683E-02    0.155E-01
RMM:   4    -0.698960272126E+03   -0.17634E-03   -0.27558E-04 12648   0.265E-02    0.159E-01
RMM:   5    -0.698960141211E+03    0.13092E-03   -0.59961E-05  9960   0.153E-02    0.295E-02
RMM:   6    -0.698960141080E+03    0.13113E-06   -0.36115E-05  9030   0.848E-03
   9 F= -.69896014E+03 E0= -.69894354E+03  d E =-.254141E-01
       N       E                     dE             d eps       ncg     rms          rms(c)
DAV:   1    -0.698939238926E+03    0.20902E-01   -0.86530E+00 10632   0.428E+00    0.498E-01
RMM:   2    -0.698970192037E+03   -0.30953E-01   -0.29778E-01 13179   0.112E+00    0.944E-01
RMM:   3    -0.698976802547E+03   -0.66105E-02   -0.67733E-02 15104   0.435E-01    0.106E+00
RMM:   4    -0.698979447853E+03   -0.26453E-02   -0.10091E-02 15265   0.155E-01    0.120E+00
RMM:   5    -0.698973427787E+03    0.60201E-02   -0.21138E-03 14758   0.713E-02    0.190E-01
RMM:   6    -0.698973571176E+03   -0.14339E-03   -0.16230E-03 12729   0.504E-02    0.103E-01
RMM:   7    -0.698973601192E+03   -0.30016E-04   -0.53875E-04 12716   0.310E-02    0.599E-02
RMM:   8    -0.698973581694E+03    0.19498E-04   -0.69142E-05  9984   0.148E-02    0.248E-02
RMM:   9    -0.698973577872E+03    0.38229E-05   -0.27984E-05  8289   0.751E-03
  10 F= -.69897358E+03 E0= -.69895726E+03  d E =-.134368E-01
       N       E                     dE             d eps       ncg     rms          rms(c)
DAV:   1    -0.698971441312E+03    0.21404E-02   -0.77314E-01 11264   0.128E+00    0.148E-01
RMM:   2    -0.698974184214E+03   -0.27429E-02   -0.26558E-02 13154   0.335E-01    0.261E-01
RMM:   3    -0.698974838751E+03   -0.65454E-03   -0.61754E-03 15100   0.131E-01    0.337E-01
RMM:   4    -0.698974972667E+03   -0.13392E-03   -0.89669E-04 14721   0.466E-02    0.345E-01
RMM:   5    -0.698974506841E+03    0.46583E-03   -0.19119E-04 11813   0.229E-02    0.509E-02
RMM:   6    -0.698974518649E+03   -0.11808E-04   -0.13819E-04 10552   0.159E-02    0.205E-02
RMM:   7    -0.698974522181E+03   -0.35321E-05   -0.55705E-05  9559   0.113E-02
  11 F= -.69897452E+03 E0= -.69895828E+03  d E =-.143811E-01
       N       E                     dE             d eps       ncg     rms          rms(c)
DAV:   1    -0.698958773627E+03    0.15745E-01   -0.59984E+00 10472   0.355E+00    0.410E-01
RMM:   2    -0.698978938428E+03   -0.20165E-01   -0.19833E-01 12914   0.914E-01    0.643E-01
RMM:   3    -0.698984126194E+03   -0.51878E-02   -0.48985E-02 15169   0.366E-01    0.793E-01
RMM:   4    -0.698985708405E+03   -0.15822E-02   -0.65486E-03 15176   0.126E-01    0.998E-01
RMM:   5    -0.698981883126E+03    0.38253E-02   -0.14997E-03 14686   0.578E-02    0.174E-01
RMM:   6    -0.698982021688E+03   -0.13856E-03   -0.80741E-04 12686   0.364E-02    0.743E-02
RMM:   7    -0.698981991655E+03    0.30033E-04   -0.68863E-04 12500   0.326E-02    0.659E-02
RMM:   8    -0.698981964989E+03    0.26666E-04   -0.76596E-05  9939   0.150E-02    0.212E-02
RMM:   9    -0.698981961730E+03    0.32585E-05   -0.27500E-05  8071   0.841E-03
  12 F= -.69898196E+03 E0= -.69896558E+03  d E =-.743955E-02
       N       E                     dE             d eps       ncg     rms          rms(c)
DAV:   1    -0.698981486674E+03    0.47832E-03   -0.18786E-01 11488   0.629E-01    0.709E-02
RMM:   2    -0.698982108176E+03   -0.62150E-03   -0.62158E-03 12860   0.161E-01    0.942E-02
RMM:   3    -0.698982292931E+03   -0.18476E-03   -0.15375E-03 15079   0.646E-02    0.153E-01
RMM:   4    -0.698982301045E+03   -0.81138E-05   -0.19770E-04 12545   0.224E-02    0.161E-01
RMM:   5    -0.698982212783E+03    0.88262E-04   -0.50961E-05  9189   0.136E-02    0.286E-02
RMM:   6    -0.698982214165E+03   -0.13825E-05   -0.30813E-05  8577   0.813E-03
  13 F= -.69898221E+03 E0= -.69896580E+03  d E =-.769198E-02
       N       E                     dE             d eps       ncg     rms          rms(c)
DAV:   1    -0.698973209997E+03    0.90028E-02   -0.34503E+00 10524   0.271E+00    0.299E-01
RMM:   2    -0.698983951352E+03   -0.10741E-01   -0.11144E-01 12906   0.692E-01    0.215E-01
RMM:   3    -0.698988386082E+03   -0.44347E-02   -0.27567E-02 15071   0.278E-01    0.672E-01
RMM:   4    -0.698986932618E+03    0.14535E-02   -0.34113E-03 15141   0.953E-02    0.424E-01
RMM:   5    -0.698986548982E+03    0.38364E-03   -0.67011E-04 14589   0.390E-02    0.111E-01
RMM:   6    -0.698986508978E+03    0.40004E-04   -0.21230E-04 11499   0.205E-02    0.673E-02
RMM:   7    -0.698986441222E+03    0.67756E-04   -0.61159E-04 13067   0.302E-02    0.401E-02
RMM:   8    -0.698986427597E+03    0.13625E-04   -0.51828E-05 10048   0.120E-02    0.213E-02
RMM:   9    -0.698986420991E+03    0.66058E-05   -0.18481E-05  7497   0.700E-03
  14 F= -.69898642E+03 E0= -.69896989E+03  d E =-.420683E-02
       N       E                     dE             d eps       ncg     rms          rms(c)
DAV:   1    -0.698985733936E+03    0.69366E-03   -0.24417E-01 11240   0.722E-01    0.785E-02
RMM:   2    -0.698986504689E+03   -0.77075E-03   -0.79458E-03 12903   0.184E-01    0.629E-02
RMM:   3    -0.698986796560E+03   -0.29187E-03   -0.19530E-03 15001   0.739E-02    0.163E-01
RMM:   4    -0.698986672904E+03    0.12366E-03   -0.22547E-04 12787   0.256E-02    0.313E-02
RMM:   5    -0.698986690049E+03   -0.17144E-04   -0.49948E-05  9281   0.136E-02    0.530E-02
RMM:   6    -0.698986676191E+03    0.13857E-04   -0.18706E-05  7318   0.723E-03    0.191E-02
RMM:   7    -0.698986674971E+03    0.12204E-05   -0.40999E-05  8447   0.838E-03
  15 F= -.69898667E+03 E0= -.69897013E+03  d E =-.446081E-02
       N       E                     dE             d eps       ncg     rms          rms(c)
DAV:   1    -0.698981678910E+03    0.49973E-02   -0.18969E+00 10552   0.201E+00    0.265E-01
RMM:   2    -0.698991498027E+03   -0.98191E-02   -0.61553E-02 12965   0.511E-01    0.106E+00
RMM:   3    -0.698989069405E+03    0.24286E-02   -0.15696E-02 15109   0.209E-01    0.538E-01
RMM:   4    -0.698989389708E+03   -0.32030E-03   -0.22856E-03 14992   0.769E-02    0.370E-01
RMM:   5    -0.698988790421E+03    0.59929E-03   -0.37706E-04 13399   0.330E-02    0.662E-02
RMM:   6    -0.698988736680E+03    0.53742E-04   -0.34178E-04 11431   0.236E-02    0.250E-02
RMM:   7    -0.698988738102E+03   -0.14225E-05   -0.94653E-05 10283   0.140E-02
  16 F= -.69898874E+03 E0= -.69897201E+03  d E =-.206313E-02
       N       E                     dE             d eps       ncg     rms          rms(c)
DAV:   1    -0.698988477498E+03    0.25918E-03   -0.88609E-02 11464   0.434E-01    0.613E-02
RMM:   2    -0.698988973402E+03   -0.49590E-03   -0.29483E-03 12931   0.109E-01    0.251E-01
RMM:   3    -0.698988813770E+03    0.15963E-03   -0.72463E-04 14830   0.450E-02    0.114E-01
RMM:   4    -0.698988856644E+03   -0.42874E-04   -0.11753E-04 11297   0.174E-02    0.105E-01
RMM:   5    -0.698988811089E+03    0.45555E-04   -0.24648E-05  7824   0.102E-02    0.149E-02
RMM:   6    -0.698988811579E+03   -0.49006E-06   -0.20154E-05  7655   0.678E-03
  17 F= -.69898881E+03 E0= -.69897203E+03  d E =-.213661E-02
       N       E                     dE             d eps       ncg     rms          rms(c)
DAV:   1    -0.698985742764E+03    0.30683E-02   -0.10466E+00 10660   0.150E+00    0.186E-01
RMM:   2    -0.698991155113E+03   -0.54123E-02   -0.34794E-02 13004   0.386E-01    0.893E-01
RMM:   3    -0.698989574402E+03    0.15807E-02   -0.86369E-03 15080   0.156E-01    0.271E-01
RMM:   4    -0.698990311436E+03   -0.73703E-03   -0.12760E-03 14968   0.578E-02    0.324E-01
RMM:   5    -0.698989785491E+03    0.52595E-03   -0.24504E-04 12552   0.252E-02    0.561E-02
RMM:   6    -0.698989783879E+03    0.16119E-05   -0.17258E-04 10831   0.174E-02    0.212E-02
RMM:   7    -0.698989784025E+03   -0.14567E-06   -0.67080E-05  9726   0.122E-02
  18 F= -.69898978E+03 E0= -.69897286E+03  d E =-.972446E-03
       N       E                     dE             d eps       ncg     rms          rms(c)
DAV:   1    -0.698989773853E+03    0.10026E-04   -0.22224E-03 11864   0.702E-02    0.141E-02
RMM:   2    -0.698989794418E+03   -0.20565E-04   -0.10350E-04 10888   0.210E-02    0.633E-02
RMM:   3    -0.698989783086E+03    0.11332E-04   -0.26925E-05  6786   0.105E-02    0.210E-02
RMM:   4    -0.698989787440E+03   -0.43544E-05   -0.84657E-06  5956   0.701E-03
  19 F= -.69898979E+03 E0= -.69897285E+03  d E =-.975861E-03
       N       E                     dE             d eps       ncg     rms          rms(c)
DAV:   1    -0.698987930704E+03    0.18524E-02   -0.66247E-01 10680   0.119E+00    0.141E-01
RMM:   2    -0.698990988741E+03   -0.30580E-02   -0.20718E-02 12880   0.303E-01    0.613E-01
RMM:   3    -0.698990246183E+03    0.74256E-03   -0.54587E-03 15003   0.125E-01    0.155E-01
RMM:   4    -0.698990610119E+03   -0.36394E-03   -0.70767E-04 14679   0.443E-02    0.212E-01
RMM:   5    -0.698990394246E+03    0.21587E-03   -0.13203E-04 11662   0.194E-02    0.394E-02
RMM:   6    -0.698990384994E+03    0.92523E-05   -0.12812E-04 10561   0.153E-02    0.133E-02
RMM:   7    -0.698990386902E+03   -0.19085E-05   -0.27569E-05  7903   0.878E-03
  20 F= -.69899039E+03 E0= -.69897334E+03  d E =-.599462E-03
       N       E                     dE             d eps       ncg     rms          rms(c)
DAV:   1    -0.698990210539E+03    0.17445E-03   -0.54456E-02 11448   0.341E-01    0.423E-02
RMM:   2    -0.698990459815E+03   -0.24928E-03   -0.17636E-03 12888   0.875E-02    0.171E-01
RMM:   3    -0.698990408178E+03    0.51637E-04   -0.44434E-04 14130   0.359E-02    0.518E-02
RMM:   4    -0.698990439882E+03   -0.31704E-04   -0.69038E-05 10044   0.152E-02    0.652E-02
RMM:   5    -0.698990418871E+03    0.21011E-04   -0.18045E-05  6573   0.853E-03    0.111E-02
RMM:   6    -0.698990418905E+03   -0.34146E-07   -0.11347E-05  6149   0.564E-03
  21 F= -.69899042E+03 E0= -.69897334E+03  d E =-.631465E-03
       N       E                     dE             d eps       ncg     rms          rms(c)
DAV:   1    -0.698989146434E+03    0.12724E-02   -0.49611E-01 10928   0.103E+00    0.123E-01
RMM:   2    -0.698991515160E+03   -0.23687E-02   -0.15035E-02 12678   0.260E-01    0.576E-01
RMM:   3    -0.698990827870E+03    0.68729E-03   -0.41999E-03 15022   0.110E-01    0.154E-01
RMM:   4    -0.698991218055E+03   -0.39019E-03   -0.61416E-04 14338   0.400E-02    0.231E-01
RMM:   5    -0.698990955106E+03    0.26295E-03   -0.11699E-04 11067   0.190E-02    0.356E-02
RMM:   6    -0.698990960214E+03   -0.51073E-05   -0.99156E-05 10135   0.138E-02
  22 F= -.69899096E+03 E0= -.69897384E+03  d E =-.541309E-03
       N       E                     dE             d eps       ncg     rms          rms(c)
DAV:   1    -0.698989959666E+03    0.99544E-03   -0.30489E-01 11104   0.807E-01    0.984E-02
RMM:   2    -0.698991444606E+03   -0.14849E-02   -0.92104E-03 12715   0.200E-01    0.467E-01
RMM:   3    -0.698990970685E+03    0.47392E-03   -0.24640E-03 14991   0.836E-02    0.120E-01
RMM:   4    -0.698991220777E+03   -0.25009E-03   -0.37527E-04 13193   0.311E-02    0.180E-01
RMM:   5    -0.698991057005E+03    0.16377E-03   -0.76042E-05 10277   0.163E-02    0.273E-02
RMM:   6    -0.698991062005E+03   -0.49998E-05   -0.61028E-05  9665   0.108E-02
  23 F= -.69899106E+03 E0= -.69897389E+03  d E =-.643100E-03
       N       E                     dE             d eps       ncg     rms          rms(c)
DAV:   1    -0.698989974701E+03    0.10823E-02   -0.40602E-01 10904   0.928E-01    0.120E-01
RMM:   2    -0.698992073515E+03   -0.20988E-02   -0.12296E-02 12610   0.229E-01    0.581E-01
RMM:   3    -0.698991358352E+03    0.71516E-03   -0.33785E-03 15012   0.972E-02    0.195E-01
RMM:   4    -0.698991613446E+03   -0.25509E-03   -0.50292E-04 13462   0.363E-02    0.191E-01
RMM:   5    -0.698991433292E+03    0.18015E-03   -0.98833E-05 11033   0.187E-02    0.307E-02
RMM:   6    -0.698991433978E+03   -0.68620E-06   -0.65748E-05  9751   0.113E-02
  24 F= -.69899143E+03 E0= -.69897422E+03  d E =-.371973E-03
       N       E                     dE             d eps       ncg     rms          rms(c)
DAV:   1    -0.698991016919E+03    0.41637E-03   -0.12994E-01 11208   0.525E-01    0.678E-02
RMM:   2    -0.698991626286E+03   -0.60937E-03   -0.39144E-03 12650   0.128E-01    0.288E-01
RMM:   3    -0.698991471070E+03    0.15522E-03   -0.10254E-03 14892   0.536E-02    0.117E-01
RMM:   4    -0.698991543667E+03   -0.72597E-04   -0.16564E-04 12051   0.206E-02    0.117E-01
RMM:   5    -0.698991477519E+03    0.66148E-04   -0.36280E-05  8639   0.117E-02    0.167E-02
RMM:   6    -0.698991479560E+03   -0.20411E-05   -0.22042E-05  7860   0.686E-03
  25 F= -.69899148E+03 E0= -.69897426E+03  d E =-.417555E-03
       N       E                     dE             d eps       ncg     rms          rms(c)
DAV:   1    -0.698990382284E+03    0.10952E-02   -0.36318E-01 10824   0.887E-01    0.104E-01
RMM:   2    -0.698991750595E+03   -0.13683E-02   -0.11316E-02 12755   0.224E-01    0.305E-01
RMM:   3    -0.698991813173E+03   -0.62578E-04   -0.30540E-03 14995   0.928E-02    0.211E-01
RMM:   4    -0.698991933804E+03   -0.12063E-03   -0.44153E-04 13443   0.342E-02    0.210E-01
RMM:   5    -0.698991739483E+03    0.19432E-03   -0.95283E-05 10981   0.186E-02    0.312E-02
RMM:   6    -0.698991744735E+03   -0.52522E-05   -0.59222E-05  9599   0.110E-02
  26 F= -.69899174E+03 E0= -.69897446E+03  d E =-.265176E-03
       N       E                     dE             d eps       ncg     rms          rms(c)
DAV:   1    -0.698991676258E+03    0.63225E-04   -0.20704E-02 11744   0.213E-01    0.284E-02
RMM:   2    -0.698991762851E+03   -0.86592E-04   -0.65925E-04 12813   0.535E-02    0.849E-02
RMM:   3    -0.698991756097E+03    0.67540E-05   -0.15952E-04 12621   0.220E-02    0.557E-02
RMM:   4    -0.698991766312E+03   -0.10215E-04   -0.30628E-05  7609   0.110E-02    0.606E-02
RMM:   5    -0.698991751517E+03    0.14795E-04   -0.96404E-06  6100   0.663E-03    0.670E-03
RMM:   6    -0.698991752915E+03   -0.13972E-05   -0.43010E-06  5853   0.475E-03
  27 F= -.69899175E+03 E0= -.69897448E+03  d E =-.273355E-03
       N       E                     dE             d eps       ncg     rms          rms(c)
DAV:   1    -0.698991122753E+03    0.62876E-03   -0.22239E-01 10792   0.695E-01    0.117E-01
RMM:   2    -0.698994448921E+03   -0.33262E-02   -0.78489E-03 12925   0.179E-01    0.954E-01
RMM:   3    -0.698991458385E+03    0.29905E-02   -0.19809E-03 14823   0.768E-02    0.780E-02
RMM:   4    -0.698992027392E+03   -0.56901E-03   -0.30932E-04 12845   0.301E-02    0.131E-01
RMM:   5    -0.698991950935E+03    0.76458E-04   -0.63470E-05 10043   0.155E-02    0.252E-02
RMM:   6    -0.698991951482E+03   -0.54699E-06   -0.31264E-05  8806   0.868E-03
  28 F= -.69899195E+03 E0= -.69897470E+03  d E =-.198567E-03
       N       E                     dE             d eps       ncg     rms          rms(c)
DAV:   1    -0.698991900077E+03    0.50858E-04   -0.16912E-02 11504   0.192E-01    0.315E-02
RMM:   2    -0.698992118408E+03   -0.21833E-03   -0.57842E-04 12845   0.480E-02    0.248E-01
RMM:   3    -0.698991928054E+03    0.19035E-03   -0.13844E-04 12304   0.207E-02    0.273E-02
RMM:   4    -0.698991969589E+03   -0.41535E-04   -0.26499E-05  7425   0.107E-02    0.421E-02
RMM:   5    -0.698991961026E+03    0.85631E-05   -0.79290E-06  6010   0.610E-03
  29 F= -.69899196E+03 E0= -.69897472E+03  d E =-.208111E-03
       N       E                     dE             d eps       ncg     rms          rms(c)
DAV:   1    -0.698991417464E+03    0.55213E-03   -0.17628E-01 10812   0.627E-01    0.101E-01
RMM:   2    -0.698993779804E+03   -0.23623E-02   -0.62690E-03 13066   0.165E-01    0.796E-01
RMM:   3    -0.698991768289E+03    0.20115E-02   -0.16217E-03 14711   0.700E-02    0.103E-01
RMM:   4    -0.698992164046E+03   -0.39576E-03   -0.26739E-04 12821   0.281E-02    0.123E-01
RMM:   5    -0.698992093071E+03    0.70975E-04   -0.53239E-05  9715   0.150E-02    0.232E-02
RMM:   6    -0.698992092485E+03    0.58602E-06   -0.33929E-05  8884   0.865E-03
  30 F= -.69899209E+03 E0= -.69897487E+03  d E =-.131459E-03
       N       E                     dE             d eps       ncg     rms          rms(c)
DAV:   1    -0.698992089135E+03    0.39355E-05   -0.67537E-04 11712   0.408E-02    0.724E-03
RMM:   2    -0.698992094964E+03   -0.58282E-05   -0.34811E-05  7034   0.147E-02
  31 F= -.69899209E+03 E0= -.69897483E+03  d E =-.133938E-03
       N       E                     dE             d eps       ncg     rms          rms(c)
DAV:   1    -0.698992090000E+03   -0.86456E-06   -0.54772E-04 10584   0.346E-02    0.914E-03
RMM:   2    -0.698992115668E+03   -0.25668E-04   -0.26739E-05  7382   0.103E-02    0.897E-02
RMM:   3    -0.698992088419E+03    0.27249E-04   -0.68735E-06  5913   0.608E-03    0.120E-02
RMM:   4    -0.698992092634E+03   -0.42159E-05   -0.23443E-06  5714   0.346E-03
  32 F= -.69899209E+03 E0= -.69897487E+03  d E =-.131609E-03
       N       E                     dE             d eps       ncg     rms          rms(c)
DAV:   1    -0.698992092231E+03   -0.38122E-05   -0.13280E-04 10296   0.177E-02    0.361E-03
RMM:   2    -0.698992095001E+03   -0.27701E-05   -0.67079E-06  5401   0.586E-03
  33 F= -.69899210E+03 E0= -.69897484E+03  d E =-.133975E-03
       N       E                     dE             d eps       ncg     rms          rms(c)
DAV:   1    -0.698992092015E+03    0.21556E-06   -0.45709E-05  8172   0.975E-03    0.324E-03
RMM:   2    -0.698992094258E+03   -0.22427E-05   -0.44914E-06  5170   0.451E-03
  34 F= -.69899209E+03 E0= -.69897487E+03  d E =-.133232E-03
       N       E                     dE             d eps       ncg     rms          rms(c)
DAV:   1    -0.698992092641E+03   -0.62544E-06   -0.79284E-06  5760   0.554E-03    0.684E-03
RMM:   2    -0.698992108307E+03   -0.15667E-04   -0.47111E-06  5310   0.357E-03    0.756E-02
RMM:   3    -0.698992089668E+03    0.18639E-04   -0.21222E-06  5071   0.269E-03    0.692E-03
RMM:   4    -0.698992092770E+03   -0.31011E-05   -0.51893E-07  2892   0.150E-03
  35 F= -.69899209E+03 E0= -.69897487E+03  d E =-.131744E-03
       N       E                     dE             d eps       ncg     rms          rms(c)
DAV:   1    -0.698991835382E+03    0.25429E-03   -0.89335E-02 10888   0.449E-01    0.655E-02
RMM:   2    -0.698992907233E+03   -0.10719E-02   -0.31489E-03 13151   0.117E-01    0.537E-01
RMM:   3    -0.698992034998E+03    0.87224E-03   -0.77781E-04 14653   0.491E-02    0.849E-02
RMM:   4    -0.698992206900E+03   -0.17190E-03   -0.13672E-04 12222   0.204E-02    0.741E-02
RMM:   5    -0.698992180488E+03    0.26413E-04   -0.27144E-05  7684   0.113E-02    0.164E-02
RMM:   6    -0.698992178215E+03    0.22731E-05   -0.19181E-05  7208   0.666E-03
  36 F= -.69899218E+03 E0= -.69897496E+03  d E =-.854452E-04
       N       E                     dE             d eps       ncg     rms          rms(c)
DAV:   1    -0.698992145512E+03    0.34975E-04   -0.73591E-03 11512   0.129E-01    0.187E-02
RMM:   2    -0.698992222706E+03   -0.77193E-04   -0.26734E-04 13068   0.335E-02    0.139E-01
RMM:   3    -0.698992164362E+03    0.58344E-04   -0.59199E-05  9999   0.141E-02    0.212E-02
RMM:   4    -0.698992177703E+03   -0.13342E-04   -0.13892E-05  6211   0.842E-03    0.264E-02
RMM:   5    -0.698992174326E+03    0.33774E-05   -0.44854E-06  5875   0.509E-03
  37 F= -.69899217E+03 E0= -.69897496E+03  d E =-.815564E-04
       N       E                     dE             d eps       ncg     rms          rms(c)
DAV:   1    -0.698992166468E+03    0.11236E-04   -0.19350E-03 10632   0.668E-02    0.977E-03
RMM:   2    -0.698992187489E+03   -0.21021E-04   -0.87153E-05 10477   0.202E-02    0.670E-02
RMM:   3    -0.698992173032E+03    0.14456E-04   -0.19272E-05  6151   0.949E-03    0.135E-02
RMM:   4    -0.698992176051E+03   -0.30184E-05   -0.57624E-06  5839   0.631E-03
  38 F= -.69899218E+03 E0= -.69897495E+03  d E =-.832812E-04
       N       E                     dE             d eps       ncg     rms          rms(c)
DAV:   1    -0.698992172264E+03    0.76813E-06   -0.65521E-04 10408   0.386E-02    0.624E-03
RMM:   2    -0.698992179231E+03   -0.69671E-05   -0.23879E-05  6395   0.112E-02
  39 F= -.69899218E+03 E0= -.69897501E+03  d E =-.864618E-04
       N       E                     dE             d eps       ncg     rms          rms(c)
DAV:   1    -0.698992173444E+03   -0.11798E-05   -0.29195E-04 10408   0.252E-02    0.643E-03
RMM:   2    -0.698992181258E+03   -0.78142E-05   -0.15691E-05  5965   0.767E-03
  40 F= -.69899218E+03 E0= -.69897500E+03  d E =-.884886E-04
       N       E                     dE             d eps       ncg     rms          rms(c)
DAV:   1    -0.698992174506E+03   -0.10622E-05   -0.96246E-05  9822   0.141E-02    0.144E-02
RMM:   2    -0.698992248487E+03   -0.73981E-04   -0.25287E-05  6808   0.723E-03    0.163E-01
RMM:   3    -0.698992160946E+03    0.87541E-04   -0.13434E-05  5815   0.589E-03    0.165E-02
RMM:   4    -0.698992174825E+03   -0.13879E-04   -0.36168E-06  5158   0.381E-03    0.298E-03
RMM:   5    -0.698992175402E+03   -0.57758E-06   -0.13012E-06  4733   0.245E-03
  41 F= -.69899218E+03 E0= -.69897496E+03  d E =-.826329E-04
       N       E                     dE             d eps       ncg     rms          rms(c)
DAV:   1    -0.698991908286E+03    0.26654E-03   -0.86755E-02 10868   0.437E-01    0.506E-02
RMM:   2    -0.698992282922E+03   -0.37464E-03   -0.28119E-03 12926   0.111E-01    0.165E-01
RMM:   3    -0.698992243901E+03    0.39021E-04   -0.69034E-04 14741   0.451E-02    0.916E-02
RMM:   4    -0.698992279965E+03   -0.36064E-04   -0.10910E-04 11795   0.175E-02    0.111E-01
RMM:   5    -0.698992233991E+03    0.45975E-04   -0.24631E-05  7409   0.107E-02    0.154E-02
RMM:   6    -0.698992234958E+03   -0.96715E-06   -0.23577E-05  7815   0.694E-03
  42 F= -.69899223E+03 E0= -.69897505E+03  d E =-.595552E-04
       N       E                     dE             d eps       ncg     rms          rms(c)
DAV:   1    -0.698992213404E+03    0.20586E-04   -0.41749E-03 11452   0.963E-02    0.121E-02
RMM:   2    -0.698992229922E+03   -0.16518E-04   -0.15021E-04 11866   0.254E-02    0.227E-02
RMM:   3    -0.698992231096E+03   -0.11747E-05   -0.35497E-05  7347   0.111E-02
  43 F= -.69899223E+03 E0= -.69897504E+03  d E =-.556940E-04
       N       E                     dE             d eps       ncg     rms          rms(c)
DAV:   1    -0.698992228040E+03    0.18816E-05   -0.25320E-03 10912   0.749E-02    0.373E-02
RMM:   2    -0.698992715323E+03   -0.48728E-03   -0.21527E-04 11593   0.227E-02    0.418E-01
RMM:   3    -0.698992136812E+03    0.57851E-03   -0.82318E-05  8635   0.150E-02    0.275E-02
RMM:   4    -0.698992232494E+03   -0.95682E-04   -0.22525E-05  6376   0.887E-03    0.186E-02
RMM:   5    -0.698992235002E+03   -0.25075E-05   -0.67222E-06  6030   0.564E-03
  44 F= -.69899224E+03 E0= -.69897506E+03  d E =-.595991E-04
       N       E                     dE             d eps       ncg     rms          rms(c)
DAV:   1    -0.698992232451E+03    0.43561E-07   -0.62931E-04 10366   0.374E-02    0.492E-03
RMM:   2    -0.698992235301E+03   -0.28500E-05   -0.22787E-05  6170   0.104E-02
  45 F= -.69899224E+03 E0= -.69897506E+03  d E =-.598981E-04
       N       E                     dE             d eps       ncg     rms          rms(c)
DAV:   1    -0.698992234327E+03   -0.18760E-05   -0.32215E-04 10292   0.266E-02    0.772E-03
RMM:   2    -0.698992254353E+03   -0.20026E-04   -0.16728E-05  6056   0.740E-03    0.840E-02
RMM:   3    -0.698992231537E+03    0.22816E-04   -0.51243E-06  5675   0.514E-03    0.545E-03
RMM:   4    -0.698992235612E+03   -0.40754E-05   -0.17131E-06  5516   0.290E-03
  46 F= -.69899224E+03 E0= -.69897506E+03  d E =-.602096E-04
       N       E                     dE             d eps       ncg     rms          rms(c)
DAV:   1    -0.698992235138E+03   -0.36012E-05   -0.80980E-05 10116   0.134E-02    0.216E-03
RMM:   2    -0.698992236266E+03   -0.11280E-05   -0.35156E-06  5126   0.379E-03
  47 F= -.69899224E+03 E0= -.69897508E+03  d E =-.608634E-04
       N       E                     dE             d eps       ncg     rms          rms(c)
DAV:   1    -0.698992235056E+03    0.82073E-07   -0.24433E-05  6668   0.760E-03    0.223E-03
RMM:   2    -0.698992236083E+03   -0.10274E-05   -0.33227E-06  5060   0.423E-03
  48 F= -.69899224E+03 E0= -.69897507E+03  d E =-.606808E-04
       N       E                     dE             d eps       ncg     rms          rms(c)
DAV:   1    -0.698992235390E+03   -0.33399E-06   -0.82115E-06  5368   0.436E-03    0.346E-03
RMM:   2    -0.698992239536E+03   -0.41461E-05   -0.17225E-06  5085   0.275E-03
  49 F= -.69899224E+03 E0= -.69897511E+03  d E =-.641334E-04
       N       E                     dE             d eps       ncg     rms          rms(c)
DAV:   1    -0.698992234709E+03    0.68051E-06   -0.16481E-05  5262   0.404E-03    0.346E-03
RMM:   2    -0.698992236868E+03   -0.21584E-05   -0.95690E-07  4324   0.176E-03
  50 F= -.69899224E+03 E0= -.69897507E+03  d E =-.614652E-04
       N       E                     dE             d eps       ncg     rms          rms(c)
DAV:   1    -0.698992235437E+03   -0.72782E-06   -0.41687E-06  5246   0.300E-03    0.334E-03
RMM:   2    -0.698992239316E+03   -0.38793E-05   -0.78606E-07  2125   0.959E-04
  51 F= -.69899224E+03 E0= -.69897511E+03  d E =-.639140E-04
       N       E                     dE             d eps       ncg     rms          rms(c)
DAV:   1    -0.698992041258E+03    0.19418E-03   -0.74655E-02 10828   0.397E-01    0.158E-01
RMM:   2    -0.698999856796E+03   -0.78155E-02   -0.47111E-03 13216   0.108E-01    0.154E+00
RMM:   3    -0.698990992923E+03    0.88639E-02   -0.14579E-03 13644   0.594E-02    0.854E-02
RMM:   4    -0.698992217578E+03   -0.12247E-02   -0.30482E-04 11703   0.269E-02    0.343E-02
RMM:   5    -0.698992268830E+03   -0.51253E-04   -0.51792E-05  8378   0.131E-02    0.276E-02
RMM:   6    -0.698992266748E+03    0.20822E-05   -0.14197E-05  6291   0.614E-03
  52 F= -.69899227E+03 E0= -.69897514E+03  d E =-.274313E-04
       N       E                     dE             d eps       ncg     rms          rms(c)
DAV:   1    -0.698992257149E+03    0.11681E-04   -0.22802E-03 10732   0.704E-02    0.227E-02
RMM:   2    -0.698992430933E+03   -0.17378E-03   -0.14611E-04 10817   0.215E-02    0.251E-01
RMM:   3    -0.698992230952E+03    0.19998E-03   -0.37281E-05  7136   0.118E-02    0.150E-02
RMM:   4    -0.698992265657E+03   -0.34705E-04   -0.97924E-06  5980   0.724E-03    0.756E-03
RMM:   5    -0.698992266834E+03   -0.11772E-05   -0.33468E-06  5885   0.462E-03
  53 F= -.69899227E+03 E0= -.69897513E+03  d E =-.275176E-04
       N       E                     dE             d eps       ncg     rms          rms(c)
DAV:   1    -0.698992264676E+03    0.98078E-06   -0.59617E-04 10820   0.355E-02    0.143E-02
RMM:   2    -0.698992331790E+03   -0.67114E-04   -0.43116E-05  7524   0.105E-02    0.155E-01
RMM:   3    -0.698992253141E+03    0.78649E-04   -0.12331E-05  6081   0.747E-03    0.924E-03
RMM:   4    -0.698992266614E+03   -0.13473E-04   -0.38474E-06  5736   0.416E-03    0.742E-03
RMM:   5    -0.698992266909E+03   -0.29436E-06   -0.14856E-06  5632   0.292E-03
  54 F= -.69899227E+03 E0= -.69897514E+03  d E =-.275921E-04
       N       E                     dE             d eps       ncg     rms          rms(c)
DAV:   1    -0.698992266514E+03    0.10049E-06   -0.14686E-04 10150   0.175E-02    0.711E-03
RMM:   2    -0.698992283256E+03   -0.16742E-04   -0.99379E-06  5649   0.511E-03    0.784E-02
RMM:   3    -0.698992263486E+03    0.19770E-04   -0.34752E-06  5476   0.405E-03    0.484E-03
RMM:   4    -0.698992266961E+03   -0.34755E-05   -0.10453E-06  5319   0.212E-03
  55 F= -.69899227E+03 E0= -.69897513E+03  d E =-.276447E-04
       N       E                     dE             d eps       ncg     rms          rms(c)
DAV:   1    -0.698992199823E+03    0.63663E-04   -0.26581E-02 10608   0.240E-01    0.281E-02
RMM:   2    -0.698992375057E+03   -0.17523E-03   -0.92909E-04 13243   0.636E-02    0.179E-01
RMM:   3    -0.698992289472E+03    0.85585E-04   -0.21703E-04 12867   0.254E-02    0.303E-02
RMM:   4    -0.698992315436E+03   -0.25964E-04   -0.35107E-05  7650   0.125E-02    0.440E-02
RMM:   5    -0.698992305571E+03    0.98648E-05   -0.10568E-05  6070   0.700E-03
  56 F= -.69899231E+03 E0= -.69897518E+03  d E =-.386097E-04
       N       E                     dE             d eps       ncg     rms          rms(c)
DAV:   1    -0.698992304219E+03    0.11216E-04   -0.56695E-06  6808   0.182E-02    0.314E-03
RMM:   2    -0.698992306160E+03   -0.19409E-05   -0.84588E-06  5799   0.619E-03
  57 F= -.69899231E+03 E0= -.69897517E+03  d E =-.391991E-04
       N       E                     dE             d eps       ncg     rms          rms(c)
DAV:   1    -0.698992304759E+03   -0.53942E-06   -0.64288E-06  7250   0.634E-03    0.654E-03
RMM:   2    -0.698992318373E+03   -0.13614E-04   -0.49775E-06  5374   0.360E-03    0.700E-02
RMM:   3    -0.698992302436E+03    0.15937E-04   -0.23753E-06  5268   0.304E-03    0.743E-03
RMM:   4    -0.698992305028E+03   -0.25916E-05   -0.63741E-07  3504   0.161E-03
  58 F= -.69899231E+03 E0= -.69897518E+03  d E =-.380667E-04
       N       E                     dE             d eps       ncg     rms          rms(c)
DAV:   1    -0.698992305157E+03   -0.27205E-05   -0.11825E-06  5470   0.264E-03    0.957E-04
RMM:   2    -0.698992305204E+03   -0.46821E-07   -0.59206E-07  4651   0.188E-03
  59 F= -.69899231E+03 E0= -.69897518E+03  d E =-.382424E-04
       N       E                     dE             d eps       ncg     rms          rms(c)
DAV:   1    -0.698992279182E+03    0.25974E-04   -0.14528E-02 10492   0.170E-01    0.435E-02
RMM:   2    -0.698992904495E+03   -0.62531E-03   -0.66531E-04 13401   0.462E-02    0.466E-01
RMM:   3    -0.698992210478E+03    0.69402E-03   -0.15404E-04 11631   0.215E-02    0.406E-02
RMM:   4    -0.698992333417E+03   -0.12294E-03   -0.33879E-05  7162   0.117E-02    0.310E-02
RMM:   5    -0.698992332690E+03    0.72738E-06   -0.87618E-06  6049   0.676E-03
  60 F= -.69899233E+03 E0= -.69897520E+03  d E =-.274861E-04
       N       E                     dE             d eps       ncg     rms          rms(c)
DAV:   1    -0.698992327465E+03    0.59520E-05   -0.18112E-03 11044   0.614E-02    0.129E-02
RMM:   2    -0.698992378189E+03   -0.50724E-04   -0.91144E-05 10661   0.196E-02    0.127E-01
RMM:   3    -0.698992325909E+03    0.52279E-04   -0.19477E-05  6211   0.952E-03    0.998E-03
RMM:   4    -0.698992335658E+03   -0.97488E-05   -0.59100E-06  5872   0.598E-03
  61 F= -.69899234E+03 E0= -.69897521E+03  d E =-.304547E-04
       N       E                     dE             d eps       ncg     rms          rms(c)
DAV:   1    -0.698992332096E+03   -0.61863E-05   -0.44362E-04 10008   0.309E-02    0.723E-03
RMM:   2    -0.698992346192E+03   -0.14096E-04   -0.23602E-05  6220   0.106E-02    0.661E-02
RMM:   3    -0.698992331934E+03    0.14258E-04   -0.60246E-06  5780   0.630E-03    0.659E-03
RMM:   4    -0.698992334645E+03   -0.27108E-05   -0.21433E-06  5661   0.328E-03
  62 F= -.69899233E+03 E0= -.69897520E+03  d E =-.294413E-04
       N       E                     dE             d eps       ncg     rms          rms(c)
DAV:   1    -0.698992334113E+03   -0.21789E-05   -0.19617E-04 10148   0.204E-02    0.469E-03
RMM:   2    -0.698992340740E+03   -0.66266E-05   -0.11899E-05  5508   0.703E-03
  63 F= -.69899234E+03 E0= -.69897527E+03  d E =-.355360E-04
       N       E                     dE             d eps       ncg     rms          rms(c)
DAV:   1    -0.698992333189E+03    0.92424E-06   -0.73274E-05  8560   0.117E-02    0.443E-03
RMM:   2    -0.698992337470E+03   -0.42816E-05   -0.74419E-06  5298   0.531E-03
  64 F= -.69899234E+03 E0= -.69897519E+03  d E =-.322667E-04
       N       E                     dE             d eps       ncg     rms          rms(c)
DAV:   1    -0.698992334692E+03   -0.15038E-05   -0.18145E-05  6424   0.679E-03    0.788E-03
RMM:   2    -0.698992352135E+03   -0.17442E-04   -0.71285E-06  5469   0.386E-03    0.770E-02
RMM:   3    -0.698992332282E+03    0.19852E-04   -0.31356E-06  5151   0.309E-03    0.140E-02
RMM:   4    -0.698992334859E+03   -0.25768E-05   -0.88192E-07  3493   0.183E-03
  65 F= -.69899233E+03 E0= -.69897521E+03  d E =-.296554E-04
       N       E                     dE             d eps       ncg     rms          rms(c)
DAV:   1    -0.698992311127E+03    0.21155E-04   -0.13124E-02 10288   0.147E-01    0.242E-02
RMM:   2    -0.698992447921E+03   -0.13679E-03   -0.39998E-04 12297   0.364E-02    0.194E-01
RMM:   3    -0.698992333150E+03    0.11477E-03   -0.98387E-05 10054   0.161E-02    0.190E-02
RMM:   4    -0.698992358471E+03   -0.25321E-04   -0.17480E-05  6609   0.902E-03    0.310E-02
RMM:   5    -0.698992354163E+03    0.43078E-05   -0.52736E-06  5961   0.512E-03
  66 F= -.69899235E+03 E0= -.69897522E+03  d E =-.193041E-04
       N       E                     dE             d eps       ncg     rms          rms(c)
DAV:   1    -0.698992341148E+03    0.17323E-04   -0.55319E-03 10672   0.958E-02    0.163E-02
RMM:   2    -0.698992409193E+03   -0.68045E-04   -0.17999E-04 11294   0.249E-02    0.140E-01
RMM:   3    -0.698992348285E+03    0.60908E-04   -0.41732E-05  7352   0.115E-02    0.112E-02
RMM:   4    -0.698992360494E+03   -0.12209E-04   -0.96985E-06  6048   0.735E-03    0.161E-02
RMM:   5    -0.698992359685E+03    0.80857E-06   -0.32394E-06  5843   0.446E-03
  67 F= -.69899236E+03 E0= -.69897523E+03  d E =-.248263E-04
       N       E                     dE             d eps       ncg     rms          rms(c)
DAV:   1    -0.698992338115E+03    0.22379E-04   -0.99257E-03 10204   0.127E-01    0.310E-02
RMM:   2    -0.698992612966E+03   -0.27485E-03   -0.38547E-04 12834   0.340E-02    0.292E-01
RMM:   3    -0.698992327562E+03    0.28540E-03   -0.88284E-05  9904   0.155E-02    0.325E-02
RMM:   4    -0.698992373832E+03   -0.46270E-04   -0.20321E-05  6647   0.913E-03    0.254E-02
RMM:   5    -0.698992371787E+03    0.20452E-05   -0.55093E-06  5953   0.542E-03
  68 F= -.69899237E+03 E0= -.69897525E+03  d E =-.121014E-04
