<?xml version="1.0" encoding="ISO-8859-1"?>
<modeling>
 <generator>
  <i name="program" type="string">vasp </i>
  <i name="version" type="string">6.4.2  </i>
  <i name="subversion" type="string">20Jul23 (build Nov 12 2023 22:16:35) complex                          parallel </i>
  <i name="platform" type="string">LinuxNV </i>
  <i name="date" type="string">2025 03 21 </i>
  <i name="time" type="string">12:59:27 </i>
 </generator>
 <incar>
  <i type="int" name="ISTART">     0</i>
  <i type="string" name="PREC">Normal</i>
  <i type="string" name="ALGO">Fast</i>
  <i type="int" name="ISPIN">     1</i>
  <i type="int" name="ICHARG">     2</i>
  <i type="int" name="NELM">   500</i>
  <i type="int" name="IBRION">     2</i>
  <i name="EDIFF">      0.00001000</i>
  <i name="EDIFFG">     -0.00500000</i>
  <i type="int" name="NSW">   300</i>
  <i type="int" name="ISIF">     2</i>
  <i name="ENCUT">    450.00000000</i>
  <i name="NELECT">   1044.00000000</i>
  <i type="string" name="LREAL">Auto</i>
  <i type="logical" name="LPLANE"> T  </i>
  <i type="int" name="ISMEAR">     0</i>
  <i name="SIGMA">      0.05000000</i>
  <i type="logical" name="LWAVE"> F  </i>
  <i type="logical" name="LCHARG"> F  </i>
 </incar>
 <primitive_cell>
  <structure name="primitive_cell" >
   <crystal>
    <varray name="basis" >
     <v>       0.00000000      12.28047342       0.00000000 </v>
     <v>       9.14270205       0.00000000       0.00000000 </v>
     <v>       0.00000000      -2.76826177     -11.30069772 </v>
    </varray>
    <i name="volume">   1268.80515525 </i>
    <varray name="rec_basis" >
     <v>       0.00000000       0.08143009      -0.01994742 </v>
     <v>       0.10937686      -0.00000000       0.00000000 </v>
     <v>       0.00000000       0.00000000      -0.08849011 </v>
    </varray>
   </crystal>
   <varray name="positions" >
    <v>       0.65883830       0.00000000       0.15736517 </v>
    <v>       0.65883830       0.00000000       0.65736517 </v>
    <v>       0.65883830       0.33333333       0.15736517 </v>
    <v>       0.65883830       0.33333333       0.65736517 </v>
    <v>       0.65883830       0.66666667       0.15736517 </v>
    <v>       0.65883830       0.66666667       0.65736517 </v>
    <v>       0.84116170       0.16666667       0.34263483 </v>
    <v>       0.84116170       0.16666667       0.84263483 </v>
    <v>       0.84116170       0.50000000       0.34263483 </v>
    <v>       0.84116170       0.50000000       0.84263483 </v>
    <v>       0.84116170       0.83333333       0.34263483 </v>
    <v>       0.84116170       0.83333333       0.84263483 </v>
    <v>       0.59047440       0.16666667       0.39739300 </v>
    <v>       0.59047440       0.16666667       0.89739300 </v>
    <v>       0.59047440       0.50000000       0.39739300 </v>
    <v>       0.59047440       0.50000000       0.89739300 </v>
    <v>       0.59047440       0.83333333       0.39739300 </v>
    <v>       0.59047440       0.83333333       0.89739300 </v>
    <v>       0.90952560       0.00000000       0.10260700 </v>
    <v>       0.90952560       0.00000000       0.60260700 </v>
    <v>       0.90952560       0.33333333       0.10260700 </v>
    <v>       0.90952560       0.33333333       0.60260700 </v>
    <v>       0.90952560       0.66666667       0.10260700 </v>
    <v>       0.90952560       0.66666667       0.60260700 </v>
    <v>       0.15883830       0.16666667       0.15736517 </v>
    <v>       0.15883830       0.16666667       0.65736517 </v>
    <v>       0.15883830       0.50000000       0.15736517 </v>
    <v>       0.15883830       0.50000000       0.65736517 </v>
    <v>       0.15883830       0.83333333       0.15736517 </v>
    <v>       0.15883830       0.83333333       0.65736517 </v>
    <v>       0.34116170       0.00000000       0.34263483 </v>
    <v>       0.34116170       0.00000000       0.84263483 </v>
    <v>       0.34116170       0.33333333       0.34263483 </v>
    <v>       0.34116170       0.33333333       0.84263483 </v>
    <v>       0.34116170       0.66666667       0.34263483 </v>
    <v>       0.34116170       0.66666667       0.84263483 </v>
    <v>       0.09047440       0.00000000       0.39739300 </v>
    <v>       0.09047440       0.00000000       0.89739300 </v>
    <v>       0.09047440       0.33333333       0.89739300 </v>
    <v>       0.09047440       0.66666667       0.39739300 </v>
    <v>       0.09047440       0.66666667       0.89739300 </v>
    <v>       0.40952560       0.16666667       0.10260700 </v>
    <v>       0.40952560       0.16666667       0.60260700 </v>
    <v>       0.40952560       0.50000000       0.10260700 </v>
    <v>       0.40952560       0.50000000       0.60260700 </v>
    <v>       0.40952560       0.83333333       0.10260700 </v>
    <v>       0.40952560       0.83333333       0.60260700 </v>
    <v>       0.99646913       0.16666667       0.12833205 </v>
    <v>       0.99646913       0.16666667       0.62833205 </v>
    <v>       0.99646913       0.50000000       0.12833205 </v>
    <v>       0.99646913       0.50000000       0.62833205 </v>
    <v>       0.99646913       0.83333333       0.12833205 </v>
    <v>       0.99646913       0.83333333       0.62833205 </v>
    <v>       0.50353087       0.00000000       0.37166795 </v>
    <v>       0.50353087       0.00000000       0.87166795 </v>
    <v>       0.50353087       0.33333333       0.37166795 </v>
    <v>       0.50353087       0.33333333       0.87166795 </v>
    <v>       0.50353087       0.66666667       0.37166795 </v>
    <v>       0.50353087       0.66666667       0.87166795 </v>
    <v>       0.67337106       0.16666667       0.28161508 </v>
    <v>       0.67337106       0.16666667       0.78161508 </v>
    <v>       0.67337106       0.50000000       0.28161508 </v>
    <v>       0.67337106       0.50000000       0.78161508 </v>
    <v>       0.67337106       0.83333333       0.28161508 </v>
    <v>       0.67337106       0.83333333       0.78161508 </v>
    <v>       0.82662894       0.00000000       0.21838492 </v>
    <v>       0.82662894       0.00000000       0.71838492 </v>
    <v>       0.82662894       0.33333333       0.21838492 </v>
    <v>       0.82662894       0.33333333       0.71838492 </v>
    <v>       0.82662894       0.66666667       0.21838492 </v>
    <v>       0.82662894       0.66666667       0.71838492 </v>
    <v>       0.83549502       0.00000000       0.44542296 </v>
    <v>       0.83549502       0.00000000       0.94542296 </v>
    <v>       0.83549502       0.33333333       0.44542296 </v>
    <v>       0.83549502       0.33333333       0.94542296 </v>
    <v>       0.83549502       0.66666667       0.44542296 </v>
    <v>       0.83549502       0.66666667       0.94542296 </v>
    <v>       0.66450498       0.16666667       0.05457704 </v>
    <v>       0.66450498       0.16666667       0.55457704 </v>
    <v>       0.66450498       0.50000000       0.05457704 </v>
    <v>       0.66450498       0.50000000       0.55457704 </v>
    <v>       0.66450498       0.83333333       0.05457704 </v>
    <v>       0.66450498       0.83333333       0.55457704 </v>
    <v>       0.49646913       0.00000000       0.12833205 </v>
    <v>       0.49646913       0.00000000       0.62833205 </v>
    <v>       0.49646913       0.33333333       0.12833205 </v>
    <v>       0.49646913       0.33333333       0.62833205 </v>
    <v>       0.49646913       0.66666667       0.12833205 </v>
    <v>       0.49646913       0.66666667       0.62833205 </v>
    <v>       0.00353087       0.16666667       0.37166795 </v>
    <v>       0.00353087       0.16666667       0.87166795 </v>
    <v>       0.00353087       0.50000000       0.37166795 </v>
    <v>       0.00353087       0.50000000       0.87166795 </v>
    <v>       0.00353087       0.83333333       0.37166795 </v>
    <v>       0.00353087       0.83333333       0.87166795 </v>
    <v>       0.17337106       0.00000000       0.28161508 </v>
    <v>       0.17337106       0.00000000       0.78161508 </v>
    <v>       0.17337106       0.33333333       0.28161508 </v>
    <v>       0.17337106       0.33333333       0.78161508 </v>
    <v>       0.17337106       0.66666667       0.28161508 </v>
    <v>       0.17337106       0.66666667       0.78161508 </v>
    <v>       0.32662894       0.16666667       0.21838492 </v>
    <v>       0.32662894       0.16666667       0.71838492 </v>
    <v>       0.32662894       0.50000000       0.21838492 </v>
    <v>       0.32662894       0.50000000       0.71838492 </v>
    <v>       0.32662894       0.83333333       0.21838492 </v>
    <v>       0.32662894       0.83333333       0.71838492 </v>
    <v>       0.33549502       0.16666667       0.44542296 </v>
    <v>       0.33549502       0.16666667       0.94542296 </v>
    <v>       0.33549502       0.50000000       0.44542296 </v>
    <v>       0.33549502       0.50000000       0.94542296 </v>
    <v>       0.33549502       0.83333333       0.44542296 </v>
    <v>       0.33549502       0.83333333       0.94542296 </v>
    <v>       0.16450498       0.00000000       0.05457704 </v>
    <v>       0.16450498       0.00000000       0.55457704 </v>
    <v>       0.16450498       0.33333333       0.05457704 </v>
    <v>       0.16450498       0.33333333       0.55457704 </v>
    <v>       0.16450498       0.66666667       0.05457704 </v>
    <v>       0.16450498       0.66666667       0.55457704 </v>
   </varray>
  </structure>
  <varray name="primitive_index" >
   <v type="int" >        1 </v>
   <v type="int" >        2 </v>
   <v type="int" >        3 </v>
   <v type="int" >        4 </v>
   <v type="int" >        5 </v>
   <v type="int" >        6 </v>
   <v type="int" >        7 </v>
   <v type="int" >        8 </v>
   <v type="int" >        9 </v>
   <v type="int" >       10 </v>
   <v type="int" >       11 </v>
   <v type="int" >       12 </v>
   <v type="int" >       13 </v>
   <v type="int" >       14 </v>
   <v type="int" >       15 </v>
   <v type="int" >       16 </v>
   <v type="int" >       17 </v>
   <v type="int" >       18 </v>
   <v type="int" >       19 </v>
   <v type="int" >       20 </v>
   <v type="int" >       21 </v>
   <v type="int" >       22 </v>
   <v type="int" >       23 </v>
   <v type="int" >       24 </v>
   <v type="int" >       25 </v>
   <v type="int" >       26 </v>
   <v type="int" >       27 </v>
   <v type="int" >       28 </v>
   <v type="int" >       29 </v>
   <v type="int" >       30 </v>
   <v type="int" >       31 </v>
   <v type="int" >       32 </v>
   <v type="int" >       33 </v>
   <v type="int" >       34 </v>
   <v type="int" >       35 </v>
   <v type="int" >       36 </v>
   <v type="int" >       37 </v>
   <v type="int" >       38 </v>
   <v type="int" >       39 </v>
   <v type="int" >       40 </v>
   <v type="int" >       41 </v>
   <v type="int" >       42 </v>
   <v type="int" >       43 </v>
   <v type="int" >       44 </v>
   <v type="int" >       45 </v>
   <v type="int" >       46 </v>
   <v type="int" >       47 </v>
   <v type="int" >       48 </v>
   <v type="int" >       49 </v>
   <v type="int" >       50 </v>
   <v type="int" >       51 </v>
   <v type="int" >       52 </v>
   <v type="int" >       53 </v>
   <v type="int" >       54 </v>
   <v type="int" >       55 </v>
   <v type="int" >       56 </v>
   <v type="int" >       57 </v>
   <v type="int" >       58 </v>
   <v type="int" >       59 </v>
   <v type="int" >       60 </v>
   <v type="int" >       61 </v>
   <v type="int" >       62 </v>
   <v type="int" >       63 </v>
   <v type="int" >       64 </v>
   <v type="int" >       65 </v>
   <v type="int" >       66 </v>
   <v type="int" >       67 </v>
   <v type="int" >       68 </v>
   <v type="int" >       69 </v>
   <v type="int" >       70 </v>
   <v type="int" >       71 </v>
   <v type="int" >       72 </v>
   <v type="int" >       73 </v>
   <v type="int" >       74 </v>
   <v type="int" >       75 </v>
   <v type="int" >       76 </v>
   <v type="int" >       77 </v>
   <v type="int" >       78 </v>
   <v type="int" >       79 </v>
   <v type="int" >       80 </v>
   <v type="int" >       81 </v>
   <v type="int" >       82 </v>
   <v type="int" >       83 </v>
   <v type="int" >       84 </v>
   <v type="int" >       85 </v>
   <v type="int" >       86 </v>
   <v type="int" >       87 </v>
   <v type="int" >       88 </v>
   <v type="int" >       89 </v>
   <v type="int" >       90 </v>
   <v type="int" >       91 </v>
   <v type="int" >       92 </v>
   <v type="int" >       93 </v>
   <v type="int" >       94 </v>
   <v type="int" >       95 </v>
   <v type="int" >       96 </v>
   <v type="int" >       97 </v>
   <v type="int" >       98 </v>
   <v type="int" >       99 </v>
   <v type="int" >      100 </v>
   <v type="int" >      101 </v>
   <v type="int" >      102 </v>
   <v type="int" >      103 </v>
   <v type="int" >      104 </v>
   <v type="int" >      105 </v>
   <v type="int" >      106 </v>
   <v type="int" >      107 </v>
   <v type="int" >      108 </v>
   <v type="int" >      109 </v>
   <v type="int" >      110 </v>
   <v type="int" >      111 </v>
   <v type="int" >      112 </v>
   <v type="int" >      113 </v>
   <v type="int" >      114 </v>
   <v type="int" >      115 </v>
   <v type="int" >      116 </v>
   <v type="int" >      117 </v>
   <v type="int" >      118 </v>
   <v type="int" >      119 </v>
  </varray>
 </primitive_cell>
 <kpoints>
  <generation param="Gamma">
   <v type="int" name="divisions">       2        2        2 </v>
   <v name="usershift">      0.00000000       0.00000000       0.00000000 </v>
   <v name="genvec1">      0.50000000       0.00000000       0.00000000 </v>
   <v name="genvec2">      0.00000000       0.50000000       0.00000000 </v>
   <v name="genvec3">      0.00000000       0.00000000       0.50000000 </v>
   <v name="shift">      0.00000000       0.00000000       0.00000000 </v>
  </generation>
  <varray name="kpointlist" >
   <v>       0.00000000       0.00000000       0.00000000 </v>
   <v>       0.50000000       0.00000000       0.00000000 </v>
   <v>       0.00000000       0.50000000       0.00000000 </v>
   <v>       0.50000000       0.50000000       0.00000000 </v>
   <v>       0.00000000       0.00000000       0.50000000 </v>
   <v>       0.50000000       0.00000000       0.50000000 </v>
   <v>       0.00000000       0.50000000       0.50000000 </v>
   <v>       0.50000000       0.50000000       0.50000000 </v>
  </varray>
  <varray name="weights" >
   <v>       0.12500000 </v>
   <v>       0.12500000 </v>
   <v>       0.12500000 </v>
   <v>       0.12500000 </v>
   <v>       0.12500000 </v>
   <v>       0.12500000 </v>
   <v>       0.12500000 </v>
   <v>       0.12500000 </v>
  </varray>
 </kpoints>
 <parameters>
  <separator name="general" >
   <i type="string" name="SYSTEM">unknown system</i>
   <i type="logical" name="LCOMPAT"> F  </i>
  </separator>
  <separator name="electronic" >
   <i type="string" name="PREC">normal</i>
   <i name="ENMAX">    450.00000000</i>
   <i name="ENAUG">    605.39200000</i>
   <i name="EDIFF">      0.00001000</i>
   <i type="int" name="IALGO">    68</i>
   <i type="int" name="IWAVPR">    11</i>
   <i type="int" name="NBANDS">   626</i>
   <i type="int" name="NBANDSLOW">    -1</i>
   <i type="int" name="NBANDSHIGH">    -1</i>
   <i name="NELECT">   1044.00000000</i>
   <i type="int" name="TURBO">     0</i>
   <i type="int" name="IRESTART">     0</i>
   <i type="int" name="NREBOOT">     0</i>
   <i type="int" name="NMIN">     0</i>
   <i name="EREF">      0.00000000</i>
   <separator name="electronic smearing" >
    <i type="int" name="ISMEAR">     0</i>
    <i name="SIGMA">      0.05000000</i>
    <i name="KSPACING">      0.50000000</i>
    <i type="logical" name="KGAMMA"> T  </i>
    <i type="logical" name="KBLOWUP"> T  </i>
   </separator>
   <separator name="electronic projectors" >
    <i type="logical" name="LREAL"> T  </i>
    <v name="ROPT">     -0.00050000     -0.00050000</v>
    <i type="int" name="LMAXPAW">  -100</i>
    <i type="int" name="LMAXMIX">     2</i>
    <i type="logical" name="NLSPLINE"> F  </i>
   </separator>
   <separator name="electronic startup" >
    <i type="int" name="ISTART">     0</i>
    <i type="int" name="ICHARG">     2</i>
    <i type="int" name="INIWAV">     1</i>
   </separator>
   <separator name="electronic spin" >
    <i type="int" name="ISPIN">     1</i>
    <i type="logical" name="LNONCOLLINEAR"> F  </i>
    <v name="MAGMOM">      1.00000000      1.00000000      1.00000000      1.00000000      1.00000000      1.00000000      1.00000000      1.00000000      1.00000000      1.00000000      1.00000000      1.00000000      1.00000000      1.00000000      1.00000000      1.00000000      1.00000000      1.00000000      1.00000000      1.00000000
      1.00000000      1.00000000      1.00000000      1.00000000      1.00000000      1.00000000      1.00000000      1.00000000      1.00000000      1.00000000      1.00000000      1.00000000      1.00000000      1.00000000      1.00000000      1.00000000      1.00000000      1.00000000      1.00000000      1.00000000
      1.00000000      1.00000000      1.00000000      1.00000000      1.00000000      1.00000000      1.00000000      1.00000000      1.00000000      1.00000000      1.00000000      1.00000000      1.00000000      1.00000000      1.00000000      1.00000000      1.00000000      1.00000000      1.00000000      1.00000000
      1.00000000      1.00000000      1.00000000      1.00000000      1.00000000      1.00000000      1.00000000      1.00000000      1.00000000      1.00000000      1.00000000      1.00000000      1.00000000      1.00000000      1.00000000      1.00000000      1.00000000      1.00000000      1.00000000      1.00000000
      1.00000000      1.00000000      1.00000000      1.00000000      1.00000000      1.00000000      1.00000000      1.00000000      1.00000000      1.00000000      1.00000000      1.00000000      1.00000000      1.00000000      1.00000000      1.00000000      1.00000000      1.00000000      1.00000000      1.00000000
      1.00000000      1.00000000      1.00000000      1.00000000      1.00000000      1.00000000      1.00000000      1.00000000      1.00000000      1.00000000      1.00000000      1.00000000      1.00000000      1.00000000      1.00000000      1.00000000      1.00000000      1.00000000      1.00000000</v>
    <i name="NUPDOWN">     -1.00000000</i>
    <i type="logical" name="LSORBIT"> F  </i>
    <v name="SAXIS">      0.00000000      0.00000000      1.00000000</v>
    <i type="logical" name="LSPIRAL"> F  </i>
    <v name="QSPIRAL">      0.00000000      0.00000000      0.00000000</v>
    <i type="logical" name="LZEROZ"> F  </i>
   </separator>
   <separator name="electronic exchange-correlation" >
    <i type="logical" name="LASPH"> F  </i>
    <i type="logical" name="LMETAGGA"> F  </i>
   </separator>
   <separator name="electronic convergence" >
    <i type="int" name="NELM">   500</i>
    <i type="int" name="NELMDL">    -5</i>
    <i type="int" name="NELMIN">     2</i>
    <i name="ENINI">    450.00000000</i>
    <separator name="electronic convergence detail" >
     <i type="logical" name="LDIAG"> T  </i>
     <i type="logical" name="LSUBROT"> F  </i>
     <i name="WEIMIN">      0.00100000</i>
     <i name="EBREAK">      0.00000000</i>
     <i name="DEPER">      0.30000000</i>
     <i type="int" name="NRMM">     4</i>
     <i name="TIME">      0.40000000</i>
    </separator>
   </separator>
   <separator name="electronic mixer" >
    <i name="AMIX">      0.40000000</i>
    <i name="BMIX">      1.00000000</i>
    <i name="AMIN">      0.10000000</i>
    <i name="AMIX_MAG">      1.60000000</i>
    <i name="BMIX_MAG">      1.00000000</i>
    <separator name="electronic mixer details" >
     <i type="int" name="IMIX">     4</i>
     <i type="logical" name="MIXFIRST"> F  </i>
     <i type="int" name="MAXMIX">   -45</i>
     <i name="WC">    100.00000000</i>
     <i type="int" name="INIMIX">     1</i>
     <i type="int" name="MIXPRE">     1</i>
     <i type="int" name="MREMOVE">     5</i>
    </separator>
   </separator>
   <separator name="electronic dipolcorrection" >
    <i type="logical" name="LDIPOL"> F  </i>
    <i type="logical" name="LMONO"> F  </i>
    <i type="int" name="IDIPOL">     0</i>
    <i name="EPSILON">      1.00000000</i>
    <v name="DIPOL">   -100.00000000   -100.00000000   -100.00000000</v>
    <i name="EFIELD">      0.00000000</i>
   </separator>
  </separator>
  <separator name="grids" >
   <i type="int" name="NGX">    64</i>
   <i type="int" name="NGY">    48</i>
   <i type="int" name="NGZ">    60</i>
   <i type="int" name="NGXF">   128</i>
   <i type="int" name="NGYF">    96</i>
   <i type="int" name="NGZF">   120</i>
   <i type="logical" name="ADDGRID"> F  </i>
  </separator>
  <separator name="ionic" >
   <i type="int" name="NSW">   300</i>
   <i type="int" name="IBRION">     2</i>
   <i type="int" name="MDALGO">     0</i>
   <i type="int" name="ISIF">     2</i>
   <i name="PSTRESS">      0.00000000</i>
   <i name="EDIFFG">     -0.00500000</i>
   <i type="int" name="NFREE">     1</i>
   <i name="POTIM">      0.50000000</i>
   <i name="SMASS">     -3.00000000</i>
   <i name="SCALEE">      1.00000000</i>
  </separator>
  <separator name="ionic md" >
   <i name="TEBEG">      0.00010000</i>
   <i name="TEEND">      0.00010000</i>
   <i type="int" name="NBLOCK">     1</i>
   <i type="int" name="KBLOCK">   300</i>
   <i type="int" name="NPACO">   256</i>
   <i name="APACO">     10.00000000</i>
  </separator>
  <separator name="symmetry" >
   <i type="int" name="ISYM">     2</i>
   <i name="SYMPREC">      0.00001000</i>
  </separator>
  <separator name="dos" >
   <i type="int" name="LORBIT">     0</i>
   <v name="RWIGS">     -1.00000000     -1.00000000</v>
   <i type="int" name="NEDOS">   301</i>
   <i name="EMIN">     10.00000000</i>
   <i name="EMAX">    -10.00000000</i>
   <i name="EFERMI">      0.00000000</i>
  </separator>
  <separator name="writing" >
   <i type="int" name="NWRITE">     2</i>
   <i type="logical" name="LWAVE"> F  </i>
   <i type="logical" name="LDOWNSAMPLE"> F  </i>
   <i type="logical" name="LCHARG"> F  </i>
   <i type="logical" name="LPARD"> F  </i>
   <i type="logical" name="LVTOT"> F  </i>
   <i type="logical" name="LVHAR"> F  </i>
   <i type="logical" name="LELF"> F  </i>
   <i type="logical" name="LOPTICS"> F  </i>
   <v name="STM">      0.00000000      0.00000000      0.00000000      0.00000000      0.00000000      0.00000000      0.00000000</v>
  </separator>
  <separator name="performance" >
   <i type="int" name="NPAR">     1</i>
   <i type="int" name="NSIM">     4</i>
   <i type="int" name="NBLK">    -1</i>
   <i type="logical" name="LPLANE"> T  </i>
   <i type="logical" name="LSCALAPACK"> T  </i>
   <i type="logical" name="LSCAAWARE"> F  </i>
   <i type="logical" name="LSCALU"> F  </i>
   <i type="logical" name="LASYNC"> F  </i>
   <i type="logical" name="LORBITALREAL"> F  </i>
  </separator>
  <separator name="miscellaneous" >
   <i type="int" name="IDIOT">     3</i>
   <i type="int" name="PHON_NSTRUCT">    -1</i>
   <i type="logical" name="LMUSIC"> F  </i>
   <v name="POMASS">     69.72300000     16.00000000</v>
   <v name="DARWINR">      0.00000000      0.00000000</v>
   <v name="DARWINV">      1.00000000      1.00000000</v>
   <i type="logical" name="LCORR"> T  </i>
  </separator>
  <i type="logical" name="GGA_COMPAT"> T  </i>
  <i type="logical" name="LBERRY"> F  </i>
  <i type="int" name="ICORELEVEL">     0</i>
  <i type="logical" name="LDAU"> F  </i>
  <i type="int" name="I_CONSTRAINED_M">     0</i>
  <separator name="electronic exchange-correlation" >
   <i type="string" name="GGA">--</i>
   <i type="int" name="VOSKOWN">     0</i>
   <i type="logical" name="LHFCALC"> F  </i>
   <i type="string" name="PRECFOCK"></i>
   <i type="logical" name="LSYMGRAD"> F  </i>
   <i type="logical" name="LHFONE"> F  </i>
   <i type="logical" name="LRHFCALC"> F  </i>
   <i type="logical" name="LTHOMAS"> F  </i>
   <i type="logical" name="LMODELHF"> F  </i>
   <i type="logical" name="LFOCKACE"> F  </i>
   <i name="ENCUT4O">     -1.00000000</i>
   <i type="int" name="EXXOEP">     0</i>
   <i type="int" name="FOURORBIT">     0</i>
   <i name="AEXX">      0.00000000</i>
   <i name="HFALPHA">      0.00000000</i>
   <i name="MCALPHA">      0.00000000</i>
   <i name="ALDAX">      1.00000000</i>
   <i name="AGGAX">      1.00000000</i>
   <i name="ALDAC">      1.00000000</i>
   <i name="AGGAC">      1.00000000</i>
   <i type="int" name="NKREDX">     1</i>
   <i type="int" name="NKREDY">     1</i>
   <i type="int" name="NKREDZ">     1</i>
   <i type="logical" name="SHIFTRED"> F  </i>
   <i type="logical" name="ODDONLY"> F  </i>
   <i type="logical" name="EVENONLY"> F  </i>
   <i type="int" name="LMAXFOCK">     0</i>
   <i type="int" name="NMAXFOCKAE">     0</i>
   <i type="logical" name="LFOCKAEDFT"> F  </i>
   <i name="HFSCREEN">      0.00000000</i>
   <i name="HFSCREENC">      0.00000000</i>
   <i type="int" name="NBANDSGWLOW">     0</i>
  </separator>
  <separator name="vdW DFT" >
   <i type="logical" name="LUSE_VDW"> F  </i>
   <i type="int" name="IVDW_NL">     1</i>
   <i type="logical" name="LSPIN_VDW"> F  </i>
   <i name="Zab_VDW">     -0.84910000</i>
   <i name="PARAM1">      0.12340000</i>
   <i name="PARAM2">      1.00000000</i>
   <i name="PARAM3">      0.00000000</i>
  </separator>
  <separator name="model GW" >
   <i type="int" name="MODEL_GW">     0</i>
   <i name="MODEL_EPS0">      6.39733692</i>
   <i name="MODEL_ALPHA">      1.00000000</i>
  </separator>
  <separator name="linear response parameters" >
   <i type="logical" name="LEPSILON"> F  </i>
   <i type="logical" name="LRPA"> F  </i>
   <i type="logical" name="LNABLA"> F  </i>
   <i type="logical" name="LVEL"> F  </i>
   <i name="CSHIFT">      0.10000000</i>
   <i name="OMEGAMAX">     -1.00000000</i>
   <i name="DEG_THRESHOLD">      0.00200000</i>
   <i name="RTIME">     -0.10000000</i>
   <i name="WPLASMAI">      0.00000000</i>
   <v name="DFIELD">      0.00000000      0.00000000      0.00000000</v>
   <v name="WPLASMA">      0.00000000      0.00000000      0.00000000      0.00000000      0.00000000      0.00000000      0.00000000      0.00000000      0.00000000</v>
  </separator>
  <separator name="orbital magnetization" >
   <i type="logical" name="NUCIND"> F  </i>
   <v name="MAGPOS">      0.00000000      0.00000000      0.00000000</v>
   <i type="logical" name="LNICSALL"> T  </i>
   <i type="logical" name="ORBITALMAG"> F  </i>
   <i type="logical" name="LMAGBLOCH"> F  </i>
   <i type="logical" name="LCHIMAG"> F  </i>
   <i type="logical" name="LGAUGE"> T  </i>
   <i type="int" name="MAGATOM">     0</i>
   <v name="MAGDIPOL">      0.00000000      0.00000000      0.00000000</v>
   <v name="AVECCONST">      0.00000000      0.00000000      0.00000000</v>
  </separator>
  <separator name="response functions" >
   <i type="logical" name="LALL_IN_ONE"> F  </i>
   <i type="int" name="IALL_IN_ONE">    -1</i>
   <i type="int" name="NBANDS_WAVE">    -1</i>
   <i type="logical" name="LFINITE_TEMPERATURE"> F  </i>
   <i type="logical" name="LADDER"> F  </i>
   <i type="logical" name="LRPAFORCE"> F  </i>
   <i type="logical" name="LFXC"> F  </i>
   <i type="logical" name="LHARTREE"> T  </i>
   <i type="int" name="IBSE">     0</i>
   <v type="int" name="KPOINT">    -1     0     0     0</v>
   <i type="logical" name="LTCTC"> F  </i>
   <i type="logical" name="LTCTE"> F  </i>
   <i type="logical" name="LTETE"> F  </i>
   <i type="logical" name="LTRIPLET"> F  </i>
   <i type="logical" name="LFXCEPS"> F  </i>
   <i type="logical" name="LFXHEG"> F  </i>
   <i type="int" name="NATURALO">     2</i>
   <i type="logical" name="LHOLEGF"> F  </i>
   <i type="logical" name="L2ORDER"> F  </i>
   <i type="logical" name="LDMP1"> F  </i>
   <i type="logical" name="LMP2LT"> F  </i>
   <i type="logical" name="LSMP2LT"> F  </i>
   <i type="logical" name="LGWLF"> F  </i>
   <i name="ENCUTGW">     -1.60000002</i>
   <i name="ENCUTGWSOFT">     -1.60000002</i>
   <i name="ENCUTLF">     -1.00000000</i>
   <i type="logical" name="LESF_SPLINES"> F  </i>
   <i type="int" name="LMAXMP2">    -1</i>
   <i name="SCISSOR">      0.00000000</i>
   <i type="int" name="NOMEGA">     0</i>
   <i type="int" name="NOMEGAR">     0</i>
   <i type="int" name="NBANDSGW">    -1</i>
   <i type="int" name="NBANDSO">    -1</i>
   <i type="int" name="NBANDSV">    -1</i>
   <i type="int" name="NELMGW">     1</i>
   <i type="int" name="NELMHF">     1</i>
   <i type="int" name="DIM">     3</i>
   <i type="int" name="IESPILON">     4</i>
   <i type="int" name="ANTIRES">     0</i>
   <i name="OMEGAMAX">    -30.00000000</i>
   <i name="OMEGAMIN">    -30.00000000</i>
   <i name="OMEGATL">   -200.00000000</i>
   <i type="int" name="OMEGAGRID">     0</i>
   <i name="CSHIFT">     -0.10000000</i>
   <i type="logical" name="LSELFENERGY"> F  </i>
   <i type="logical" name="LSPECTRAL"> F  </i>
   <i type="logical" name="LSPECTRALGW"> F  </i>
   <i type="logical" name="LSINGLES"> F  </i>
   <i type="logical" name="LFERMIGW"> F  </i>
   <i type="logical" name="ODDONLYGW"> F  </i>
   <i type="logical" name="EVENONLYGW"> F  </i>
   <i type="int" name="NKREDLFX">     1</i>
   <i type="int" name="NKREDLFY">     1</i>
   <i type="int" name="NKREDLFZ">     1</i>
   <i type="int" name="MAXMEM">  2800</i>
   <i type="int" name="TELESCOPE">     0</i>
   <i type="int" name="NTAUPAR">    -1</i>
   <i type="int" name="NOMEGAPAR">    -1</i>
   <i name="DAMP_NEWTON">      0.80000001</i>
   <i name="LAMBDA">      1.00000000</i>
  </separator>
  <separator name="External order field" >
   <i name="OFIELD_KAPPA">      0.00000000</i>
   <v name="OFIELD_K">      0.00000000      0.00000000      0.00000000</v>
   <i name="OFIELD_Q6_NEAR">      0.00000000</i>
   <i name="OFIELD_Q6_FAR">      0.00000000</i>
   <i name="OFIELD_A">      0.00000000</i>
  </separator>
  <separator name="optional k-points parameters" >
   <i type="int" name="KPOINTS_OPT_MODE">     1</i>
   <i type="logical" name="LKPOINTS_OPT"> F  </i>
  </separator>
 </parameters>
 <atominfo>
  <atoms>     119 </atoms>
  <types>       2 </types>
  <array name="atoms" >
   <dimension dim="1">ion</dimension>
   <field type="string">element</field>
   <field type="int">atomtype</field>
   <set>
    <rc><c>Ga</c><c>   1</c></rc>
    <rc><c>Ga</c><c>   1</c></rc>
    <rc><c>Ga</c><c>   1</c></rc>
    <rc><c>Ga</c><c>   1</c></rc>
    <rc><c>Ga</c><c>   1</c></rc>
    <rc><c>Ga</c><c>   1</c></rc>
    <rc><c>Ga</c><c>   1</c></rc>
    <rc><c>Ga</c><c>   1</c></rc>
    <rc><c>Ga</c><c>   1</c></rc>
    <rc><c>Ga</c><c>   1</c></rc>
    <rc><c>Ga</c><c>   1</c></rc>
    <rc><c>Ga</c><c>   1</c></rc>
    <rc><c>Ga</c><c>   1</c></rc>
    <rc><c>Ga</c><c>   1</c></rc>
    <rc><c>Ga</c><c>   1</c></rc>
    <rc><c>Ga</c><c>   1</c></rc>
    <rc><c>Ga</c><c>   1</c></rc>
    <rc><c>Ga</c><c>   1</c></rc>
    <rc><c>Ga</c><c>   1</c></rc>
    <rc><c>Ga</c><c>   1</c></rc>
    <rc><c>Ga</c><c>   1</c></rc>
    <rc><c>Ga</c><c>   1</c></rc>
    <rc><c>Ga</c><c>   1</c></rc>
    <rc><c>Ga</c><c>   1</c></rc>
    <rc><c>Ga</c><c>   1</c></rc>
    <rc><c>Ga</c><c>   1</c></rc>
    <rc><c>Ga</c><c>   1</c></rc>
    <rc><c>Ga</c><c>   1</c></rc>
    <rc><c>Ga</c><c>   1</c></rc>
    <rc><c>Ga</c><c>   1</c></rc>
    <rc><c>Ga</c><c>   1</c></rc>
    <rc><c>Ga</c><c>   1</c></rc>
    <rc><c>Ga</c><c>   1</c></rc>
    <rc><c>Ga</c><c>   1</c></rc>
    <rc><c>Ga</c><c>   1</c></rc>
    <rc><c>Ga</c><c>   1</c></rc>
    <rc><c>Ga</c><c>   1</c></rc>
    <rc><c>Ga</c><c>   1</c></rc>
    <rc><c>Ga</c><c>   1</c></rc>
    <rc><c>Ga</c><c>   1</c></rc>
    <rc><c>Ga</c><c>   1</c></rc>
    <rc><c>Ga</c><c>   1</c></rc>
    <rc><c>Ga</c><c>   1</c></rc>
    <rc><c>Ga</c><c>   1</c></rc>
    <rc><c>Ga</c><c>   1</c></rc>
    <rc><c>Ga</c><c>   1</c></rc>
    <rc><c>Ga</c><c>   1</c></rc>
    <rc><c>O </c><c>   2</c></rc>
    <rc><c>O </c><c>   2</c></rc>
    <rc><c>O </c><c>   2</c></rc>
    <rc><c>O </c><c>   2</c></rc>
    <rc><c>O </c><c>   2</c></rc>
    <rc><c>O </c><c>   2</c></rc>
    <rc><c>O </c><c>   2</c></rc>
    <rc><c>O </c><c>   2</c></rc>
    <rc><c>O </c><c>   2</c></rc>
    <rc><c>O </c><c>   2</c></rc>
    <rc><c>O </c><c>   2</c></rc>
    <rc><c>O </c><c>   2</c></rc>
    <rc><c>O </c><c>   2</c></rc>
    <rc><c>O </c><c>   2</c></rc>
    <rc><c>O </c><c>   2</c></rc>
    <rc><c>O </c><c>   2</c></rc>
    <rc><c>O </c><c>   2</c></rc>
    <rc><c>O </c><c>   2</c></rc>
    <rc><c>O </c><c>   2</c></rc>
    <rc><c>O </c><c>   2</c></rc>
    <rc><c>O </c><c>   2</c></rc>
    <rc><c>O </c><c>   2</c></rc>
    <rc><c>O </c><c>   2</c></rc>
    <rc><c>O </c><c>   2</c></rc>
    <rc><c>O </c><c>   2</c></rc>
    <rc><c>O </c><c>   2</c></rc>
    <rc><c>O </c><c>   2</c></rc>
    <rc><c>O </c><c>   2</c></rc>
    <rc><c>O </c><c>   2</c></rc>
    <rc><c>O </c><c>   2</c></rc>
    <rc><c>O </c><c>   2</c></rc>
    <rc><c>O </c><c>   2</c></rc>
    <rc><c>O </c><c>   2</c></rc>
    <rc><c>O </c><c>   2</c></rc>
    <rc><c>O </c><c>   2</c></rc>
    <rc><c>O </c><c>   2</c></rc>
    <rc><c>O </c><c>   2</c></rc>
    <rc><c>O </c><c>   2</c></rc>
    <rc><c>O </c><c>   2</c></rc>
    <rc><c>O </c><c>   2</c></rc>
    <rc><c>O </c><c>   2</c></rc>
    <rc><c>O </c><c>   2</c></rc>
    <rc><c>O </c><c>   2</c></rc>
    <rc><c>O </c><c>   2</c></rc>
    <rc><c>O </c><c>   2</c></rc>
    <rc><c>O </c><c>   2</c></rc>
    <rc><c>O </c><c>   2</c></rc>
    <rc><c>O </c><c>   2</c></rc>
    <rc><c>O </c><c>   2</c></rc>
    <rc><c>O </c><c>   2</c></rc>
    <rc><c>O </c><c>   2</c></rc>
    <rc><c>O </c><c>   2</c></rc>
    <rc><c>O </c><c>   2</c></rc>
    <rc><c>O </c><c>   2</c></rc>
    <rc><c>O </c><c>   2</c></rc>
    <rc><c>O </c><c>   2</c></rc>
    <rc><c>O </c><c>   2</c></rc>
    <rc><c>O </c><c>   2</c></rc>
    <rc><c>O </c><c>   2</c></rc>
    <rc><c>O </c><c>   2</c></rc>
    <rc><c>O </c><c>   2</c></rc>
    <rc><c>O </c><c>   2</c></rc>
    <rc><c>O </c><c>   2</c></rc>
    <rc><c>O </c><c>   2</c></rc>
    <rc><c>O </c><c>   2</c></rc>
    <rc><c>O </c><c>   2</c></rc>
    <rc><c>O </c><c>   2</c></rc>
    <rc><c>O </c><c>   2</c></rc>
    <rc><c>O </c><c>   2</c></rc>
    <rc><c>O </c><c>   2</c></rc>
    <rc><c>O </c><c>   2</c></rc>
    <rc><c>O </c><c>   2</c></rc>
   </set>
  </array>
  <array name="atomtypes" >
   <dimension dim="1">type</dimension>
   <field type="int">atomspertype</field>
   <field type="string">element</field>
   <field>mass</field>
   <field>valence</field>
   <field type="string">pseudopotential</field>
   <set>
    <rc><c>  47</c><c>Ga</c><c>     69.72300000</c><c>     13.00000000</c><c>  PAW_PBE Ga_d 06Jul2010                </c></rc>
    <rc><c>  72</c><c>O </c><c>     16.00000000</c><c>      6.00000000</c><c>  PAW_PBE O 08Apr2002                   </c></rc>
   </set>
  </array>
 </atominfo>
 <structure name="initialpos" >
  <crystal>
   <varray name="basis" >
    <v>       0.00000000      12.28047342       0.00000000 </v>
    <v>       9.14270205       0.00000000       0.00000000 </v>
    <v>       0.00000000      -2.76826177     -11.30069772 </v>
   </varray>
   <i name="volume">   1268.80515525 </i>
   <varray name="rec_basis" >
    <v>       0.00000000       0.08143009      -0.01994742 </v>
    <v>       0.10937686      -0.00000000       0.00000000 </v>
    <v>       0.00000000       0.00000000      -0.08849011 </v>
   </varray>
  </crystal>
  <varray name="positions" >
   <v>       0.65883830       0.00000000       0.15736517 </v>
   <v>       0.65883830       0.00000000       0.65736517 </v>
   <v>       0.65883830       0.33333333       0.15736517 </v>
   <v>       0.65883830       0.33333333       0.65736517 </v>
   <v>       0.65883830       0.66666667       0.15736517 </v>
   <v>       0.65883830       0.66666667       0.65736517 </v>
   <v>       0.84116170       0.16666667       0.34263483 </v>
   <v>       0.84116170       0.16666667       0.84263483 </v>
   <v>       0.84116170       0.50000000       0.34263483 </v>
   <v>       0.84116170       0.50000000       0.84263483 </v>
   <v>       0.84116170       0.83333333       0.34263483 </v>
   <v>       0.84116170       0.83333333       0.84263483 </v>
   <v>       0.59047440       0.16666667       0.39739300 </v>
   <v>       0.59047440       0.16666667       0.89739300 </v>
   <v>       0.59047440       0.50000000       0.39739300 </v>
   <v>       0.59047440       0.50000000       0.89739300 </v>
   <v>       0.59047440       0.83333333       0.39739300 </v>
   <v>       0.59047440       0.83333333       0.89739300 </v>
   <v>       0.90952560       0.00000000       0.10260700 </v>
   <v>       0.90952560       0.00000000       0.60260700 </v>
   <v>       0.90952560       0.33333333       0.10260700 </v>
   <v>       0.90952560       0.33333333       0.60260700 </v>
   <v>       0.90952560       0.66666667       0.10260700 </v>
   <v>       0.90952560       0.66666667       0.60260700 </v>
   <v>       0.15883830       0.16666667       0.15736517 </v>
   <v>       0.15883830       0.16666667       0.65736517 </v>
   <v>       0.15883830       0.50000000       0.15736517 </v>
   <v>       0.15883830       0.50000000       0.65736517 </v>
   <v>       0.15883830       0.83333333       0.15736517 </v>
   <v>       0.15883830       0.83333333       0.65736517 </v>
   <v>       0.34116170       0.00000000       0.34263483 </v>
   <v>       0.34116170       0.00000000       0.84263483 </v>
   <v>       0.34116170       0.33333333       0.34263483 </v>
   <v>       0.34116170       0.33333333       0.84263483 </v>
   <v>       0.34116170       0.66666667       0.34263483 </v>
   <v>       0.34116170       0.66666667       0.84263483 </v>
   <v>       0.09047440       0.00000000       0.39739300 </v>
   <v>       0.09047440       0.00000000       0.89739300 </v>
   <v>       0.09047440       0.33333333       0.89739300 </v>
   <v>       0.09047440       0.66666667       0.39739300 </v>
   <v>       0.09047440       0.66666667       0.89739300 </v>
   <v>       0.40952560       0.16666667       0.10260700 </v>
   <v>       0.40952560       0.16666667       0.60260700 </v>
   <v>       0.40952560       0.50000000       0.10260700 </v>
   <v>       0.40952560       0.50000000       0.60260700 </v>
   <v>       0.40952560       0.83333333       0.10260700 </v>
   <v>       0.40952560       0.83333333       0.60260700 </v>
   <v>       0.99646913       0.16666667       0.12833205 </v>
   <v>       0.99646913       0.16666667       0.62833205 </v>
   <v>       0.99646913       0.50000000       0.12833205 </v>
   <v>       0.99646913       0.50000000       0.62833205 </v>
   <v>       0.99646913       0.83333333       0.12833205 </v>
   <v>       0.99646913       0.83333333       0.62833205 </v>
   <v>       0.50353087       0.00000000       0.37166795 </v>
   <v>       0.50353087       0.00000000       0.87166795 </v>
   <v>       0.50353087       0.33333333       0.37166795 </v>
   <v>       0.50353087       0.33333333       0.87166795 </v>
   <v>       0.50353087       0.66666667       0.37166795 </v>
   <v>       0.50353087       0.66666667       0.87166795 </v>
   <v>       0.67337106       0.16666667       0.28161508 </v>
   <v>       0.67337106       0.16666667       0.78161508 </v>
   <v>       0.67337106       0.50000000       0.28161508 </v>
   <v>       0.67337106       0.50000000       0.78161508 </v>
   <v>       0.67337106       0.83333333       0.28161508 </v>
   <v>       0.67337106       0.83333333       0.78161508 </v>
   <v>       0.82662894       0.00000000       0.21838492 </v>
   <v>       0.82662894       0.00000000       0.71838492 </v>
   <v>       0.82662894       0.33333333       0.21838492 </v>
   <v>       0.82662894       0.33333333       0.71838492 </v>
   <v>       0.82662894       0.66666667       0.21838492 </v>
   <v>       0.82662894       0.66666667       0.71838492 </v>
   <v>       0.83549502       0.00000000       0.44542296 </v>
   <v>       0.83549502       0.00000000       0.94542296 </v>
   <v>       0.83549502       0.33333333       0.44542296 </v>
   <v>       0.83549502       0.33333333       0.94542296 </v>
   <v>       0.83549502       0.66666667       0.44542296 </v>
   <v>       0.83549502       0.66666667       0.94542296 </v>
   <v>       0.66450498       0.16666667       0.05457704 </v>
   <v>       0.66450498       0.16666667       0.55457704 </v>
   <v>       0.66450498       0.50000000       0.05457704 </v>
   <v>       0.66450498       0.50000000       0.55457704 </v>
   <v>       0.66450498       0.83333333       0.05457704 </v>
   <v>       0.66450498       0.83333333       0.55457704 </v>
   <v>       0.49646913       0.00000000       0.12833205 </v>
   <v>       0.49646913       0.00000000       0.62833205 </v>
   <v>       0.49646913       0.33333333       0.12833205 </v>
   <v>       0.49646913       0.33333333       0.62833205 </v>
   <v>       0.49646913       0.66666667       0.12833205 </v>
   <v>       0.49646913       0.66666667       0.62833205 </v>
   <v>       0.00353087       0.16666667       0.37166795 </v>
   <v>       0.00353087       0.16666667       0.87166795 </v>
   <v>       0.00353087       0.50000000       0.37166795 </v>
   <v>       0.00353087       0.50000000       0.87166795 </v>
   <v>       0.00353087       0.83333333       0.37166795 </v>
   <v>       0.00353087       0.83333333       0.87166795 </v>
   <v>       0.17337106       0.00000000       0.28161508 </v>
   <v>       0.17337106       0.00000000       0.78161508 </v>
   <v>       0.17337106       0.33333333       0.28161508 </v>
   <v>       0.17337106       0.33333333       0.78161508 </v>
   <v>       0.17337106       0.66666667       0.28161508 </v>
   <v>       0.17337106       0.66666667       0.78161508 </v>
   <v>       0.32662894       0.16666667       0.21838492 </v>
   <v>       0.32662894       0.16666667       0.71838492 </v>
   <v>       0.32662894       0.50000000       0.21838492 </v>
   <v>       0.32662894       0.50000000       0.71838492 </v>
   <v>       0.32662894       0.83333333       0.21838492 </v>
   <v>       0.32662894       0.83333333       0.71838492 </v>
   <v>       0.33549502       0.16666667       0.44542296 </v>
   <v>       0.33549502       0.16666667       0.94542296 </v>
   <v>       0.33549502       0.50000000       0.44542296 </v>
   <v>       0.33549502       0.50000000       0.94542296 </v>
   <v>       0.33549502       0.83333333       0.44542296 </v>
   <v>       0.33549502       0.83333333       0.94542296 </v>
   <v>       0.16450498       0.00000000       0.05457704 </v>
   <v>       0.16450498       0.00000000       0.55457704 </v>
   <v>       0.16450498       0.33333333       0.05457704 </v>
   <v>       0.16450498       0.33333333       0.55457704 </v>
   <v>       0.16450498       0.66666667       0.05457704 </v>
   <v>       0.16450498       0.66666667       0.55457704 </v>
  </varray>
 </structure>
 <calculation>
  <scstep>
   <time name="dav">    1.78    1.78</time>
   <time name="total">    1.91    1.91</time>
   <energy>
    <i name="alphaZ">   5383.97153279 </i>
    <i name="ewald"> -86367.96680372 </i>
    <i name="hartreedc"> -33685.20334286 </i>
    <i name="XCdc">   4100.54858968 </i>
    <i name="pawpsdc"> 100299.88141059 </i>
    <i name="pawaedc">-116106.37837638 </i>
    <i name="eentropy">     -0.00567691 </i>
    <i name="bandstr">  16119.10767577 </i>
    <i name="atom"> 132123.29149048 </i>
    <i name="e_fr_energy">  21867.24649944 </i>
    <i name="e_wo_entrp">  21867.25217635 </i>
    <i name="e_0_energy">  21867.24933789 </i>
   </energy>
  </scstep>
  <scstep>
   <time name="dav">    1.69    1.69</time>
   <time name="total">    1.69    1.69</time>
   <energy>
    <i name="e_fr_energy">   4858.23365049 </i>
    <i name="e_wo_entrp">   4858.24143777 </i>
    <i name="e_0_energy">   4858.23754413 </i>
   </energy>
  </scstep>
  <scstep>
   <time name="dav">    2.08    2.08</time>
   <time name="total">    2.08    2.08</time>
   <energy>
    <i name="e_fr_energy">   -139.45958862 </i>
    <i name="e_wo_entrp">   -139.44910946 </i>
    <i name="e_0_energy">   -139.45434904 </i>
   </energy>
  </scstep>
  <scstep>
   <time name="dav">    2.02    2.02</time>
   <time name="total">    2.02    2.02</time>
   <energy>
    <i name="e_fr_energy">   -764.29937568 </i>
    <i name="e_wo_entrp">   -764.29483140 </i>
    <i name="e_0_energy">   -764.29710354 </i>
   </energy>
  </scstep>
  <scstep>
   <time name="dav">    2.28    2.28</time>
   <time name="total">    2.56    2.56</time>
   <energy>
    <i name="e_fr_energy">   -806.28406474 </i>
    <i name="e_wo_entrp">   -806.27971004 </i>
    <i name="e_0_energy">   -806.28188739 </i>
   </energy>
  </scstep>
  <scstep>
   <time name="diag">    0.24    0.24</time>
   <time name="diis">    2.49    2.49</time>
   <time name="orth">    0.03    0.03</time>
   <time name="total">    3.15    3.15</time>
   <energy>
    <i name="e_fr_energy">   -698.52640085 </i>
    <i name="e_wo_entrp">   -698.52640033 </i>
    <i name="e_0_energy">   -698.52640059 </i>
   </energy>
  </scstep>
  <scstep>
   <time name="diag">    0.24    0.24</time>
   <time name="diis">    2.63    2.63</time>
   <time name="orth">    0.03    0.03</time>
   <time name="total">    3.29    3.29</time>
   <energy>
    <i name="e_fr_energy">   -702.52315186 </i>
    <i name="e_wo_entrp">   -702.52261612 </i>
    <i name="e_0_energy">   -702.52288399 </i>
   </energy>
  </scstep>
  <scstep>
   <time name="diag">    0.24    0.24</time>
   <time name="diis">    2.93    2.94</time>
   <time name="orth">    0.03    0.03</time>
   <time name="total">    3.59    3.60</time>
   <energy>
    <i name="e_fr_energy">   -700.54065652 </i>
    <i name="e_wo_entrp">   -700.49696847 </i>
    <i name="e_0_energy">   -700.51881249 </i>
   </energy>
  </scstep>
  <scstep>
   <time name="diag">    0.24    0.24</time>
   <time name="diis">    2.89    2.90</time>
   <time name="orth">    0.03    0.03</time>
   <time name="total">    3.55    3.57</time>
   <energy>
    <i name="e_fr_energy">   -698.69520629 </i>
    <i name="e_wo_entrp">   -698.66584891 </i>
    <i name="e_0_energy">   -698.68052760 </i>
   </energy>
  </scstep>
  <scstep>
   <time name="diag">    0.24    0.24</time>
   <time name="diis">    2.22    2.22</time>
   <time name="orth">    0.03    0.03</time>
   <time name="total">    2.89    2.89</time>
   <energy>
    <i name="e_fr_energy">   -699.78325012 </i>
    <i name="e_wo_entrp">   -699.74623393 </i>
    <i name="e_0_energy">   -699.76474203 </i>
   </energy>
  </scstep>
  <scstep>
   <time name="diag">    0.24    0.24</time>
   <time name="diis">    2.60    2.60</time>
   <time name="orth">    0.03    0.03</time>
   <time name="total">    3.27    3.27</time>
   <energy>
    <i name="e_fr_energy">   -698.79103240 </i>
    <i name="e_wo_entrp">   -698.79100982 </i>
    <i name="e_0_energy">   -698.79102111 </i>
   </energy>
  </scstep>
  <scstep>
   <time name="diag">    0.24    0.24</time>
   <time name="diis">    2.62    2.62</time>
   <time name="orth">    0.03    0.03</time>
   <time name="total">    3.29    3.29</time>
   <energy>
    <i name="e_fr_energy">   -698.75942927 </i>
    <i name="e_wo_entrp">   -698.75927558 </i>
    <i name="e_0_energy">   -698.75935243 </i>
   </energy>
  </scstep>
  <scstep>
   <time name="diag">    0.24    0.24</time>
   <time name="diis">    2.66    2.66</time>
   <time name="orth">    0.03    0.03</time>
   <time name="total">    3.33    3.33</time>
   <energy>
    <i name="e_fr_energy">   -698.39071562 </i>
    <i name="e_wo_entrp">   -698.35654700 </i>
    <i name="e_0_energy">   -698.37363131 </i>
   </energy>
  </scstep>
  <scstep>
   <time name="diag">    0.24    0.24</time>
   <time name="diis">    2.97    2.97</time>
   <time name="orth">    0.03    0.03</time>
   <time name="total">    3.64    3.64</time>
   <energy>
    <i name="e_fr_energy">   -698.39298421 </i>
    <i name="e_wo_entrp">   -698.36054046 </i>
    <i name="e_0_energy">   -698.37676234 </i>
   </energy>
  </scstep>
  <scstep>
   <time name="diag">    0.24    0.24</time>
   <time name="diis">    2.46    2.46</time>
   <time name="orth">    0.03    0.03</time>
   <time name="total">    3.13    3.13</time>
   <energy>
    <i name="e_fr_energy">   -698.33280078 </i>
    <i name="e_wo_entrp">   -698.30815202 </i>
    <i name="e_0_energy">   -698.32047640 </i>
   </energy>
  </scstep>
  <scstep>
   <time name="diag">    0.24    0.24</time>
   <time name="diis">    2.67    2.67</time>
   <time name="orth">    0.03    0.03</time>
   <time name="total">    3.34    3.34</time>
   <energy>
    <i name="e_fr_energy">   -698.49455406 </i>
    <i name="e_wo_entrp">   -698.49316269 </i>
    <i name="e_0_energy">   -698.49385838 </i>
   </energy>
  </scstep>
  <scstep>
   <time name="diag">    0.24    0.24</time>
   <time name="diis">    2.73    2.73</time>
   <time name="orth">    0.03    0.03</time>
   <time name="total">    3.41    3.41</time>
   <energy>
    <i name="e_fr_energy">   -698.38072735 </i>
    <i name="e_wo_entrp">   -698.37166632 </i>
    <i name="e_0_energy">   -698.37619683 </i>
   </energy>
  </scstep>
  <scstep>
   <time name="diag">    0.24    0.24</time>
   <time name="diis">    2.70    2.69</time>
   <time name="orth">    0.03    0.03</time>
   <time name="total">    3.37    3.37</time>
   <energy>
    <i name="e_fr_energy">   -698.21426177 </i>
    <i name="e_wo_entrp">   -698.17834609 </i>
    <i name="e_0_energy">   -698.19630393 </i>
   </energy>
  </scstep>
  <scstep>
   <time name="diag">    0.24    0.24</time>
   <time name="diis">    2.66    2.66</time>
   <time name="orth">    0.03    0.03</time>
   <time name="total">    3.34    3.34</time>
   <energy>
    <i name="e_fr_energy">   -698.24951934 </i>
    <i name="e_wo_entrp">   -698.21337918 </i>
    <i name="e_0_energy">   -698.23144926 </i>
   </energy>
  </scstep>
  <scstep>
   <time name="diag">    0.24    0.24</time>
   <time name="diis">    2.77    2.77</time>
   <time name="orth">    0.03    0.03</time>
   <time name="total">    3.45    3.45</time>
   <energy>
    <i name="e_fr_energy">   -698.25812977 </i>
    <i name="e_wo_entrp">   -698.22883037 </i>
    <i name="e_0_energy">   -698.24348007 </i>
   </energy>
  </scstep>
  <scstep>
   <time name="diag">    0.24    0.24</time>
   <time name="diis">    2.57    2.57</time>
   <time name="orth">    0.03    0.03</time>
   <time name="total">    3.25    3.25</time>
   <energy>
    <i name="e_fr_energy">   -698.24192628 </i>
    <i name="e_wo_entrp">   -698.20507118 </i>
    <i name="e_0_energy">   -698.22349873 </i>
   </energy>
  </scstep>
  <scstep>
   <time name="diag">    0.24    0.24</time>
   <time name="diis">    2.32    2.32</time>
   <time name="orth">    0.03    0.03</time>
   <time name="total">    3.01    3.01</time>
   <energy>
    <i name="e_fr_energy">   -698.24617112 </i>
    <i name="e_wo_entrp">   -698.20969992 </i>
    <i name="e_0_energy">   -698.22793552 </i>
   </energy>
  </scstep>
  <scstep>
   <time name="diag">    0.24    0.24</time>
   <time name="diis">    2.20    2.20</time>
   <time name="orth">    0.03    0.03</time>
   <time name="total">    2.89    2.89</time>
   <energy>
    <i name="e_fr_energy">   -698.24541787 </i>
    <i name="e_wo_entrp">   -698.20936241 </i>
    <i name="e_0_energy">   -698.22739014 </i>
   </energy>
  </scstep>
  <scstep>
   <time name="diag">    0.24    0.24</time>
   <time name="diis">    2.06    2.06</time>
   <time name="orth">    0.03    0.03</time>
   <time name="total">    2.75    2.75</time>
   <energy>
    <i name="e_fr_energy">   -698.24399796 </i>
    <i name="e_wo_entrp">   -698.20816920 </i>
    <i name="e_0_energy">   -698.22608358 </i>
   </energy>
  </scstep>
  <scstep>
   <time name="diag">    0.24    0.24</time>
   <time name="diis">    2.18    2.18</time>
   <time name="orth">    0.03    0.03</time>
   <time name="total">    2.88    2.88</time>
   <energy>
    <i name="e_fr_energy">   -698.24406787 </i>
    <i name="e_wo_entrp">   -698.20891873 </i>
    <i name="e_0_energy">   -698.22649330 </i>
   </energy>
  </scstep>
  <scstep>
   <time name="diag">    0.24    0.24</time>
   <time name="diis">    2.05    2.05</time>
   <time name="orth">    0.03    0.03</time>
   <time name="total">    2.75    2.75</time>
   <energy>
    <i name="e_fr_energy">   -698.24447525 </i>
    <i name="e_wo_entrp">   -698.20935159 </i>
    <i name="e_0_energy">   -698.22691342 </i>
   </energy>
  </scstep>
  <scstep>
   <time name="diag">    0.24    0.24</time>
   <time name="diis">    1.64    1.64</time>
   <time name="orth">    0.03    0.03</time>
   <time name="total">    2.34    2.36</time>
   <energy>
    <i name="e_fr_energy">   -698.24458518 </i>
    <i name="e_wo_entrp">   -698.20928380 </i>
    <i name="e_0_energy">   -698.22693449 </i>
   </energy>
  </scstep>
  <scstep>
   <time name="diag">    0.24    0.24</time>
   <time name="diis">    1.86    1.86</time>
   <time name="orth">    0.03    0.03</time>
   <time name="total">    2.56    2.57</time>
   <energy>
    <i name="e_fr_energy">   -698.24420367 </i>
    <i name="e_wo_entrp">   -698.20854977 </i>
    <i name="e_0_energy">   -698.22637672 </i>
   </energy>
  </scstep>
  <scstep>
   <time name="diag">    0.24    0.24</time>
   <time name="diis">    1.59    1.59</time>
   <time name="orth">    0.03    0.03</time>
   <time name="total">    2.30    2.30</time>
   <energy>
    <i name="e_fr_energy">   -698.24424782 </i>
    <i name="e_wo_entrp">   -698.20868248 </i>
    <i name="e_0_energy">   -698.22646515 </i>
   </energy>
  </scstep>
  <scstep>
   <time name="diag">    0.24    0.24</time>
   <time name="diis">    1.20    1.19</time>
   <time name="orth">    0.03    0.03</time>
   <time name="total">    1.58    1.58</time>
   <energy>
    <i name="alphaZ">   5383.97153279 </i>
    <i name="ewald"> -86367.96680372 </i>
    <i name="hartreedc"> -34136.15980658 </i>
    <i name="XCdc">   4164.23144815 </i>
    <i name="pawpsdc"> 117884.75639089 </i>
    <i name="pawaedc">-133945.15607782 </i>
    <i name="eentropy">     -0.03564251 </i>
    <i name="bandstr">  -5805.17678145 </i>
    <i name="atom"> 132123.29149048 </i>
    <i name="e_fr_energy">   -698.24424978 </i>
    <i name="e_wo_entrp">   -698.20860727 </i>
    <i name="e_0_energy">   -698.22642853 </i>
   </energy>
  </scstep>
  <structure>
   <crystal>
    <varray name="basis" >
     <v>       0.00000000      12.28047342       0.00000000 </v>
     <v>       9.14270205       0.00000000       0.00000000 </v>
     <v>       0.00000000      -2.76826177     -11.30069772 </v>
    </varray>
    <i name="volume">   1268.80515525 </i>
    <varray name="rec_basis" >
     <v>       0.00000000       0.08143009      -0.01994742 </v>
     <v>       0.10937686      -0.00000000       0.00000000 </v>
     <v>       0.00000000       0.00000000      -0.08849011 </v>
    </varray>
   </crystal>
   <varray name="positions" >
    <v>       0.65883830       0.00000000       0.15736517 </v>
    <v>       0.65883830       0.00000000       0.65736517 </v>
    <v>       0.65883830       0.33333333       0.15736517 </v>
    <v>       0.65883830       0.33333333       0.65736517 </v>
    <v>       0.65883830       0.66666667       0.15736517 </v>
    <v>       0.65883830       0.66666667       0.65736517 </v>
    <v>       0.84116170       0.16666667       0.34263483 </v>
    <v>       0.84116170       0.16666667       0.84263483 </v>
    <v>       0.84116170       0.50000000       0.34263483 </v>
    <v>       0.84116170       0.50000000       0.84263483 </v>
    <v>       0.84116170       0.83333333       0.34263483 </v>
    <v>       0.84116170       0.83333333       0.84263483 </v>
    <v>       0.59047440       0.16666667       0.39739300 </v>
    <v>       0.59047440       0.16666667       0.89739300 </v>
    <v>       0.59047440       0.50000000       0.39739300 </v>
    <v>       0.59047440       0.50000000       0.89739300 </v>
    <v>       0.59047440       0.83333333       0.39739300 </v>
    <v>       0.59047440       0.83333333       0.89739300 </v>
    <v>       0.90952560       0.00000000       0.10260700 </v>
    <v>       0.90952560       0.00000000       0.60260700 </v>
    <v>       0.90952560       0.33333333       0.10260700 </v>
    <v>       0.90952560       0.33333333       0.60260700 </v>
    <v>       0.90952560       0.66666667       0.10260700 </v>
    <v>       0.90952560       0.66666667       0.60260700 </v>
    <v>       0.15883830       0.16666667       0.15736517 </v>
    <v>       0.15883830       0.16666667       0.65736517 </v>
    <v>       0.15883830       0.50000000       0.15736517 </v>
    <v>       0.15883830       0.50000000       0.65736517 </v>
    <v>       0.15883830       0.83333333       0.15736517 </v>
    <v>       0.15883830       0.83333333       0.65736517 </v>
    <v>       0.34116170       0.00000000       0.34263483 </v>
    <v>       0.34116170       0.00000000       0.84263483 </v>
    <v>       0.34116170       0.33333333       0.34263483 </v>
    <v>       0.34116170       0.33333333       0.84263483 </v>
    <v>       0.34116170       0.66666667       0.34263483 </v>
    <v>       0.34116170       0.66666667       0.84263483 </v>
    <v>       0.09047440       0.00000000       0.39739300 </v>
    <v>       0.09047440       0.00000000       0.89739300 </v>
    <v>       0.09047440       0.33333333       0.89739300 </v>
    <v>       0.09047440       0.66666667       0.39739300 </v>
    <v>       0.09047440       0.66666667       0.89739300 </v>
    <v>       0.40952560       0.16666667       0.10260700 </v>
    <v>       0.40952560       0.16666667       0.60260700 </v>
    <v>       0.40952560       0.50000000       0.10260700 </v>
    <v>       0.40952560       0.50000000       0.60260700 </v>
    <v>       0.40952560       0.83333333       0.10260700 </v>
    <v>       0.40952560       0.83333333       0.60260700 </v>
    <v>       0.99646913       0.16666667       0.12833205 </v>
    <v>       0.99646913       0.16666667       0.62833205 </v>
    <v>       0.99646913       0.50000000       0.12833205 </v>
    <v>       0.99646913       0.50000000       0.62833205 </v>
    <v>       0.99646913       0.83333333       0.12833205 </v>
    <v>       0.99646913       0.83333333       0.62833205 </v>
    <v>       0.50353087       0.00000000       0.37166795 </v>
    <v>       0.50353087       0.00000000       0.87166795 </v>
    <v>       0.50353087       0.33333333       0.37166795 </v>
    <v>       0.50353087       0.33333333       0.87166795 </v>
    <v>       0.50353087       0.66666667       0.37166795 </v>
    <v>       0.50353087       0.66666667       0.87166795 </v>
    <v>       0.67337106       0.16666667       0.28161508 </v>
    <v>       0.67337106       0.16666667       0.78161508 </v>
    <v>       0.67337106       0.50000000       0.28161508 </v>
    <v>       0.67337106       0.50000000       0.78161508 </v>
    <v>       0.67337106       0.83333333       0.28161508 </v>
    <v>       0.67337106       0.83333333       0.78161508 </v>
    <v>       0.82662894       0.00000000       0.21838492 </v>
    <v>       0.82662894       0.00000000       0.71838492 </v>
    <v>       0.82662894       0.33333333       0.21838492 </v>
    <v>       0.82662894       0.33333333       0.71838492 </v>
    <v>       0.82662894       0.66666667       0.21838492 </v>
    <v>       0.82662894       0.66666667       0.71838492 </v>
    <v>       0.83549502       0.00000000       0.44542296 </v>
    <v>       0.83549502       0.00000000       0.94542296 </v>
    <v>       0.83549502       0.33333333       0.44542296 </v>
    <v>       0.83549502       0.33333333       0.94542296 </v>
    <v>       0.83549502       0.66666667       0.44542296 </v>
    <v>       0.83549502       0.66666667       0.94542296 </v>
    <v>       0.66450498       0.16666667       0.05457704 </v>
    <v>       0.66450498       0.16666667       0.55457704 </v>
    <v>       0.66450498       0.50000000       0.05457704 </v>
    <v>       0.66450498       0.50000000       0.55457704 </v>
    <v>       0.66450498       0.83333333       0.05457704 </v>
    <v>       0.66450498       0.83333333       0.55457704 </v>
    <v>       0.49646913       0.00000000       0.12833205 </v>
    <v>       0.49646913       0.00000000       0.62833205 </v>
    <v>       0.49646913       0.33333333       0.12833205 </v>
    <v>       0.49646913       0.33333333       0.62833205 </v>
    <v>       0.49646913       0.66666667       0.12833205 </v>
    <v>       0.49646913       0.66666667       0.62833205 </v>
    <v>       0.00353087       0.16666667       0.37166795 </v>
    <v>       0.00353087       0.16666667       0.87166795 </v>
    <v>       0.00353087       0.50000000       0.37166795 </v>
    <v>       0.00353087       0.50000000       0.87166795 </v>
    <v>       0.00353087       0.83333333       0.37166795 </v>
    <v>       0.00353087       0.83333333       0.87166795 </v>
    <v>       0.17337106       0.00000000       0.28161508 </v>
    <v>       0.17337106       0.00000000       0.78161508 </v>
    <v>       0.17337106       0.33333333       0.28161508 </v>
    <v>       0.17337106       0.33333333       0.78161508 </v>
    <v>       0.17337106       0.66666667       0.28161508 </v>
    <v>       0.17337106       0.66666667       0.78161508 </v>
    <v>       0.32662894       0.16666667       0.21838492 </v>
    <v>       0.32662894       0.16666667       0.71838492 </v>
    <v>       0.32662894       0.50000000       0.21838492 </v>
    <v>       0.32662894       0.50000000       0.71838492 </v>
    <v>       0.32662894       0.83333333       0.21838492 </v>
    <v>       0.32662894       0.83333333       0.71838492 </v>
    <v>       0.33549502       0.16666667       0.44542296 </v>
    <v>       0.33549502       0.16666667       0.94542296 </v>
    <v>       0.33549502       0.50000000       0.44542296 </v>
    <v>       0.33549502       0.50000000       0.94542296 </v>
    <v>       0.33549502       0.83333333       0.44542296 </v>
    <v>       0.33549502       0.83333333       0.94542296 </v>
    <v>       0.16450498       0.00000000       0.05457704 </v>
    <v>       0.16450498       0.00000000       0.55457704 </v>
    <v>       0.16450498       0.33333333       0.05457704 </v>
    <v>       0.16450498       0.33333333       0.55457704 </v>
    <v>       0.16450498       0.66666667       0.05457704 </v>
    <v>       0.16450498       0.66666667       0.55457704 </v>
   </varray>
  </structure>
  <varray name="forces" >
   <v>       0.02828109       0.09221480      -0.09247812 </v>
   <v>       0.01304994      -0.05654277       0.11470986 </v>
   <v>       0.00000000       0.18929732      -0.13885259 </v>
   <v>       0.00000000      -0.06819087       0.12900205 </v>
   <v>      -0.02828109       0.09221480      -0.09247812 </v>
   <v>      -0.01304994      -0.05654277       0.11470986 </v>
   <v>       0.30975240       1.31362225      -0.29621482 </v>
   <v>       0.01394926       0.11153166      -0.04778227 </v>
   <v>      -0.30975240       1.31362225      -0.29621482 </v>
   <v>      -0.01394926       0.11153166      -0.04778227 </v>
   <v>       0.00000000       0.46317941      -0.15102991 </v>
   <v>       0.00000000       0.09795012      -0.05286558 </v>
   <v>       0.04461230      -0.04185531       0.02451369 </v>
   <v>       0.00939715      -0.00966564      -0.05447857 </v>
   <v>      -0.04461230      -0.04185531       0.02451369 </v>
   <v>      -0.00939715      -0.00966564      -0.05447857 </v>
   <v>       0.00000000      -0.02351773       0.01773957 </v>
   <v>       0.00000000      -0.00652121      -0.04419286 </v>
   <v>       0.09128412       0.11127029      -0.28153704 </v>
   <v>       0.12442124       0.25015490       0.24035572 </v>
   <v>       0.00000000       0.22579954      -0.77266445 </v>
   <v>       0.00000000       0.55706936       0.58052014 </v>
   <v>      -0.09128412       0.11127029      -0.28153704 </v>
   <v>      -0.12442124       0.25015490       0.24035572 </v>
   <v>       0.73773145      -0.38587800      -1.16585247 </v>
   <v>       0.59421518      -0.07784239       1.17186501 </v>
   <v>      -0.73773145      -0.38587800      -1.16585247 </v>
   <v>      -0.59421518      -0.07784239       1.17186501 </v>
   <v>       0.00000000      -0.15235887      -0.37184070 </v>
   <v>       0.00000000      -0.01240189       0.50105153 </v>
   <v>       0.27033612      -0.35187126      -0.11277844 </v>
   <v>       0.03792378      -0.05561507       0.07845363 </v>
   <v>       0.00000000      -1.57992945      -0.13147795 </v>
   <v>       0.00000000      -0.13638839       0.13649601 </v>
   <v>      -0.27033612      -0.35187126      -0.11277844 </v>
   <v>      -0.03792378      -0.05561507       0.07845363 </v>
   <v>       1.45562098      -0.34576565       0.09261344 </v>
   <v>       0.02370936       0.05397671      -0.05914419 </v>
   <v>       0.00000000       0.15487720      -0.05359045 </v>
   <v>      -1.45562098      -0.34576565       0.09261344 </v>
   <v>      -0.02370936       0.05397671      -0.05914419 </v>
   <v>       0.01994422      -0.17804671      -0.14186274 </v>
   <v>       0.07722674      -0.27930807       0.43376310 </v>
   <v>      -0.01994422      -0.17804671      -0.14186274 </v>
   <v>      -0.07722674      -0.27930807       0.43376310 </v>
   <v>       0.00000000      -0.09113775      -0.08540720 </v>
   <v>       0.00000000      -0.11596246       0.18198626 </v>
   <v>      -0.20479664      -0.26480791       0.18882666 </v>
   <v>      -0.17588730      -0.32526837      -0.18944091 </v>
   <v>       0.20479664      -0.26480791       0.18882666 </v>
   <v>       0.17588730      -0.32526837      -0.18944091 </v>
   <v>       0.00000000      -0.09117909       0.11415102 </v>
   <v>       0.00000000      -0.14234822      -0.12254804 </v>
   <v>      -0.05644196       0.14538831       0.01546737 </v>
   <v>      -0.01028530       0.04642048       0.01413774 </v>
   <v>       0.00000000       0.18059357       0.01072474 </v>
   <v>       0.00000000       0.05433642       0.00898999 </v>
   <v>       0.05644196       0.14538831       0.01546737 </v>
   <v>       0.01028530       0.04642048       0.01413774 </v>
   <v>      -0.04523189      -0.13584391       0.06044202 </v>
   <v>      -0.00937039      -0.04565726      -0.01716925 </v>
   <v>       0.04523189      -0.13584391       0.06044202 </v>
   <v>       0.00937039      -0.04565726      -0.01716925 </v>
   <v>       0.00000000      -0.10724216       0.05322934 </v>
   <v>       0.00000000      -0.04762733      -0.01393474 </v>
   <v>      -0.18490537      -0.23443032       0.27748974 </v>
   <v>      -0.02272295      -0.09652710      -0.09651732 </v>
   <v>       0.00000000      -0.33987533       0.35094578 </v>
   <v>       0.00000000      -0.11223206      -0.12930931 </v>
   <v>       0.18490537      -0.23443032       0.27748974 </v>
   <v>       0.02272295      -0.09652710      -0.09651732 </v>
   <v>      -0.21828358      -0.48778379      -0.20025127 </v>
   <v>      -0.02094976      -0.21804120       0.08694558 </v>
   <v>       0.00000000      -0.61528683      -0.20230440 </v>
   <v>       0.00000000      -0.20673768       0.10185507 </v>
   <v>       0.21828358      -0.48778379      -0.20025127 </v>
   <v>       0.02094976      -0.21804120       0.08694558 </v>
   <v>      -0.02514541       0.12357925       0.15025341 </v>
   <v>      -0.02220278       0.15176120      -0.04358453 </v>
   <v>       0.02514541       0.12357925       0.15025341 </v>
   <v>       0.02220278       0.15176120      -0.04358453 </v>
   <v>       0.00000000       0.13321452       0.13406124 </v>
   <v>       0.00000000       0.15264363      -0.03294324 </v>
   <v>      -0.03611081       0.06752408       0.00914527 </v>
   <v>      -0.06374741       0.12132968      -0.13145405 </v>
   <v>       0.00000000       0.07478498       0.01938641 </v>
   <v>       0.00000000       0.15602325      -0.15599804 </v>
   <v>       0.03611081       0.06752408       0.00914527 </v>
   <v>       0.06374741       0.12132968      -0.13145405 </v>
   <v>      -0.23509810      -0.34637278       0.12031618 </v>
   <v>      -0.03073337      -0.09365434       0.04427263 </v>
   <v>       0.23509810      -0.34637278       0.12031618 </v>
   <v>       0.03073337      -0.09365434       0.04427263 </v>
   <v>       0.00000000      -0.13747228       0.06408672 </v>
   <v>       0.00000000      -0.04772492       0.04585518 </v>
   <v>      -0.35856556       0.25996024       0.24034010 </v>
   <v>      -0.03148962      -0.02109279      -0.14084351 </v>
   <v>       0.00000000       0.76750167       1.23591668 </v>
   <v>       0.00000000      -0.08862330      -0.57248478 </v>
   <v>       0.35856556       0.25996024       0.24034010 </v>
   <v>       0.03148962      -0.02109279      -0.14084351 </v>
   <v>      -0.24805213       0.51160648       0.23972339 </v>
   <v>      -0.05238026       0.24446238      -0.25943420 </v>
   <v>       0.24805213       0.51160648       0.23972339 </v>
   <v>       0.05238026       0.24446238      -0.25943420 </v>
   <v>       0.00000000       0.23379757       0.09784142 </v>
   <v>       0.00000000       0.14135772      -0.16742585 </v>
   <v>      -0.28169975       0.27319382      -0.24825423 </v>
   <v>      -0.02606495      -0.10614989      -0.03386177 </v>
   <v>       0.28169975       0.27319382      -0.24825423 </v>
   <v>       0.02606495      -0.10614989      -0.03386177 </v>
   <v>       0.00000000      -0.04080434      -0.11219512 </v>
   <v>       0.00000000      -0.12731631      -0.03470755 </v>
   <v>      -0.03858787       0.19411704       0.19915305 </v>
   <v>      -0.34023452       0.25132934      -0.35876054 </v>
   <v>       0.00000000       0.27802570       0.56876302 </v>
   <v>       0.00000000       0.09958174      -0.66900412 </v>
   <v>       0.03858787       0.19411704       0.19915305 </v>
   <v>       0.34023452       0.25132934      -0.35876054 </v>
  </varray>
  <varray name="stress" >
   <v>      72.91562202       0.00000000       0.00000000 </v>
   <v>       0.00000000      67.99668055      -1.23249796 </v>
   <v>       0.00000000      -1.23249876      65.94366844 </v>
  </varray>
  <energy>
   <i name="e_fr_energy">   -698.24424978 </i>
   <i name="e_wo_entrp">   -698.20860727 </i>
   <i name="e_0_energy">   -698.22642853 </i>
  </energy>
  <time name="totalsc">   96.39   96.44</time>
 </calculation>
 <calculation>
  <scstep>
   <time name="dav">    1.93    1.93</time>
   <time name="total">    2.32    2.32</time>
   <energy>
    <i name="alphaZ">   5383.97153279 </i>
    <i name="ewald"> -86455.72609295 </i>
    <i name="hartreedc"> -34048.90720198 </i>
    <i name="XCdc">   4164.38172555 </i>
    <i name="pawpsdc"> 117884.72934511 </i>
    <i name="pawaedc">-133945.11588496 </i>
    <i name="eentropy">     -0.03924744 </i>
    <i name="bandstr">  -5803.18870809 </i>
    <i name="atom"> 132123.29149048 </i>
    <i name="e_fr_energy">   -696.60304151 </i>
    <i name="e_wo_entrp">   -696.56379406 </i>
    <i name="e_0_energy">   -696.58341778 </i>
   </energy>
  </scstep>
  <scstep>
   <time name="diag">    0.24    0.24</time>
   <time name="diis">    2.61    2.61</time>
   <time name="orth">    0.03    0.03</time>
   <time name="total">    3.27    3.27</time>
   <energy>
    <i name="e_fr_energy">   -698.47337178 </i>
    <i name="e_wo_entrp">   -698.46245368 </i>
    <i name="e_0_energy">   -698.46791273 </i>
   </energy>
  </scstep>
  <scstep>
   <time name="diag">    0.24    0.24</time>
   <time name="diis">    2.73    2.73</time>
   <time name="orth">    0.03    0.03</time>
   <time name="total">    3.39    3.39</time>
   <energy>
    <i name="e_fr_energy">   -698.85764097 </i>
    <i name="e_wo_entrp">   -698.84408282 </i>
    <i name="e_0_energy">   -698.85086190 </i>
   </energy>
  </scstep>
  <scstep>
   <time name="diag">    0.24    0.24</time>
   <time name="diis">    3.01    3.01</time>
   <time name="orth">    0.03    0.03</time>
   <time name="total">    3.67    3.67</time>
   <energy>
    <i name="e_fr_energy">   -698.89013861 </i>
    <i name="e_wo_entrp">   -698.84740537 </i>
    <i name="e_0_energy">   -698.86877199 </i>
   </energy>
  </scstep>
  <scstep>
   <time name="diag">    0.24    0.24</time>
   <time name="diis">    2.97    2.97</time>
   <time name="orth">    0.03    0.03</time>
   <time name="total">    3.63    3.63</time>
   <energy>
    <i name="e_fr_energy">   -698.76296962 </i>
    <i name="e_wo_entrp">   -698.72660995 </i>
    <i name="e_0_energy">   -698.74478978 </i>
   </energy>
  </scstep>
  <scstep>
   <time name="diag">    0.24    0.24</time>
   <time name="diis">    2.54    2.54</time>
   <time name="orth">    0.03    0.03</time>
   <time name="total">    3.20    3.20</time>
   <energy>
    <i name="e_fr_energy">   -698.70898638 </i>
    <i name="e_wo_entrp">   -698.66838721 </i>
    <i name="e_0_energy">   -698.68868680 </i>
   </energy>
  </scstep>
  <scstep>
   <time name="diag">    0.24    0.24</time>
   <time name="diis">    2.53    2.52</time>
   <time name="orth">    0.03    0.03</time>
   <time name="total">    3.19    3.19</time>
   <energy>
    <i name="e_fr_energy">   -698.66861354 </i>
    <i name="e_wo_entrp">   -698.62708215 </i>
    <i name="e_0_energy">   -698.64784785 </i>
   </energy>
  </scstep>
  <scstep>
   <time name="diag">    0.24    0.24</time>
   <time name="diis">    2.82    2.82</time>
   <time name="orth">    0.03    0.03</time>
   <time name="total">    3.49    3.49</time>
   <energy>
    <i name="e_fr_energy">   -698.66689161 </i>
    <i name="e_wo_entrp">   -698.62692780 </i>
    <i name="e_0_energy">   -698.64690971 </i>
   </energy>
  </scstep>
  <scstep>
   <time name="diag">    0.24    0.24</time>
   <time name="diis">    2.87    2.86</time>
   <time name="orth">    0.03    0.03</time>
   <time name="total">    3.53    3.53</time>
   <energy>
    <i name="e_fr_energy">   -698.66588376 </i>
    <i name="e_wo_entrp">   -698.62503557 </i>
    <i name="e_0_energy">   -698.64545967 </i>
   </energy>
  </scstep>
  <scstep>
   <time name="diag">    0.24    0.24</time>
   <time name="diis">    2.56    2.56</time>
   <time name="orth">    0.03    0.03</time>
   <time name="total">    3.23    3.23</time>
   <energy>
    <i name="e_fr_energy">   -698.66592867 </i>
    <i name="e_wo_entrp">   -698.62669763 </i>
    <i name="e_0_energy">   -698.64631315 </i>
   </energy>
  </scstep>
  <scstep>
   <time name="diag">    0.24    0.24</time>
   <time name="diis">    2.55    2.55</time>
   <time name="orth">    0.03    0.03</time>
   <time name="total">    3.22    3.22</time>
   <energy>
    <i name="e_fr_energy">   -698.66586954 </i>
    <i name="e_wo_entrp">   -698.62592986 </i>
    <i name="e_0_energy">   -698.64589970 </i>
   </energy>
  </scstep>
  <scstep>
   <time name="diag">    0.24    0.24</time>
   <time name="diis">    2.30    2.30</time>
   <time name="orth">    0.03    0.03</time>
   <time name="total">    2.97    2.97</time>
   <energy>
    <i name="e_fr_energy">   -698.66588418 </i>
    <i name="e_wo_entrp">   -698.62601973 </i>
    <i name="e_0_energy">   -698.64595195 </i>
   </energy>
  </scstep>
  <scstep>
   <time name="diag">    0.24    0.24</time>
   <time name="diis">    1.85    1.85</time>
   <time name="orth">    0.03    0.03</time>
   <time name="total">    2.23    2.23</time>
   <energy>
    <i name="alphaZ">   5383.97153279 </i>
    <i name="ewald"> -86455.72609295 </i>
    <i name="hartreedc"> -34056.05725640 </i>
    <i name="XCdc">   4164.49795872 </i>
    <i name="pawpsdc"> 117966.52107534 </i>
    <i name="pawaedc">-134027.82152091 </i>
    <i name="eentropy">     -0.03989041 </i>
    <i name="bandstr">  -5797.30318852 </i>
    <i name="atom"> 132123.29149048 </i>
    <i name="e_fr_energy">   -698.66589186 </i>
    <i name="e_wo_entrp">   -698.62600144 </i>
    <i name="e_0_energy">   -698.64594665 </i>
   </energy>
  </scstep>
  <structure>
   <crystal>
    <varray name="basis" >
     <v>       0.00000000      12.28047342       0.00000000 </v>
     <v>       9.14270205       0.00000000       0.00000000 </v>
     <v>       0.00000000      -2.76826177     -11.30069772 </v>
    </varray>
    <i name="volume">   1268.80515525 </i>
    <varray name="rec_basis" >
     <v>       0.00000000       0.08143009      -0.01994742 </v>
     <v>       0.10937686      -0.00000000       0.00000000 </v>
     <v>       0.00000000       0.00000000      -0.08849011 </v>
    </varray>
   </crystal>
   <varray name="positions" >
    <v>       0.65928955       0.00014923       0.15775996 </v>
    <v>       0.65850579       0.00006886       0.65687547 </v>
    <v>       0.65971556       0.33333333       0.15795793 </v>
    <v>       0.65844628       0.33333333       0.65681446 </v>
    <v>       0.65928955       0.66651744       0.15775996 </v>
    <v>       0.65850579       0.66659781       0.65687547 </v>
    <v>       0.84660719       0.16830112       0.34389937 </v>
    <v>       0.84164582       0.16674027       0.84283881 </v>
    <v>       0.84660719       0.49836555       0.34389937 </v>
    <v>       0.84164582       0.49992639       0.84283881 </v>
    <v>       0.84312659       0.83333333       0.34327958 </v>
    <v>       0.84159736       0.83333333       0.84286051 </v>
    <v>       0.59028639       0.16690207       0.39728835 </v>
    <v>       0.59048886       0.16671625       0.89762557 </v>
    <v>       0.59028639       0.49976460       0.39728835 </v>
    <v>       0.59048886       0.49995041       0.89762557 </v>
    <v>       0.59036494       0.83333333       0.39731727 </v>
    <v>       0.59049131       0.83333333       0.89758166 </v>
    <v>       0.91023364       0.00048167       0.10380888 </v>
    <v>       0.91027701       0.00065652       0.60158092 </v>
    <v>       0.91115618       0.33333333       0.10590550 </v>
    <v>       0.91115535       0.33333333       0.60012876 </v>
    <v>       0.91023364       0.66618499       0.10380888 </v>
    <v>       0.91027701       0.66601014       0.60158092 </v>
    <v>       0.15844433       0.17055940       0.16234219 </v>
    <v>       0.15740480       0.16980212       0.65236248 </v>
    <v>       0.15844433       0.49610726       0.16234219 </v>
    <v>       0.15740480       0.49686455       0.65236248 </v>
    <v>       0.15859760       0.83333333       0.15895256 </v>
    <v>       0.15830741       0.83333333       0.65522618 </v>
    <v>       0.33988794       0.00142646       0.34311628 </v>
    <v>       0.34086772       0.00020011       0.84229991 </v>
    <v>       0.33508162       0.33333333       0.34319611 </v>
    <v>       0.34049456       0.33333333       0.84205213 </v>
    <v>       0.33988794       0.66524020       0.34311628 </v>
    <v>       0.34086772       0.66646656       0.84229991 </v>
    <v>       0.08902697       0.00768077       0.39699763 </v>
    <v>       0.09074336       0.00012511       0.89764549 </v>
    <v>       0.09113439       0.33333333       0.89762178 </v>
    <v>       0.08902697       0.65898589       0.39699763 </v>
    <v>       0.09074336       0.66654156       0.89764549 </v>
    <v>       0.40896268       0.16677190       0.10321261 </v>
    <v>       0.40801095       0.16707416       0.60075527 </v>
    <v>       0.40896268       0.49989476       0.10321261 </v>
    <v>       0.40801095       0.49959250       0.60075527 </v>
    <v>       0.40924976       0.83333333       0.10297160 </v>
[...]
       <r>   -10.0560     0.0000   144.0000 </r>
       <r>    -9.9462     0.0000   144.0000 </r>
       <r>    -9.8364     0.0000   144.0000 </r>
       <r>    -9.7266     0.0000   144.0000 </r>
       <r>    -9.6167     0.0000   144.0000 </r>
       <r>    -9.5069     0.0000   144.0000 </r>
       <r>    -9.3971     2.2522   144.2474 </r>
       <r>    -9.2873   135.5069   159.1292 </r>
       <r>    -9.1775   435.0435   206.9072 </r>
       <r>    -9.0676   667.8294   280.2506 </r>
       <r>    -8.9578   668.9040   353.7120 </r>
       <r>    -8.8480   598.8185   419.4764 </r>
       <r>    -8.7382   478.7146   472.0505 </r>
       <r>    -8.6283   387.8713   514.6480 </r>
       <r>    -8.5185   289.1147   546.3996 </r>
       <r>    -8.4087   147.9314   562.6459 </r>
       <r>    -8.2989    98.9783   573.5161 </r>
       <r>    -8.1890   115.3723   586.1867 </r>
       <r>    -8.0792   104.9463   597.7122 </r>
       <r>    -7.9694    91.6927   607.7822 </r>
       <r>    -7.8596    45.3421   612.7619 </r>
       <r>    -7.7497    11.1775   613.9894 </r>
       <r>    -7.6399     0.0963   614.0000 </r>
       <r>    -7.5301     0.0000   614.0000 </r>
       <r>    -7.4203     0.0000   614.0000 </r>
       <r>    -7.3105     0.0000   614.0000 </r>
       <r>    -7.2006     0.0000   614.0000 </r>
       <r>    -7.0908     0.0000   614.0000 </r>
       <r>    -6.9810     0.0000   614.0000 </r>
       <r>    -6.8712     0.0000   614.0000 </r>
       <r>    -6.7613     0.0000   614.0000 </r>
       <r>    -6.6515     0.0000   614.0000 </r>
       <r>    -6.5417     0.0000   614.0000 </r>
       <r>    -6.4319     0.0000   614.0000 </r>
       <r>    -6.3220     0.0000   614.0000 </r>
       <r>    -6.2122     0.0000   614.0000 </r>
       <r>    -6.1024     0.0000   614.0000 </r>
       <r>    -5.9926     0.0000   614.0000 </r>
       <r>    -5.8827     0.0000   614.0000 </r>
       <r>    -5.7729     0.0000   614.0000 </r>
       <r>    -5.6631     0.0000   614.0000 </r>
       <r>    -5.5533     0.0000   614.0000 </r>
       <r>    -5.4435     0.0000   614.0000 </r>
       <r>    -5.3336     0.0000   614.0000 </r>
       <r>    -5.2238     0.0000   614.0000 </r>
       <r>    -5.1140     0.0000   614.0000 </r>
       <r>    -5.0042     0.0000   614.0000 </r>
       <r>    -4.8943     0.0000   614.0000 </r>
       <r>    -4.7845     0.0000   614.0000 </r>
       <r>    -4.6747     0.0000   614.0000 </r>
       <r>    -4.5649     0.0000   614.0000 </r>
       <r>    -4.4550     0.0000   614.0000 </r>
       <r>    -4.3452     0.0000   614.0000 </r>
       <r>    -4.2354     0.0000   614.0000 </r>
       <r>    -4.1256     0.0000   614.0000 </r>
       <r>    -4.0157     0.0000   614.0000 </r>
       <r>    -3.9059     0.0000   614.0000 </r>
       <r>    -3.7961     0.0000   614.0000 </r>
       <r>    -3.6863     0.0000   614.0000 </r>
       <r>    -3.5765     0.0000   614.0000 </r>
       <r>    -3.4666     0.2198   614.0241 </r>
       <r>    -3.3568     4.1049   614.4750 </r>
       <r>    -3.2470    10.1368   615.5882 </r>
       <r>    -3.1372    18.2290   617.5902 </r>
       <r>    -3.0273    29.2244   620.7997 </r>
       <r>    -2.9175    36.2545   624.7813 </r>
       <r>    -2.8077    26.1702   627.6554 </r>
       <r>    -2.6979    48.1472   632.9431 </r>
       <r>    -2.5880    36.2054   636.9193 </r>
       <r>    -2.4782    53.8252   642.8306 </r>
       <r>    -2.3684    58.0427   649.2050 </r>
       <r>    -2.2586    50.5417   654.7557 </r>
       <r>    -2.1487    46.0526   659.8134 </r>
       <r>    -2.0389    47.1145   664.9877 </r>
       <r>    -1.9291    51.4550   670.6386 </r>
       <r>    -1.8193    34.1245   674.3863 </r>
       <r>    -1.7095    35.4644   678.2811 </r>
       <r>    -1.5996    23.7706   680.8917 </r>
       <r>    -1.4898    34.2361   684.6516 </r>
       <r>    -1.3800    29.3846   687.8787 </r>
       <r>    -1.2702    34.2027   691.6350 </r>
       <r>    -1.1603    40.5768   696.0913 </r>
       <r>    -1.0505    39.1130   700.3868 </r>
       <r>    -0.9407    38.2088   704.5830 </r>
       <r>    -0.8309    33.0654   708.2144 </r>
       <r>    -0.7210    38.3637   712.4276 </r>
       <r>    -0.6112    39.0082   716.7116 </r>
       <r>    -0.5014    51.9024   722.4118 </r>
       <r>    -0.3916    37.2913   726.5072 </r>
       <r>    -0.2817    40.4351   730.9479 </r>
       <r>    -0.1719    52.6624   736.7315 </r>
       <r>    -0.0621    75.2461   744.9953 </r>
       <r>     0.0477    73.2078   753.0353 </r>
       <r>     0.1575    56.0838   759.1946 </r>
       <r>     0.2674    74.7131   767.3998 </r>
       <r>     0.3772    62.7627   774.2927 </r>
       <r>     0.4870    54.6276   780.2921 </r>
       <r>     0.5968    60.9338   786.9840 </r>
       <r>     0.7067    74.9479   795.2151 </r>
       <r>     0.8165    85.5617   804.6118 </r>
       <r>     0.9263    70.0498   812.3049 </r>
       <r>     1.0361    81.4332   821.2482 </r>
       <r>     1.1460    78.0657   829.8216 </r>
       <r>     1.2558    63.7453   836.8224 </r>
       <r>     1.3656    69.2647   844.4293 </r>
       <r>     1.4754    69.2375   852.0332 </r>
       <r>     1.5853    85.7213   861.4474 </r>
       <r>     1.6951    82.4498   870.5023 </r>
       <r>     1.8049    70.7798   878.2756 </r>
       <r>     1.9147    57.9918   884.6445 </r>
       <r>     2.0245    46.3616   889.7361 </r>
       <r>     2.1344    92.5836   899.9039 </r>
       <r>     2.2442    97.9866   910.6652 </r>
       <r>     2.3540    89.2096   920.4625 </r>
       <r>     2.4638    98.5896   931.2899 </r>
       <r>     2.5737    98.8872   942.1501 </r>
       <r>     2.6835   102.2925   953.3842 </r>
       <r>     2.7933   112.8767   965.7807 </r>
       <r>     2.9031   135.0468   980.6120 </r>
       <r>     3.0130   115.3097   993.2758 </r>
       <r>     3.1228   116.3783  1006.0569 </r>
       <r>     3.2326    92.2892  1016.1924 </r>
       <r>     3.3424    64.8029  1023.3093 </r>
       <r>     3.4523    48.4653  1028.6319 </r>
       <r>     3.5621    55.0718  1034.6801 </r>
       <r>     3.6719    38.4103  1038.8984 </r>
       <r>     3.7817    39.3146  1043.2161 </r>
       <r>     3.8915    20.1861  1045.4330 </r>
       <r>     4.0014     5.1470  1045.9983 </r>
       <r>     4.1112     0.0158  1046.0000 </r>
       <r>     4.2210     0.0000  1046.0000 </r>
       <r>     4.3308     0.0000  1046.0000 </r>
       <r>     4.4407     0.0000  1046.0000 </r>
       <r>     4.5505     0.0000  1046.0000 </r>
       <r>     4.6603     0.0000  1046.0000 </r>
       <r>     4.7701     0.0000  1046.0000 </r>
       <r>     4.8800     0.0000  1046.0000 </r>
       <r>     4.9898     0.0000  1046.0000 </r>
       <r>     5.0996     0.0000  1046.0000 </r>
       <r>     5.2094     0.0000  1046.0000 </r>
       <r>     5.3193     0.0000  1046.0000 </r>
       <r>     5.4291     0.0000  1046.0000 </r>
       <r>     5.5389     0.0000  1046.0000 </r>
       <r>     5.6487     0.0000  1046.0000 </r>
       <r>     5.7585     0.0000  1046.0000 </r>
       <r>     5.8684     0.0115  1046.0013 </r>
       <r>     5.9782     1.5886  1046.1757 </r>
       <r>     6.0880     0.6760  1046.2500 </r>
       <r>     6.1978     0.0003  1046.2500 </r>
       <r>     6.3077     0.0000  1046.2500 </r>
       <r>     6.4175     0.0000  1046.2500 </r>
       <r>     6.5273     0.0000  1046.2500 </r>
       <r>     6.6371     0.0052  1046.2506 </r>
       <r>     6.7470     1.4994  1046.4152 </r>
       <r>     6.8568     3.4042  1046.7891 </r>
       <r>     6.9666     3.1866  1047.1391 </r>
       <r>     7.0764     1.3555  1047.2879 </r>
       <r>     7.1863     4.4935  1047.7814 </r>
       <r>     7.2961     3.9101  1048.2108 </r>
       <r>     7.4059     0.3566  1048.2500 </r>
       <r>     7.5157     0.2795  1048.2807 </r>
       <r>     7.6256     6.0637  1048.9466 </r>
       <r>     7.7354     4.4718  1049.4377 </r>
       <r>     7.8452     7.7118  1050.2847 </r>
       <r>     7.9550     5.2008  1050.8559 </r>
       <r>     8.0648     7.8321  1051.7160 </r>
       <r>     8.1747     3.4999  1052.1004 </r>
       <r>     8.2845     4.8426  1052.6322 </r>
       <r>     8.3943    13.1142  1054.0724 </r>
       <r>     8.5041     5.0255  1054.6244 </r>
       <r>     8.6140     5.3538  1055.2123 </r>
       <r>     8.7238     7.6751  1056.0552 </r>
       <r>     8.8336    12.2822  1057.4041 </r>
       <r>     8.9434    16.3350  1059.1981 </r>
       <r>     9.0533    10.7342  1060.3770 </r>
       <r>     9.1631     8.6114  1061.3227 </r>
       <r>     9.2729    20.0430  1063.5239 </r>
       <r>     9.3827    28.8332  1066.6904 </r>
       <r>     9.4926    29.6721  1069.9491 </r>
       <r>     9.6024    42.7707  1074.6464 </r>
       <r>     9.7122    45.1278  1079.6025 </r>
       <r>     9.8220    39.3434  1083.9233 </r>
       <r>     9.9318    34.4654  1087.7084 </r>
       <r>    10.0417    34.8973  1091.5409 </r>
       <r>    10.1515    28.3449  1094.6539 </r>
       <r>    10.2613    26.0897  1097.5192 </r>
       <r>    10.3711    36.6053  1101.5393 </r>
       <r>    10.4810    49.1774  1106.9401 </r>
       <r>    10.5908    41.1135  1111.4553 </r>
       <r>    10.7006    32.5911  1115.0346 </r>
       <r>    10.8104    33.0209  1118.6611 </r>
       <r>    10.9203    32.4684  1122.2269 </r>
       <r>    11.0301    33.3731  1125.8920 </r>
       <r>    11.1399    36.9641  1129.9516 </r>
       <r>    11.2497    41.6603  1134.5268 </r>
       <r>    11.3596    34.6044  1138.3272 </r>
       <r>    11.4694    40.5203  1142.7773 </r>
       <r>    11.5792    38.4322  1146.9981 </r>
       <r>    11.6890    21.2389  1149.3306 </r>
       <r>    11.7988     8.1123  1150.2215 </r>
       <r>    11.9087    16.5806  1152.0425 </r>
       <r>    12.0185    32.0414  1155.5614 </r>
       <r>    12.1283    33.1000  1159.1965 </r>
       <r>    12.2381    38.8055  1163.4583 </r>
       <r>    12.3480    43.4065  1168.2253 </r>
       <r>    12.4578    42.9351  1172.9406 </r>
       <r>    12.5676    36.6738  1176.9683 </r>
       <r>    12.6774    33.5465  1180.6525 </r>
       <r>    12.7873    33.5733  1184.3396 </r>
       <r>    12.8971    35.2614  1188.2121 </r>
       <r>    13.0069    48.4282  1193.5307 </r>
       <r>    13.1167    30.9871  1196.9338 </r>
       <r>    13.2266    41.9405  1201.5399 </r>
       <r>    13.3364    45.5093  1206.5378 </r>
       <r>    13.4462    41.3429  1211.0783 </r>
       <r>    13.5560    39.9949  1215.4707 </r>
       <r>    13.6658    36.0103  1219.4254 </r>
       <r>    13.7757    38.7679  1223.6831 </r>
       <r>    13.8855    35.8962  1227.6253 </r>
       <r>    13.9953    28.5474  1230.7605 </r>
       <r>    14.1051    32.2535  1234.3027 </r>
       <r>    14.2150    19.7005  1236.4662 </r>
       <r>    14.3248    31.6722  1239.9446 </r>
       <r>    14.4346    39.2542  1244.2556 </r>
       <r>    14.5444    39.1163  1248.5515 </r>
       <r>    14.6543    27.9218  1251.6180 </r>
       <r>    14.7641     3.4233  1251.9940 </r>
       <r>    14.8739     0.0550  1252.0000 </r>
       <r>    14.9837     0.0000  1252.0000 </r>
       <r>    15.0936     0.0000  1252.0000 </r>
       <r>    15.2034     0.0000  1252.0000 </r>
       <r>    15.3132     0.0000  1252.0000 </r>
       <r>    15.4230     0.0000  1252.0000 </r>
       <r>    15.5328     0.0000  1252.0000 </r>
       <r>    15.6427     0.0000  1252.0000 </r>
       <r>    15.7525     0.0000  1252.0000 </r>
       <r>    15.8623     0.0000  1252.0000 </r>
       <r>    15.9721     0.0000  1252.0000 </r>
       <r>    16.0820     0.0000  1252.0000 </r>
       <r>    16.1918     0.0000  1252.0000 </r>
      </set>
     </set>
    </array>
   </total>
  </dos>
 </calculation>
 <structure name="finalpos" >
  <crystal>
   <varray name="basis" >
    <v>       0.00000000      12.28047342       0.00000000 </v>
    <v>       9.14270205       0.00000000       0.00000000 </v>
    <v>       0.00000000      -2.76826177     -11.30069772 </v>
   </varray>
   <i name="volume">   1268.80515525 </i>
   <varray name="rec_basis" >
    <v>       0.00000000       0.08143009      -0.01994742 </v>
    <v>       0.10937686      -0.00000000       0.00000000 </v>
    <v>       0.00000000       0.00000000      -0.08849011 </v>
   </varray>
  </crystal>
  <varray name="positions" >
   <v>       0.65950564      -0.00012940       0.15732782 </v>
   <v>       0.65920166       0.00012126       0.65715483 </v>
   <v>       0.65915564       0.33333333       0.15709118 </v>
   <v>       0.65975602       0.33333333       0.65682507 </v>
   <v>       0.65950564       0.66679606       0.15732782 </v>
   <v>       0.65920166       0.66654541       0.65715483 </v>
   <v>       0.84368769       0.16772090       0.34445246 </v>
   <v>       0.84124712       0.16736567       0.84448056 </v>
   <v>       0.84368769       0.49894577       0.34445246 </v>
   <v>       0.84124712       0.49930099       0.84448056 </v>
   <v>       0.84413649       0.83333333       0.34329151 </v>
   <v>       0.84168509       0.83333333       0.84348867 </v>
   <v>       0.59020058       0.16794783       0.39695254 </v>
   <v>       0.58978447       0.16666301       0.89761410 </v>
   <v>       0.59020058       0.49871883       0.39695254 </v>
   <v>       0.58978447       0.50000366       0.89761410 </v>
   <v>       0.59354475       0.83333333       0.39794029 </v>
   <v>       0.59022782       0.83333333       0.89744497 </v>
   <v>       0.90868348      -0.00081195       0.10257350 </v>
   <v>       0.90760717      -0.00047091       0.60154297 </v>
   <v>       0.91164212       0.33333333       0.10780010 </v>
   <v>       0.90896863       0.33333333       0.59968866 </v>
   <v>       0.90868348       0.66747861       0.10257350 </v>
   <v>       0.90760717       0.66713757       0.60154297 </v>
   <v>       0.16075526       0.16902173       0.16163983 </v>
   <v>       0.15759195       0.16889464       0.65002564 </v>
   <v>       0.16075526       0.49764494       0.16163983 </v>
   <v>       0.15759195       0.49777203       0.65002564 </v>
   <v>       0.15925978       0.83333333       0.15845546 </v>
   <v>       0.15766232       0.83333333       0.65431470 </v>
   <v>       0.34222450      -0.00032916       0.34313768 </v>
   <v>       0.33898565       0.00009187       0.84206641 </v>
   <v>       0.33423214       0.33333333       0.34639779 </v>
   <v>       0.33868561       0.33333333       0.84265137 </v>
   <v>       0.34222450       0.66699582       0.34313768 </v>
   <v>       0.33898565       0.66657480       0.84206641 </v>
   <v>       0.08866343       0.00871014       0.39589971 </v>
   <v>       0.09237471       0.00008299       0.89842851 </v>
   <v>       0.09040357       0.33333333       0.89694441 </v>
   <v>       0.08866343       0.65795653       0.39589971 </v>
   <v>       0.09237471       0.66658367       0.89842851 </v>
   <v>       0.40933474       0.16628299       0.10241828 </v>
   <v>       0.40966946       0.16676794       0.60306629 </v>
   <v>       0.40933474       0.50038368       0.10241828 </v>
   <v>       0.40966946       0.49989872       0.60306629 </v>
   <v>       0.40887644       0.83333333       0.10184165 </v>
   <v>       0.40934894       0.83333333       0.60247151 </v>
   <v>       0.99659370       0.16504344       0.12955511 </v>
   <v>       0.99502256       0.16601432       0.62634869 </v>
   <v>       0.99659370       0.50162323       0.12955511 </v>
   <v>       0.99502256       0.50065235       0.62634869 </v>
   <v>       0.99632168       0.83333333       0.12683215 </v>
   <v>       0.99522874       0.83333333       0.62779921 </v>
   <v>       0.50546252      -0.00088130       0.37312199 </v>
   <v>       0.50246438      -0.00017677       0.87209662 </v>
   <v>       0.50136161       0.33333333       0.37270729 </v>
   <v>       0.50233698       0.33333333       0.87251843 </v>
   <v>       0.50546252       0.66754797       0.37312199 </v>
   <v>       0.50246438       0.66684344       0.87209662 </v>
   <v>       0.67267785       0.16639006       0.28039059 </v>
   <v>       0.67307697       0.16736396       0.78178687 </v>
   <v>       0.67267785       0.50027660       0.28039059 </v>
   <v>       0.67307697       0.49930271       0.78178687 </v>
   <v>       0.67335193       0.83333333       0.27993820 </v>
   <v>       0.67285196       0.83333333       0.78128114 </v>
   <v>       0.82657149      -0.00140301       0.21834837 </v>
   <v>       0.82716367       0.00017368       0.71986519 </v>
   <v>       0.82520628       0.33333333       0.21884405 </v>
   <v>       0.82815580       0.33333333       0.71957319 </v>
   <v>       0.82657149       0.66806968       0.21834837 </v>
   <v>       0.82716367       0.66649299       0.71986519 </v>
   <v>       0.82938711      -0.00120314       0.44570030 </v>
   <v>       0.83242345      -0.00010860       0.94588709 </v>
   <v>       0.82605774       0.33333333       0.44597021 </v>
   <v>       0.83581692       0.33333333       0.94882473 </v>
   <v>       0.82938711       0.66786980       0.44570030 </v>
   <v>       0.83242345       0.66677527       0.94588709 </v>
   <v>       0.66722998       0.16651132       0.05371531 </v>
   <v>       0.66669463       0.16661915       0.55448038 </v>
   <v>       0.66722998       0.50015535       0.05371531 </v>
   <v>       0.66669463       0.50004752       0.55448038 </v>
   <v>       0.66754975       0.83333333       0.05349405 </v>
   <v>       0.66833230       0.83333333       0.55533313 </v>
   <v>       0.49692493      -0.00058608       0.12585356 </v>
   <v>       0.49712768      -0.00021426       0.62924797 </v>
   <v>       0.49655722       0.33333333       0.12617654 </v>
   <v>       0.49724046       0.33333333       0.62919096 </v>
   <v>       0.49692493       0.66725274       0.12585356 </v>
   <v>       0.49712768       0.66688093       0.62924797 </v>
   <v>       0.00093721       0.17101579       0.37098801 </v>
   <v>       0.00333265       0.16599557       0.87253757 </v>
   <v>       0.00093721       0.49565087       0.37098801 </v>
   <v>       0.00333265       0.50067110       0.87253757 </v>
   <v>       0.00576637       0.83333333       0.37356113 </v>
   <v>       0.00419804       0.83333333       0.87312755 </v>
   <v>       0.17373867      -0.00088524       0.28137826 </v>
   <v>       0.17175495       0.00038062       0.77938856 </v>
   <v>       0.17549691       0.33333333       0.27291109 </v>
   <v>       0.17193350       0.33333333       0.78103451 </v>
   <v>       0.17373867       0.66755191       0.28137826 </v>
   <v>       0.17175495       0.66628604       0.77938856 </v>
   <v>       0.33049739       0.16265833       0.22007396 </v>
   <v>       0.32768552       0.16663135       0.71953007 </v>
   <v>       0.33049739       0.50400834       0.22007396 </v>
   <v>       0.32768552       0.50003532       0.71953007 </v>
   <v>       0.32839893       0.83333333       0.21931272 </v>
   <v>       0.32676720       0.83333333       0.71866639 </v>
   <v>       0.33548154       0.16417608       0.44689050 </v>
   <v>       0.33232679       0.16626949       0.94570690 </v>
   <v>       0.33548154       0.50249058       0.44689050 </v>
   <v>       0.33232679       0.50039718       0.94570690 </v>
   <v>       0.33508359       0.83333333       0.44591601 </v>
   <v>       0.33118345       0.83333333       0.94528369 </v>
   <v>       0.16700028       0.00107724       0.05555075 </v>
   <v>       0.16714177      -0.00049991       0.55298523 </v>
   <v>       0.16878754       0.33333333       0.05206405 </v>
   <v>       0.17148493       0.33333333       0.55518131 </v>
   <v>       0.16700028       0.66558943       0.05555075 </v>
   <v>       0.16714177       0.66716658       0.55298523 </v>
  </varray>
 </structure>
</modeling>
