 running    4 mpi-ranks, on    1 nodes
 distrk:  each k-point on    1 cores,    4 groups
 distr:  one band on    1 cores,    1 groups
 OpenACC runtime initialized ...    4 GPUs detected
 vasp.6.4.2 20Jul23 (build Nov 12 2023 22:16:35) complex                         
 POSCAR found type information on POSCAR GaO P 
 POSCAR found :  3 types and     119 ions
 scaLAPACK will be used selectively (only on CPU)
 LDA part: xc-table for Pade appr. of Perdew
 POSCAR, INCAR and KPOINTS ok, starting setup
 FFT: planning ... GRIDC
 FFT: planning ... GRID_SOFT
 FFT: planning ... GRID
 WAVECAR not read
 entering main loop
       N       E                     dE             d eps       ncg     rms          rms(c)
DAV:   1     0.223194815130E+05    0.22319E+05   -0.32007E+05 10128   0.282E+03
DAV:   2     0.501161645237E+04   -0.17308E+05   -0.16305E+05 10128   0.818E+02
DAV:   3    -0.362219286070E+02   -0.50478E+04   -0.47596E+04 13016   0.321E+02
DAV:   4    -0.675002096800E+03   -0.63878E+03   -0.62281E+03 12528   0.121E+02
DAV:   5    -0.720659164123E+03   -0.45657E+02   -0.45123E+02 14600   0.351E+01BRMIX: very serious problems
 the old and the new charge density differ
 old charge density:  1042.00000 new 1055.99974
BRMIX: very serious problems
 the old and the new charge density differ
BRMIX: very serious problems
 the old and the new charge density differ
 old charge density:  1042.00000 new 1055.99974
 old charge density:  1042.00000 new 1055.99974
BRMIX: very serious problems
 the old and the new charge density differ
 old charge density:  1042.00000 new 1055.99974
    0.645E+01
RMM:   6    -0.591133288521E+03    0.12953E+03   -0.43880E+02 13228   0.245E+01    0.161E+01
RMM:   7    -0.595045205403E+03   -0.39119E+01   -0.72106E+01 14152   0.103E+01    0.132E+01
RMM:   8    -0.594627414652E+03    0.41779E+00   -0.10740E+01 13079   0.535E+00    0.401E+00
RMM:   9    -0.594330050380E+03    0.29736E+00   -0.29122E+00 15236   0.217E+00    0.127E+00
RMM:  10    -0.594392086796E+03   -0.62036E-01   -0.10452E+00 13509   0.119E+00    0.893E-01
RMM:  11    -0.594393778865E+03   -0.16921E-02   -0.22260E-01 13864   0.767E-01    0.375E-01
RMM:  12    -0.594397614413E+03   -0.38355E-02   -0.62506E-02 15589   0.273E-01    0.223E-01
RMM:  13    -0.594398866918E+03   -0.12525E-02   -0.21134E-02 15495   0.137E-01    0.607E-02
RMM:  14    -0.594399763912E+03   -0.89699E-03   -0.10089E-02 13669   0.889E-02    0.448E-02
RMM:  15    -0.594400010501E+03   -0.24659E-03   -0.31110E-03 12946   0.481E-02    0.865E-03
RMM:  16    -0.594400169490E+03   -0.15899E-03   -0.15985E-03 11076   0.255E-02    0.393E-03
RMM:  17    -0.594400232336E+03   -0.62846E-04   -0.60203E-04 10252   0.171E-02    0.207E-03
RMM:  18    -0.594400268678E+03   -0.36342E-04   -0.35949E-04  9512   0.106E-02    0.218E-03
RMM:  19    -0.594400283458E+03   -0.14780E-04   -0.15171E-04  8685   0.765E-03    0.648E-04
RMM:  20    -0.594400293541E+03   -0.10083E-04   -0.92746E-05  7414   0.502E-03    0.504E-04
RMM:  21    -0.594400297774E+03   -0.42324E-05   -0.44281E-05  6299   0.368E-03
   1 F= -.59440030E+03 E0= -.59439114E+03  d E =-.594400E+03
 curvature:   0.00 expect dE= 0.000E+00 dE for cont linesearch  0.000E+00
 trial: gam= 0.00000 g(F)=  0.969E+01 g(S)=  0.000E+00 ort = 0.000E+00 (trialstep = 0.100E+01)
 search vector abs. value=  0.969E+01
 bond charge predicted
       N       E                     dE             d eps       ncg     rms          rms(c)
DAV:   1    -0.584848448687E+03    0.95518E+01   -0.15787E+03 11416   0.575E+01    0.171E+01
RMM:   2    -0.594559488171E+03   -0.97110E+01   -0.10680E+02 13690   0.201E+01    0.446E+00
RMM:   3    -0.596671781123E+03   -0.21123E+01   -0.23548E+01 15387   0.753E+00    0.691E+00
RMM:   4    -0.596719527221E+03   -0.47746E-01   -0.37838E+00 14876   0.288E+00    0.477E+00
RMM:   5    -0.596682163384E+03    0.37364E-01   -0.88640E-01 15662   0.129E+00    0.136E+00
RMM:   6    -0.596686839002E+03   -0.46756E-02   -0.15241E-01 14422   0.505E-01    0.465E-01
RMM:   7    -0.596684637683E+03    0.22013E-02   -0.53790E-02 14285   0.287E-01    0.189E-01
RMM:   8    -0.596685481099E+03   -0.84342E-03   -0.16923E-02 15122   0.160E-01    0.102E-01
RMM:   9    -0.596685954276E+03   -0.47318E-03   -0.58378E-03 15262   0.767E-02    0.449E-02
RMM:  10    -0.596686118127E+03   -0.16385E-03   -0.20518E-03 13425   0.420E-02    0.235E-02
RMM:  11    -0.596686190890E+03   -0.72763E-04   -0.85308E-04 11510   0.212E-02    0.697E-03
RMM:  12    -0.596686223851E+03   -0.32961E-04   -0.34679E-04  9369   0.121E-02    0.466E-03
RMM:  13    -0.596686239161E+03   -0.15310E-04   -0.16777E-04  8293   0.872E-03    0.235E-03
RMM:  14    -0.596686246406E+03   -0.72449E-05   -0.75562E-05  6920   0.553E-03
   2 F= -.59668625E+03 E0= -.59667706E+03  d E =-.228595E+01
 trial-energy change:   -2.285949  1 .order   -2.370590   -9.685182    4.944003
 step:   0.6542(harm=  0.6620)  dis= 0.10279  next Energy=  -597.544585 (dE=-0.314E+01)
 bond charge predicted
       N       E                     dE             d eps       ncg     rms          rms(c)
DAV:   1    -0.596427044314E+03    0.25919E+00   -0.18311E+02 11088   0.195E+01    0.366E+00
RMM:   2    -0.597350769268E+03   -0.92372E+00   -0.99564E+00 14148   0.613E+00    0.908E-01
RMM:   3    -0.597539950458E+03   -0.18918E+00   -0.21781E+00 15469   0.221E+00    0.910E-01
RMM:   4    -0.597539955229E+03   -0.47706E-05   -0.24648E-01 15624   0.748E-01    0.481E-01
RMM:   5    -0.597538093911E+03    0.18613E-02   -0.56948E-02 15421   0.317E-01    0.115E-01
RMM:   6    -0.597538918342E+03   -0.82443E-03   -0.11361E-02 14826   0.144E-01    0.739E-02
RMM:   7    -0.597539198990E+03   -0.28065E-03   -0.41388E-03 15391   0.730E-02    0.323E-02
RMM:   8    -0.597539301969E+03   -0.10298E-03   -0.11033E-03 13437   0.338E-02    0.158E-02
RMM:   9    -0.597539339830E+03   -0.37861E-04   -0.42687E-04 11125   0.194E-02    0.581E-03
RMM:  10    -0.597539353538E+03   -0.13708E-04   -0.14945E-04  9552   0.106E-02    0.322E-03
RMM:  11    -0.597539359562E+03   -0.60234E-05   -0.69152E-05  7951   0.721E-03
   3 F= -.59753936E+03 E0= -.59753002E+03  d E =-.313906E+01
 curvature:  -0.33 expect dE=-0.565E+00 dE for cont linesearch -0.892E-05
 trial: gam= 0.17461 g(F)=  0.171E+01 g(S)=  0.000E+00 ort = 0.162E-01 (trialstep = 0.931E+00)
 search vector abs. value=  0.201E+01
 bond charge predicted
       N       E                     dE             d eps       ncg     rms          rms(c)
DAV:   1    -0.596428581940E+03    0.11108E+01   -0.32937E+02 11512   0.271E+01    0.323E+00
RMM:   2    -0.597978275089E+03   -0.15497E+01   -0.16340E+01 13638   0.869E+00    0.110E+00
RMM:   3    -0.598361912055E+03   -0.38364E+00   -0.41281E+00 15466   0.333E+00    0.121E+00
RMM:   4    -0.598391013247E+03   -0.29101E-01   -0.50047E-01 15605   0.113E+00    0.882E-01
RMM:   5    -0.598380440249E+03    0.10573E-01   -0.10186E-01 15344   0.487E-01    0.215E-01
RMM:   6    -0.598382467644E+03   -0.20274E-02   -0.30580E-02 13817   0.271E-01    0.279E-01
RMM:   7    -0.598382068351E+03    0.39929E-03   -0.11135E-02 14391   0.136E-01    0.783E-02
RMM:   8    -0.598382291189E+03   -0.22284E-03   -0.24549E-03 14163   0.593E-02    0.781E-02
RMM:   9    -0.598382252821E+03    0.38368E-04   -0.82398E-04 13054   0.325E-02    0.209E-02
RMM:  10    -0.598382272022E+03   -0.19201E-04   -0.23577E-04 10346   0.160E-02    0.100E-02
RMM:  11    -0.598382279646E+03   -0.76243E-05   -0.10495E-04  9275   0.108E-02    0.106E-02
RMM:  12    -0.598382281894E+03   -0.22474E-05   -0.41576E-05  7790   0.715E-03
   4 F= -.59838228E+03 E0= -.59837332E+03  d E =-.842922E+00
 trial-energy change:   -0.842922  1 .order   -0.850826   -1.591791   -0.109862
 step:   1.0023(harm=  0.9998)  dis= 0.07694  next Energy=  -598.386496 (dE=-0.847E+00)
 bond charge predicted
       N       E                     dE             d eps       ncg     rms          rms(c)
DAV:   1    -0.598377561363E+03    0.47183E-02   -0.19368E+00 11552   0.205E+00    0.211E-01
RMM:   2    -0.598385003749E+03   -0.74424E-02   -0.78321E-02 13803   0.591E-01    0.746E-02
RMM:   3    -0.598386535991E+03   -0.15322E-02   -0.17023E-02 15293   0.216E-01    0.765E-02
RMM:   4    -0.598386608425E+03   -0.72434E-04   -0.20729E-03 15452   0.761E-02    0.445E-02
RMM:   5    -0.598386588687E+03    0.19737E-04   -0.54043E-04 14451   0.346E-02    0.133E-02
RMM:   6    -0.598386598158E+03   -0.94702E-05   -0.12139E-04 11195   0.160E-02    0.103E-02
WARNING in EDDRMM: call to ZHEGV failed, returncode =   6  3    527
RMM:   7    -0.598386599120E+03   -0.96238E-06   -0.40093E-05  8581   0.988E-03
   5 F= -.59838660E+03 E0= -.59837766E+03  d E =-.847240E+00
 curvature:  -0.59 expect dE=-0.496E+00 dE for cont linesearch -0.142E-05
 trial: gam= 0.46663 g(F)=  0.846E+00 g(S)=  0.000E+00 ort =-0.221E-02 (trialstep = 0.945E+00)
 search vector abs. value=  0.128E+01
 bond charge predicted
       N       E                     dE             d eps       ncg     rms          rms(c)
DAV:   1    -0.597486090762E+03    0.90051E+00   -0.23199E+02 11240   0.223E+01    0.261E+00
RMM:   2    -0.598477740106E+03   -0.99165E+00   -0.10503E+01 13698   0.679E+00    0.838E-01
RMM:   3    -0.598720926879E+03   -0.24319E+00   -0.25842E+00 15558   0.260E+00    0.907E-01
RMM:   4    -0.598735649145E+03   -0.14722E-01   -0.30419E-01 15616   0.880E-01    0.572E-01
RMM:   5    -0.598731633739E+03    0.40154E-02   -0.63183E-02 15310   0.381E-01    0.142E-01
RMM:   6    -0.598732813612E+03   -0.11799E-02   -0.14484E-02 14165   0.184E-01    0.124E-01
RMM:   7    -0.598733021262E+03   -0.20765E-03   -0.51171E-03 14899   0.908E-02    0.399E-02
RMM:   8    -0.598733116334E+03   -0.95072E-04   -0.10510E-03 13363   0.371E-02    0.247E-02
RMM:   9    -0.598733138857E+03   -0.22523E-04   -0.36784E-04 11382   0.206E-02    0.780E-03
RMM:  10    -0.598733151375E+03   -0.12519E-04   -0.13490E-04  9684   0.115E-02    0.328E-03
RMM:  11    -0.598733156492E+03   -0.51170E-05   -0.53397E-05  8347   0.742E-03
   6 F= -.59873316E+03 E0= -.59872530E+03  d E =-.346557E+00
 trial-energy change:   -0.346557  1 .order   -0.355479   -0.799077    0.088119
 step:   0.8459(harm=  0.8513)  dis= 0.03997  next Energy=  -598.737793 (dE=-0.351E+00)
 bond charge predicted
       N       E                     dE             d eps       ncg     rms          rms(c)
DAV:   1    -0.598726261178E+03    0.68902E-02   -0.25572E+00 11376   0.231E+00    0.246E-01
RMM:   2    -0.598735557996E+03   -0.92968E-02   -0.97746E-02 13697   0.648E-01    0.841E-02
RMM:   3    -0.598737527019E+03   -0.19690E-02   -0.21206E-02 15462   0.238E-01    0.850E-02
RMM:   4    -0.598737626350E+03   -0.99331E-04   -0.24464E-03 15487   0.819E-02    0.510E-02
RMM:   5    -0.598737596838E+03    0.29512E-04   -0.58276E-04 14263   0.371E-02    0.136E-02
RMM:   6    -0.598737609358E+03   -0.12520E-04   -0.14060E-04 11629   0.177E-02    0.112E-02
RMM:   7    -0.598737610455E+03   -0.10967E-05   -0.37603E-05  8750   0.975E-03
   7 F= -.59873761E+03 E0= -.59872964E+03  d E =-.351011E+00
 curvature:  -0.64 expect dE=-0.188E+00 dE for cont linesearch -0.159E-04
 trial: gam= 0.34879 g(F)=  0.292E+00 g(S)=  0.000E+00 ort = 0.563E-02 (trialstep = 0.925E+00)
 search vector abs. value=  0.452E+00
 bond charge predicted
       N       E                     dE             d eps       ncg     rms          rms(c)
DAV:   1    -0.598553154842E+03    0.18445E+00   -0.86376E+01 10656   0.133E+01    0.158E+00
RMM:   2    -0.598852303062E+03   -0.29915E+00   -0.31700E+00 13399   0.356E+00    0.494E-01
RMM:   3    -0.598915910290E+03   -0.63607E-01   -0.68764E-01 15420   0.136E+00    0.519E-01
RMM:   4    -0.598918972851E+03   -0.30626E-02   -0.74282E-02 15506   0.449E-01    0.336E-01
RMM:   5    -0.598917772135E+03    0.12007E-02   -0.19736E-02 14803   0.208E-01    0.105E-01
RMM:   6    -0.598918039487E+03   -0.26735E-03   -0.41825E-03 15249   0.947E-02    0.659E-02
RMM:   7    -0.598918113098E+03   -0.73610E-04   -0.13438E-03 14879   0.427E-02    0.238E-02
RMM:   8    -0.598918144500E+03   -0.31402E-04   -0.33747E-04 11273   0.210E-02    0.103E-02
RMM:   9    -0.598918155997E+03   -0.11497E-04   -0.13156E-04  9655   0.122E-02    0.506E-03
RMM:  10    -0.598918160207E+03   -0.42106E-05   -0.46675E-05  8415   0.735E-03
   8 F= -.59891816E+03 E0= -.59891075E+03  d E =-.180550E+00
 trial-energy change:   -0.180550  1 .order   -0.181566   -0.271984   -0.091149
 step:   1.4171(harm=  1.3917)  dis= 0.04264  next Energy=  -598.942230 (dE=-0.205E+00)
 bond charge predicted
       N       E                     dE             d eps       ncg     rms          rms(c)
DAV:   1    -0.598842332081E+03    0.75824E-01   -0.24421E+01 11200   0.704E+00    0.831E-01
RMM:   2    -0.598923929335E+03   -0.81597E-01   -0.86493E-01 13324   0.186E+00    0.258E-01
RMM:   3    -0.598941991947E+03   -0.18063E-01   -0.19494E-01 15434   0.716E-01    0.272E-01
RMM:   4    -0.598943012982E+03   -0.10210E-02   -0.20393E-02 15545   0.234E-01    0.191E-01
RMM:   5    -0.598942578983E+03    0.43400E-03   -0.59094E-03 14611   0.111E-01    0.682E-02
RMM:   6    -0.598942632576E+03   -0.53593E-04   -0.12121E-03 15030   0.505E-02    0.406E-02
RMM:   7    -0.598942647401E+03   -0.14825E-04   -0.39430E-04 12720   0.228E-02    0.136E-02
RMM:   8    -0.598942656476E+03   -0.90747E-05   -0.10607E-04  9806   0.142E-02    0.633E-03
RMM:   9    -0.598942660227E+03   -0.37517E-05   -0.41674E-05  8352   0.758E-03
   9 F= -.59894266E+03 E0= -.59893565E+03  d E =-.205050E+00
 curvature:  -1.07 expect dE=-0.331E+00 dE for cont linesearch -0.134E-05
 trial: gam= 1.05487 g(F)=  0.311E+00 g(S)=  0.000E+00 ort =-0.753E-03 (trialstep = 0.570E+00)
 search vector abs. value=  0.812E+00
 bond charge predicted
       N       E                     dE             d eps       ncg     rms          rms(c)
DAV:   1    -0.598828667297E+03    0.11399E+00   -0.62217E+01 10856   0.113E+01    0.130E+00
RMM:   2    -0.599032856432E+03   -0.20419E+00   -0.21652E+00 13354   0.295E+00    0.397E-01
RMM:   3    -0.599076932039E+03   -0.44076E-01   -0.47056E-01 15310   0.113E+00    0.410E-01
RMM:   4    -0.599080262018E+03   -0.33300E-02   -0.52338E-02 15569   0.371E-01    0.318E-01
RMM:   5    -0.599078870770E+03    0.13912E-02   -0.15259E-02 13795   0.177E-01    0.119E-01
RMM:   6    -0.599078954311E+03   -0.83541E-04   -0.30528E-03 15486   0.821E-02    0.700E-02
RMM:   7    -0.599078968929E+03   -0.14619E-04   -0.95844E-04 13706   0.348E-02    0.196E-02
RMM:   8    -0.599078990284E+03   -0.21354E-04   -0.22728E-04 11115   0.198E-02    0.769E-03
RMM:   9    -0.599079000711E+03   -0.10428E-04   -0.97102E-05  9135   0.104E-02    0.795E-03
RMM:  10    -0.599079002679E+03   -0.19680E-05   -0.32201E-05  7880   0.686E-03
  10 F= -.59907900E+03 E0= -.59907234E+03  d E =-.136342E+00
 trial-energy change:   -0.136342  1 .order   -0.135487   -0.176527   -0.094447
 step:   1.1517(harm=  1.2253)  dis= 0.04713  next Energy=  -599.128156 (dE=-0.185E+00)
 bond charge predicted
       N       E                     dE             d eps       ncg     rms          rms(c)
DAV:   1    -0.598871164274E+03    0.20784E+00   -0.64911E+01 11088   0.115E+01    0.134E+00
RMM:   2    -0.599084225373E+03   -0.21306E+00   -0.22668E+00 13367   0.302E+00    0.410E-01
RMM:   3    -0.599129934019E+03   -0.45709E-01   -0.48887E-01 15313   0.115E+00    0.421E-01
RMM:   4    -0.599133425801E+03   -0.34918E-02   -0.54305E-02 15545   0.379E-01    0.335E-01
RMM:   5    -0.599131790821E+03    0.16350E-02   -0.16265E-02 13733   0.183E-01    0.121E-01
RMM:   6    -0.599131888304E+03   -0.97483E-04   -0.32460E-03 15453   0.852E-02    0.737E-02
RMM:   7    -0.599131895382E+03   -0.70784E-05   -0.10115E-03 13656   0.360E-02    0.204E-02
RMM:   8    -0.599131918376E+03   -0.22993E-04   -0.24408E-04 11449   0.210E-02    0.796E-03
RMM:   9    -0.599131929457E+03   -0.11081E-04   -0.10310E-04  9189   0.108E-02    0.805E-03
RMM:  10    -0.599131931509E+03   -0.20520E-05   -0.34154E-05  7979   0.710E-03
  11 F= -.59913193E+03 E0= -.59912562E+03  d E =-.189271E+00
 curvature:  -1.58 expect dE=-0.274E+00 dE for cont linesearch -0.375E-03
 trial: gam= 0.50129 g(F)=  0.173E+00 g(S)=  0.000E+00 ort = 0.139E-01 (trialstep = 0.686E+00)
 search vector abs. value=  0.391E+00
 bond charge predicted
       N       E                     dE             d eps       ncg     rms          rms(c)
DAV:   1    -0.599053743645E+03    0.78186E-01   -0.42730E+01 11456   0.946E+00    0.109E+00
RMM:   2    -0.599193106132E+03   -0.13936E+00   -0.14892E+00 13364   0.250E+00    0.346E-01
RMM:   3    -0.599225123531E+03   -0.32017E-01   -0.33871E-01 15361   0.969E-01    0.337E-01
RMM:   4    -0.599227861338E+03   -0.27378E-02   -0.40090E-02 15563   0.325E-01    0.276E-01
RMM:   5    -0.599226766796E+03    0.10945E-02   -0.11003E-02 13777   0.156E-01    0.995E-02
RMM:   6    -0.599226844561E+03   -0.77764E-04   -0.23380E-03 15209   0.735E-02    0.656E-02
RMM:   7    -0.599226835983E+03    0.85781E-05   -0.71239E-04 13560   0.318E-02    0.177E-02
RMM:   8    -0.599226851390E+03   -0.15407E-04   -0.17378E-04 11213   0.193E-02    0.581E-03
RMM:   9    -0.599226858959E+03   -0.75688E-05   -0.70388E-05  9034   0.988E-03
  12 F= -.59922686E+03 E0= -.59922121E+03  d E =-.949274E-01
 trial-energy change:   -0.094927  1 .order   -0.094210   -0.123474   -0.064946
 step:   1.3512(harm=  1.4475)  dis= 0.03596  next Energy=  -599.258988 (dE=-0.127E+00)
 bond charge predicted
       N       E                     dE             d eps       ncg     rms          rms(c)
DAV:   1    -0.599101578447E+03    0.12527E+00   -0.40144E+01 11400   0.916E+00    0.106E+00
RMM:   2    -0.599232482494E+03   -0.13090E+00   -0.14040E+00 13372   0.243E+00    0.340E-01
RMM:   3    -0.599262476476E+03   -0.29994E-01   -0.31841E-01 15367   0.940E-01    0.330E-01
RMM:   4    -0.599265042586E+03   -0.25661E-02   -0.37696E-02 15566   0.314E-01    0.271E-01
RMM:   5    -0.599263953524E+03    0.10891E-02   -0.10467E-02 13741   0.152E-01    0.956E-02
RMM:   6    -0.599264031618E+03   -0.78095E-04   -0.22248E-03 15206   0.718E-02    0.643E-02
RMM:   7    -0.599264021380E+03    0.10238E-04   -0.67256E-04 13486   0.310E-02    0.175E-02
RMM:   8    -0.599264036117E+03   -0.14737E-04   -0.16636E-04 11213   0.192E-02    0.559E-03
RMM:   9    -0.599264043348E+03   -0.72306E-05   -0.67199E-05  8986   0.977E-03
  13 F= -.59926404E+03 E0= -.59925858E+03  d E =-.132112E+00
 curvature:  -1.55 expect dE=-0.172E+00 dE for cont linesearch -0.714E-03
 trial: gam= 0.63613 g(F)=  0.111E+00 g(S)=  0.000E+00 ort = 0.134E-01 (trialstep = 0.819E+00)
 search vector abs. value=  0.286E+00
 bond charge predicted
       N       E                     dE             d eps       ncg     rms          rms(c)
DAV:   1    -0.599176617536E+03    0.87419E-01   -0.43421E+01 11584   0.963E+00    0.110E+00
RMM:   2    -0.599315046292E+03   -0.13843E+00   -0.15198E+00 13461   0.255E+00    0.359E-01
RMM:   3    -0.599347951945E+03   -0.32906E-01   -0.34728E-01 15220   0.983E-01    0.329E-01
RMM:   4    -0.599351134297E+03   -0.31824E-02   -0.44853E-02 15610   0.342E-01    0.277E-01
RMM:   5    -0.599349998076E+03    0.11362E-02   -0.10434E-02 13570   0.154E-01    0.839E-02
RMM:   6    -0.599350140117E+03   -0.14204E-03   -0.25098E-03 15229   0.764E-02    0.643E-02
RMM:   7    -0.599350130406E+03    0.97116E-05   -0.69750E-04 13608   0.326E-02    0.193E-02
RMM:   8    -0.599350147119E+03   -0.16713E-04   -0.19656E-04 11650   0.203E-02    0.624E-03
RMM:   9    -0.599350153939E+03   -0.68200E-05   -0.68145E-05  9069   0.997E-03
  14 F= -.59935015E+03 E0= -.59934467E+03  d E =-.861106E-01
 trial-energy change:   -0.086111  1 .order   -0.084949   -0.097817   -0.072081
 step:   2.1581(harm=  3.1133)  dis= 0.05712  next Energy=  -599.414139 (dE=-0.150E+00)
 bond charge predicted
       N       E                     dE             d eps       ncg     rms          rms(c)
DAV:   1    -0.598953255900E+03    0.39689E+00   -0.11604E+02 11510   0.158E+01    0.181E+00
RMM:   2    -0.599336046909E+03   -0.38279E+00   -0.42067E+00 13486   0.425E+00    0.589E-01
RMM:   3    -0.599427405843E+03   -0.91359E-01   -0.96513E-01 15294   0.165E+00    0.548E-01
RMM:   4    -0.599436019104E+03   -0.86133E-02   -0.12261E-01 15619   0.568E-01    0.461E-01
RMM:   5    -0.599432746254E+03    0.32729E-02   -0.27685E-02 14152   0.251E-01    0.121E-01
RMM:   6    -0.599433207663E+03   -0.46141E-03   -0.65508E-03 14752   0.125E-01    0.104E-01
RMM:   7    -0.599433194071E+03    0.13593E-04   -0.19328E-03 14706   0.566E-02    0.297E-02
RMM:   8    -0.599433241713E+03   -0.47643E-04   -0.51590E-04 13085   0.294E-02    0.117E-02
RMM:   9    -0.599433258401E+03   -0.16688E-04   -0.16762E-04 10158   0.151E-02    0.494E-03
RMM:  10    -0.599433264460E+03   -0.60582E-05   -0.63064E-05  8778   0.895E-03
  15 F= -.59943326E+03 E0= -.59942691E+03  d E =-.169221E+00
 curvature:  -3.08 expect dE=-0.564E+00 dE for cont linesearch -0.114E-01
 ZBRENT: increasing intervall
 opt :   4.8360  next Energy=  -599.371805 (dE=-0.108E+00)
 bond charge predicted
       N       E                     dE             d eps       ncg     rms          rms(c)
DAV:   1    -0.597214365805E+03    0.22189E+01   -0.46523E+02 11549   0.317E+01    0.353E+00
RMM:   2    -0.598906785796E+03   -0.16924E+01   -0.18389E+01 13429   0.904E+00    0.114E+00
RMM:   3    -0.599322247228E+03   -0.41546E+00   -0.43416E+00 15486   0.352E+00    0.117E+00
RMM:   4    -0.599354338161E+03   -0.32091E-01   -0.53592E-01 15551   0.120E+00    0.858E-01
RMM:   5    -0.599344690115E+03    0.96480E-02   -0.10787E-01 15228   0.502E-01    0.224E-01
RMM:   6    -0.599346365323E+03   -0.16752E-02   -0.25501E-02 13945   0.245E-01    0.164E-01
RMM:   7    -0.599346695294E+03   -0.32997E-03   -0.78076E-03 15449   0.117E-01    0.558E-02
RMM:   8    -0.599346882882E+03   -0.18759E-03   -0.20389E-03 13615   0.537E-02    0.322E-02
RMM:   9    -0.599346937402E+03   -0.54520E-04   -0.66004E-04 12717   0.281E-02    0.141E-02
RMM:  10    -0.599346958836E+03   -0.21433E-04   -0.25997E-04 10343   0.163E-02    0.549E-03
RMM:  11    -0.599346967654E+03   -0.88182E-05   -0.93202E-05  8957   0.968E-03
  16 F= -.59934697E+03 E0= -.59933833E+03  d E =-.829243E-01
 curvature:  16.63 expect dE= 0.163E+02 dE for cont linesearch  0.806E+00
 ZBRENT: bracketing found
 ZBRENT: interpolating
 opt :   2.7375  next Energy=  -599.442688 (dE=-0.179E+00)
 bond charge predicted
       N       E                     dE             d eps       ncg     rms          rms(c)
DAV:   1    -0.598208754800E+03    0.11382E+01   -0.28577E+02 11082   0.246E+01    0.281E+00
RMM:   2    -0.599176636018E+03   -0.96788E+00   -0.10522E+01 13370   0.686E+00    0.929E-01
RMM:   3    -0.599430477872E+03   -0.25384E+00   -0.26562E+00 15410   0.274E+00    0.919E-01
RMM:   4    -0.599452143508E+03   -0.21666E-01   -0.32235E-01 15563   0.921E-01    0.728E-01
RMM:   5    -0.599444358255E+03    0.77853E-02   -0.64172E-02 15066   0.398E-01    0.199E-01
RMM:   6    -0.599445279260E+03   -0.92100E-03   -0.18137E-02 13787   0.210E-01    0.158E-01
RMM:   7    -0.599445302893E+03   -0.23634E-04   -0.53671E-03 15535   0.104E-01    0.454E-02
RMM:   8    -0.599445432602E+03   -0.12971E-03   -0.13317E-03 14643   0.464E-02    0.246E-02
RMM:   9    -0.599445459103E+03   -0.26501E-04   -0.35132E-04 12312   0.239E-02    0.886E-03
RMM:  10    -0.599445471603E+03   -0.12500E-04   -0.13296E-04  9662   0.129E-02    0.523E-03
RMM:  11    -0.599445475649E+03   -0.40461E-05   -0.43230E-05  8489   0.787E-03
  17 F= -.59944548E+03 E0= -.59943772E+03  d E =-.181432E+00
 curvature:  -0.19 expect dE=-0.560E-01 dE for cont linesearch -0.619E-04
 trial: gam= 2.59314 g(F)=  0.288E+00 g(S)=  0.000E+00 ort = 0.954E-02 (trialstep = 0.152E+00)
 search vector abs. value=  0.226E+01
 bond charge predicted
       N       E                     dE             d eps       ncg     rms          rms(c)
DAV:   1    -0.599453026028E+03   -0.75544E-02   -0.11661E+01 11496   0.483E+00    0.583E-01
RMM:   2    -0.599484315953E+03   -0.31290E-01   -0.36772E-01 13226   0.122E+00    0.199E-01
RMM:   3    -0.599492080003E+03   -0.77640E-02   -0.84556E-02 15023   0.475E-01    0.167E-01
RMM:   4    -0.599492818125E+03   -0.73812E-03   -0.11321E-02 15617   0.169E-01    0.136E-01
RMM:   5    -0.599492528724E+03    0.28940E-03   -0.23097E-03 13634   0.739E-02    0.320E-02
RMM:   6    -0.599492575514E+03   -0.46791E-04   -0.64654E-04 14529   0.375E-02    0.290E-02
RMM:   7    -0.599492573160E+03    0.23545E-05   -0.16086E-04 11104   0.169E-02    0.882E-03
RMM:   8    -0.599492577149E+03   -0.39891E-05   -0.47978E-05  9048   0.109E-02
  18 F= -.59949258E+03 E0= -.59948410E+03  d E =-.471015E-01
 ZBRENT: can't locate minimum, use default step
 trial-energy change:   -0.047102  1 .order   -0.046865   -0.047625   -0.046105
 step:   0.6087(harm=  4.7657)  dis= 0.06198  next Energy=  -600.191269 (dE=-0.746E+00)
 bond charge predicted
       N       E                     dE             d eps       ncg     rms          rms(c)
DAV:   1    -0.599220092391E+03    0.27248E+00   -0.10520E+02 11757   0.145E+01    0.158E+00
RMM:   2    -0.599539345962E+03   -0.31925E+00   -0.34786E+00 13262   0.372E+00    0.526E-01
RMM:   3    -0.599612026620E+03   -0.72681E-01   -0.76703E-01 15044   0.144E+00    0.476E-01
RMM:   4    -0.599618015239E+03   -0.59886E-02   -0.10147E-01 15558   0.509E-01    0.332E-01
RMM:   5    -0.599616982247E+03    0.10330E-02   -0.19370E-02 14824   0.205E-01    0.851E-02
RMM:   6    -0.599617324016E+03   -0.34177E-03   -0.43925E-03 15404   0.930E-02    0.598E-02
RMM:   7    -0.599617395056E+03   -0.71040E-04   -0.12199E-03 14659   0.411E-02    0.217E-02
RMM:   8    -0.599617432611E+03   -0.37555E-04   -0.37907E-04 11516   0.229E-02    0.129E-02
RMM:   9    -0.599617442654E+03   -0.10043E-04   -0.13320E-04  9885   0.130E-02    0.255E-03
RMM:  10    -0.599617447068E+03   -0.44142E-05   -0.48910E-05  8596   0.794E-03
  19 F= -.59961745E+03 E0= -.59960952E+03  d E =-.171971E+00
 curvature:  -3.24 expect dE=-0.952E+00 dE for cont linesearch -0.635E-01
 ZBRENT: increasing intervall
 opt :   1.5216  next Energy=  -599.725271 (dE=-0.280E+00)
 bond charge predicted
       N       E                     dE             d eps       ncg     rms          rms(c)
DAV:   1    -0.597795385818E+03    0.18221E+01   -0.42539E+02 11794   0.293E+01    0.311E+00
RMM:   2    -0.599218482564E+03   -0.14231E+01   -0.15082E+01 13124   0.791E+00    0.107E+00
RMM:   3    -0.599575406346E+03   -0.35692E+00   -0.37168E+00 15324   0.313E+00    0.106E+00
RMM:   4    -0.599606858546E+03   -0.31452E-01   -0.48143E-01 15540   0.108E+00    0.808E-01
RMM:   5    -0.599598393142E+03    0.84654E-02   -0.89648E-02 15079   0.440E-01    0.201E-01
RMM:   6    -0.599600128938E+03   -0.17358E-02   -0.21027E-02 14215   0.206E-01    0.167E-01
RMM:   7    -0.599600233444E+03   -0.10451E-03   -0.61799E-03 14919   0.992E-02    0.467E-02
RMM:   8    -0.599600396083E+03   -0.16264E-03   -0.16280E-03 14051   0.447E-02    0.291E-02
RMM:   9    -0.599600445770E+03   -0.49686E-04   -0.55273E-04 11770   0.237E-02    0.114E-02
RMM:  10    -0.599600464094E+03   -0.18325E-04   -0.20668E-04  9944   0.137E-02    0.425E-03
RMM:  11    -0.599600471623E+03   -0.75287E-05   -0.80707E-05  8829   0.858E-03
  20 F= -.59960047E+03 E0= -.59959168E+03  d E =-.154996E+00
 curvature:  -5.50 expect dE=-0.251E+01 dE for cont linesearch -0.234E+00
 ZBRENT: bracketing found
 ZBRENT: interpolating
 opt :   0.9780  next Energy=  -599.656327 (dE=-0.211E+00)
 bond charge predicted
       N       E                     dE             d eps       ncg     rms          rms(c)
DAV:   1    -0.599079072427E+03    0.52139E+00   -0.14975E+02 11097   0.173E+01    0.186E+00
RMM:   2    -0.599533957513E+03   -0.45489E+00   -0.48514E+00 13073   0.451E+00    0.638E-01
RMM:   3    -0.599658998013E+03   -0.12504E+00   -0.13033E+00 15271   0.184E+00    0.625E-01
RMM:   4    -0.599668805742E+03   -0.98077E-02   -0.15380E-01 15482   0.612E-01    0.457E-01
RMM:   5    -0.599666336810E+03    0.24689E-02   -0.30710E-02 14950   0.261E-01    0.112E-01
RMM:   6    -0.599666939320E+03   -0.60251E-03   -0.73031E-03 14786   0.123E-01    0.950E-02
RMM:   7    -0.599667006261E+03   -0.66940E-04   -0.20638E-03 14920   0.566E-02    0.323E-02
RMM:   8    -0.599667056656E+03   -0.50396E-04   -0.54346E-04 12033   0.261E-02    0.160E-02
RMM:   9    -0.599667069262E+03   -0.12606E-04   -0.16466E-04 10196   0.153E-02    0.561E-03
RMM:  10    -0.599667075713E+03   -0.64513E-05   -0.67137E-05  8821   0.852E-03
  21 F= -.59966708E+03 E0= -.59965858E+03  d E =-.221600E+00
 curvature:  -0.92 expect dE=-0.278E+00 dE for cont linesearch -0.955E-03
 trial: gam= 0.21772 g(F)=  0.304E+00 g(S)=  0.000E+00 ort = 0.486E-01 (trialstep = 0.317E+00)
 search vector abs. value=  0.432E+00
 bond charge predicted
       N       E                     dE             d eps       ncg     rms          rms(c)
DAV:   1    -0.599713462725E+03   -0.46393E-01   -0.91658E+00 11472   0.441E+00    0.419E-01
RMM:   2    -0.599744976168E+03   -0.31513E-01   -0.32944E-01 13708   0.125E+00    0.150E-01
RMM:   3    -0.599752873999E+03   -0.78978E-02   -0.83789E-02 15344   0.470E-01    0.148E-01
RMM:   4    -0.599753497571E+03   -0.62357E-03   -0.98904E-03 15594   0.161E-01    0.104E-01
RMM:   5    -0.599753381267E+03    0.11630E-03   -0.19952E-03 14922   0.700E-02    0.264E-02
RMM:   6    -0.599753424343E+03   -0.43077E-04   -0.48932E-04 14284   0.335E-02    0.237E-02
RMM:   7    -0.599753425922E+03   -0.15787E-05   -0.12985E-04 11389   0.161E-02    0.630E-03
RMM:   8    -0.599753429768E+03   -0.38462E-05   -0.40949E-05  8930   0.103E-02
  22 F= -.59975343E+03 E0= -.59974507E+03  d E =-.863541E-01
 trial-energy change:   -0.086354  1 .order   -0.086200   -0.099837   -0.072564
 step:   1.1617(harm=  1.1617)  dis= 0.05568  next Energy=  -599.849813 (dE=-0.183E+00)
 bond charge predicted
       N       E                     dE             d eps       ncg     rms          rms(c)
DAV:   1    -0.599545559319E+03    0.20787E+00   -0.64982E+01 11639   0.118E+01    0.112E+00
RMM:   2    -0.599793192584E+03   -0.24763E+00   -0.25784E+00 13893   0.341E+00    0.402E-01
RMM:   3    -0.599848456007E+03   -0.55263E-01   -0.58360E-01 15451   0.126E+00    0.399E-01
RMM:   4    -0.599852689617E+03   -0.42336E-02   -0.68417E-02 15587   0.423E-01    0.289E-01
RMM:   5    -0.599851684603E+03    0.10050E-02   -0.14877E-02 14868   0.188E-01    0.818E-02
RMM:   6    -0.599851967446E+03   -0.28284E-03   -0.34136E-03 15226   0.872E-02    0.662E-02
RMM:   7    -0.599851977791E+03   -0.10345E-04   -0.95785E-04 14355   0.394E-02    0.169E-02
RMM:   8    -0.599852001817E+03   -0.24026E-04   -0.24592E-04 11635   0.208E-02    0.129E-02
RMM:   9    -0.599852006205E+03   -0.43884E-05   -0.84434E-05  9663   0.117E-02
  23 F= -.59985201E+03 E0= -.59984411E+03  d E =-.184930E+00
 curvature:  -0.80 expect dE=-0.154E+00 dE for cont linesearch -0.668E-06
 trial: gam= 0.58013 g(F)=  0.193E+00 g(S)=  0.000E+00 ort =-0.601E-03 (trialstep = 0.486E+00)
 search vector abs. value=  0.338E+00
 bond charge predicted
       N       E                     dE             d eps       ncg     rms          rms(c)
DAV:   1    -0.599862304323E+03   -0.10303E-01   -0.17651E+01 11528   0.608E+00    0.658E-01
RMM:   2    -0.599917204720E+03   -0.54900E-01   -0.58889E-01 13334   0.159E+00    0.229E-01
RMM:   3    -0.599929735473E+03   -0.12531E-01   -0.13518E-01 15370   0.614E-01    0.222E-01
RMM:   4    -0.599930920410E+03   -0.11849E-02   -0.17024E-02 15605   0.211E-01    0.187E-01
RMM:   5    -0.599930420630E+03    0.49978E-03   -0.39835E-03 14039   0.941E-02    0.500E-02
RMM:   6    -0.599930494316E+03   -0.73685E-04   -0.98204E-04 14620   0.466E-02    0.438E-02
RMM:   7    -0.599930485516E+03    0.87991E-05   -0.26797E-04 12692   0.212E-02    0.160E-02
RMM:   8    -0.599930491169E+03   -0.56528E-05   -0.95732E-05 10028   0.144E-02
  24 F= -.59993049E+03 E0= -.59992292E+03  d E =-.784850E-01
 trial-energy change:   -0.078485  1 .order   -0.077590   -0.093791   -0.061389
 step:   1.1482(harm=  1.4074)  dis= 0.03751  next Energy=  -599.974545 (dE=-0.123E+00)
 bond charge predicted
       N       E                     dE             d eps       ncg     rms          rms(c)
DAV:   1    -0.599857430695E+03    0.73055E-01   -0.32725E+01 11400   0.828E+00    0.898E-01
RMM:   2    -0.599960808957E+03   -0.10338E+00   -0.11102E+00 13413   0.218E+00    0.319E-01
RMM:   3    -0.599984123758E+03   -0.23315E-01   -0.25304E-01 15408   0.838E-01    0.308E-01
RMM:   4    -0.599986295230E+03   -0.21715E-02   -0.31494E-02 15614   0.286E-01    0.262E-01
RMM:   5    -0.599985287229E+03    0.10080E-02   -0.76364E-03 13997   0.130E-01    0.686E-02
RMM:   6    -0.599985426346E+03   -0.13912E-03   -0.18595E-03 14857   0.640E-02    0.599E-02
RMM:   7    -0.599985408172E+03    0.18174E-04   -0.49848E-04 13577   0.283E-02    0.216E-02
RMM:   8    -0.599985419452E+03   -0.11281E-04   -0.17233E-04 11187   0.179E-02    0.876E-03
RMM:   9    -0.599985422656E+03   -0.32040E-05   -0.51642E-05  9254   0.944E-03
  25 F= -.59998542E+03 E0= -.59997831E+03  d E =-.133416E+00
 curvature:  -1.14 expect dE=-0.132E+00 dE for cont linesearch -0.410E-02
 ZBRENT: extrapolating
 opt :   1.4016  next Energy=  -599.989851 (dE=-0.138E+00)
 bond charge predicted
       N       E                     dE             d eps       ncg     rms          rms(c)
DAV:   1    -0.599971874767E+03    0.13545E-01   -0.48000E+00 12072   0.316E+00    0.347E-01
RMM:   2    -0.599986504559E+03   -0.14630E-01   -0.15793E-01 13329   0.819E-01    0.124E-01
RMM:   3    -0.599989804445E+03   -0.32999E-02   -0.36034E-02 15375   0.317E-01    0.118E-01
RMM:   4    -0.599990113579E+03   -0.30913E-03   -0.45935E-03 15530   0.109E-01    0.100E-01
RMM:   5    -0.599989965103E+03    0.14848E-03   -0.11296E-03 13946   0.500E-02    0.263E-02
RMM:   6    -0.599989984102E+03   -0.18999E-04   -0.27925E-04 13428   0.248E-02    0.222E-02
RMM:   7    -0.599989982032E+03    0.20705E-05   -0.73193E-05  9677   0.124E-02
  26 F= -.59998998E+03 E0= -.59998299E+03  d E =-.137976E+00
 curvature:  -1.23 expect dE=-0.196E+00 dE for cont linesearch -0.148E-04
 trial: gam= 0.74167 g(F)=  0.160E+00 g(S)=  0.000E+00 ort =-0.202E-02 (trialstep = 0.660E+00)
 search vector abs. value=  0.343E+00
 bond charge predicted
       N       E                     dE             d eps       ncg     rms          rms(c)
DAV:   1    -0.599933530730E+03    0.56453E-01   -0.34473E+01 11213   0.853E+00    0.985E-01
RMM:   2    -0.600046379371E+03   -0.11285E+00   -0.12241E+00 13469   0.226E+00    0.369E-01
RMM:   3    -0.600070652925E+03   -0.24274E-01   -0.26984E-01 15364   0.863E-01    0.315E-01
RMM:   4    -0.600072729913E+03   -0.20770E-02   -0.32581E-02 15680   0.293E-01    0.265E-01
RMM:   5    -0.600071611313E+03    0.11186E-02   -0.82209E-03 13585   0.137E-01    0.700E-02
RMM:   6    -0.600071715488E+03   -0.10417E-03   -0.18235E-03 15202   0.668E-02    0.548E-02
RMM:   7    -0.600071702200E+03    0.13288E-04   -0.48326E-04 13322   0.279E-02    0.163E-02
RMM:   8    -0.600071714277E+03   -0.12078E-04   -0.14322E-04 11275   0.185E-02    0.673E-03
RMM:   9    -0.600071717776E+03   -0.34983E-05   -0.45600E-05  8928   0.894E-03
  27 F= -.60007172E+03 E0= -.60006502E+03  d E =-.817357E-01
 trial-energy change:   -0.081736  1 .order   -0.081047   -0.104432   -0.057662
 step:   1.3502(harm=  1.4747)  dis= 0.04470  next Energy=  -600.102609 (dE=-0.113E+00)
 bond charge predicted
       N       E                     dE             d eps       ncg     rms          rms(c)
DAV:   1    -0.599958403126E+03    0.11331E+00   -0.37592E+01 11352   0.892E+00    0.104E+00
RMM:   2    -0.600080622648E+03   -0.12222E+00   -0.13335E+00 13477   0.237E+00    0.406E-01
RMM:   3    -0.600107248199E+03   -0.26626E-01   -0.30094E-01 15417   0.908E-01    0.334E-01
RMM:   4    -0.600109390822E+03   -0.21426E-02   -0.34895E-02 15628   0.303E-01    0.278E-01
RMM:   5    -0.600108137755E+03    0.12531E-02   -0.92526E-03 13634   0.145E-01    0.725E-02
RMM:   6    -0.600108243057E+03   -0.10530E-03   -0.20100E-03 15206   0.701E-02    0.545E-02
RMM:   7    -0.600108234166E+03    0.88911E-05   -0.54265E-04 13397   0.292E-02    0.165E-02
RMM:   8    -0.600108247751E+03   -0.13585E-04   -0.15443E-04 11361   0.191E-02    0.633E-03
RMM:   9    -0.600108251885E+03   -0.41349E-05   -0.50602E-05  8948   0.925E-03
  28 F= -.60010825E+03 E0= -.60010160E+03  d E =-.118270E+00
 curvature:  -1.56 expect dE=-0.287E+00 dE for cont linesearch -0.124E-02
 trial: gam= 1.03933 g(F)=  0.184E+00 g(S)=  0.000E+00 ort = 0.165E-01 (trialstep = 0.465E+00)
 search vector abs. value=  0.588E+00
 bond charge predicted
       N       E                     dE             d eps       ncg     rms          rms(c)
DAV:   1    -0.600087302384E+03    0.20945E-01   -0.28974E+01 11288   0.782E+00    0.104E+00
RMM:   2    -0.600177264164E+03   -0.89962E-01   -0.10442E+00 13467   0.207E+00    0.443E-01
RMM:   3    -0.600195767696E+03   -0.18504E-01   -0.23399E-01 15394   0.801E-01    0.294E-01
RMM:   4    -0.600197388615E+03   -0.16209E-02   -0.27756E-02 15607   0.270E-01    0.237E-01
RMM:   5    -0.600196459023E+03    0.92959E-03   -0.73430E-03 13473   0.130E-01    0.596E-02
RMM:   6    -0.600196546921E+03   -0.87897E-04   -0.17208E-03 15361   0.631E-02    0.435E-02
RMM:   7    -0.600196550317E+03   -0.33957E-05   -0.45967E-04 12979   0.261E-02    0.145E-02
RMM:   8    -0.600196562064E+03   -0.11747E-04   -0.13401E-04 10719   0.179E-02    0.465E-03
RMM:   9    -0.600196566037E+03   -0.39737E-05   -0.45608E-05  8817   0.827E-03
  29 F= -.60019657E+03 E0= -.60018978E+03  d E =-.883142E-01
 ZBRENT: can't locate minimum, use default step
 trial-energy change:   -0.088314  1 .order   -0.087598   -0.093492   -0.081704
 step:   1.8597(harm=  3.6876)  dis= 0.07899  next Energy=  -600.479020 (dE=-0.371E+00)
 bond charge predicted
       N       E                     dE             d eps       ncg     rms          rms(c)
DAV:   1    -0.599289474096E+03    0.90709E+00   -0.26079E+02 11144   0.235E+01    0.282E+00
RMM:   2    -0.600154508779E+03   -0.86503E+00   -0.98646E+00 13438   0.645E+00    0.911E-01
RMM:   3    -0.600369116556E+03   -0.21461E+00   -0.22888E+00 15429   0.252E+00    0.853E-01
RMM:   4    -0.600387584968E+03   -0.18468E-01   -0.27751E-01 15578   0.849E-01    0.698E-01
RMM:   5    -0.600379676927E+03    0.79080E-02   -0.62260E-02 14536   0.384E-01    0.172E-01
RMM:   6    -0.600380692828E+03   -0.10159E-02   -0.16394E-02 14390   0.195E-01    0.148E-01
RMM:   7    -0.600380661747E+03    0.31081E-04   -0.47346E-03 15268   0.913E-02    0.424E-02
RMM:   8    -0.600380792428E+03   -0.13068E-03   -0.12979E-03 14686   0.439E-02    0.222E-02
RMM:   9    -0.600380821203E+03   -0.28775E-04   -0.37614E-04 11817   0.230E-02    0.660E-03
RMM:  10    -0.600380835305E+03   -0.14102E-04   -0.14774E-04  9730   0.127E-02    0.421E-03
RMM:  11    -0.600380839938E+03   -0.46325E-05   -0.51258E-05  8694   0.810E-03
  30 F= -.60038084E+03 E0= -.60037403E+03  d E =-.272588E+00
 curvature:  -3.66 expect dE=-0.111E+01 dE for cont linesearch -0.360E-01
 ZBRENT: increasing intervall
 opt :   4.6492  next Energy=  -600.315266 (dE=-0.207E+00)
 bond charge predicted
       N       E                     dE             d eps       ncg     rms          rms(c)
DAV:   1    -0.594770676388E+03    0.56102E+01   -0.10507E+03 11169   0.478E+01    0.520E+00
RMM:   2    -0.599015628493E+03   -0.42450E+01   -0.45233E+01 13399   0.143E+01    0.176E+00
RMM:   3    -0.599981789631E+03   -0.96616E+00   -0.10230E+01 15578   0.547E+00    0.189E+00
RMM:   4    -0.600021973521E+03   -0.40184E-01   -0.12345E+00 15089   0.189E+00    0.106E+00
RMM:   5    -0.600017965603E+03    0.40079E-02   -0.29888E-01 15279   0.830E-01    0.271E-01
RMM:   6    -0.600022448816E+03   -0.44832E-02   -0.54318E-02 13981   0.368E-01    0.210E-01
RMM:   7    -0.600023638922E+03   -0.11901E-02   -0.19284E-02 15451   0.183E-01    0.719E-02
RMM:   8    -0.600024000659E+03   -0.36174E-03   -0.41156E-03 13998   0.761E-02    0.409E-02
RMM:   9    -0.600024136562E+03   -0.13590E-03   -0.15809E-03 14417   0.425E-02    0.167E-02
RMM:  10    -0.600024180773E+03   -0.44211E-04   -0.52250E-04 11118   0.214E-02    0.902E-03
RMM:  11    -0.600024198377E+03   -0.17604E-04   -0.20147E-04  9660   0.129E-02    0.358E-03
RMM:  12    -0.600024205226E+03   -0.68492E-05   -0.79765E-05  8792   0.877E-03
  31 F= -.60002421E+03 E0= -.60001822E+03  d E =0.840467E-01
 curvature:   6.66 expect dE= 0.121E+02 dE for cont linesearch  0.184E+01
 ZBRENT: bracketing found
 ZBRENT: interpolating
 opt :   2.3027  next Energy=  -600.397701 (dE=-0.289E+00)
 bond charge predicted
       N       E                     dE             d eps       ncg     rms          rms(c)
DAV:   1    -0.596865920130E+03    0.31583E+01   -0.74223E+02 10872   0.400E+01    0.458E+00
RMM:   2    -0.599736180914E+03   -0.28703E+01   -0.30847E+01 13413   0.116E+01    0.152E+00
RMM:   3    -0.600382310995E+03   -0.64613E+00   -0.68760E+00 15525   0.447E+00    0.163E+00
RMM:   4    -0.600407883237E+03   -0.25572E-01   -0.83270E-01 15211   0.153E+00    0.949E-01
RMM:   5    -0.600401127145E+03    0.67561E-02   -0.19294E-01 15141   0.676E-01    0.246E-01
RMM:   6    -0.600403886344E+03   -0.27592E-02   -0.37557E-02 14146   0.296E-01    0.150E-01
RMM:   7    -0.600404827055E+03   -0.94071E-03   -0.11545E-02 15703   0.141E-01    0.733E-02
RMM:   8    -0.600405074818E+03   -0.24776E-03   -0.29202E-03 13741   0.595E-02    0.345E-02
RMM:   9    -0.600405144755E+03   -0.69937E-04   -0.92150E-04 12362   0.315E-02    0.107E-02
RMM:  10    -0.600405176287E+03   -0.31531E-04   -0.35818E-04 10531   0.178E-02    0.455E-03
RMM:  11    -0.600405188253E+03   -0.11967E-04   -0.12681E-04  9390   0.107E-02    0.321E-03
RMM:  12    -0.600405192640E+03   -0.43863E-05   -0.50373E-05  8548   0.752E-03
  32 F= -.60040519E+03 E0= -.60039898E+03  d E =-.296941E+00
 curvature:  -0.06 expect dE=-0.256E-01 dE for cont linesearch -0.105E-03
 trial: gam= 2.23296 g(F)=  0.420E+00 g(S)=  0.000E+00 ort = 0.319E-01 (trialstep = 0.140E+00)
 search vector abs. value=  0.350E+01
 bond charge predicted
       N       E                     dE             d eps       ncg     rms          rms(c)
DAV:   1    -0.600411060518E+03   -0.58723E-02   -0.15374E+01 11056   0.556E+00    0.619E-01
RMM:   2    -0.600457635046E+03   -0.46575E-01   -0.51121E-01 13350   0.144E+00    0.204E-01
RMM:   3    -0.600468475338E+03   -0.10840E-01   -0.11604E-01 15182   0.554E-01    0.188E-01
RMM:   4    -0.600469316630E+03   -0.84129E-03   -0.14275E-02 15561   0.191E-01    0.135E-01
RMM:   5    -0.600469081067E+03    0.23556E-03   -0.30093E-03 13949   0.840E-02    0.343E-02
RMM:   6    -0.600469137722E+03   -0.56655E-04   -0.77028E-04 14751   0.405E-02    0.274E-02
RMM:   7    -0.600469143465E+03   -0.57427E-05   -0.20631E-04 11156   0.175E-02    0.791E-03
RMM:   8    -0.600469148525E+03   -0.50605E-05   -0.58226E-05  9284   0.117E-02
  33 F= -.60046915E+03 E0= -.60046353E+03  d E =-.639559E-01
 trial-energy change:   -0.063956  1 .order   -0.063359   -0.068795   -0.057922
 step:   0.4878(harm=  0.8865)  dis= 0.05876  next Energy=  -600.550131 (dE=-0.145E+00)
 bond charge predicted
       N       E                     dE             d eps       ncg     rms          rms(c)
DAV:   1    -0.600182757543E+03    0.28639E+00   -0.94855E+01 11267   0.138E+01    0.145E+00
RMM:   2    -0.600491983437E+03   -0.30923E+00   -0.32709E+00 13417   0.366E+00    0.491E-01
RMM:   3    -0.600562305738E+03   -0.70322E-01   -0.74756E-01 15223   0.141E+00    0.467E-01
RMM:   4    -0.600566858062E+03   -0.45523E-02   -0.88240E-02 15507   0.478E-01    0.280E-01
RMM:   5    -0.600566348150E+03    0.50991E-03   -0.18462E-02 14706   0.205E-01    0.900E-02
RMM:   6    -0.600566658383E+03   -0.31023E-03   -0.43020E-03 15557   0.938E-02    0.591E-02
RMM:   7    -0.600566725773E+03   -0.67390E-04   -0.12431E-03 14296   0.409E-02    0.186E-02
RMM:   8    -0.600566757320E+03   -0.31548E-04   -0.31987E-04 11324   0.214E-02    0.140E-02
RMM:   9    -0.600566764460E+03   -0.71393E-05   -0.12158E-04  9711   0.128E-02    0.285E-03
RMM:  10    -0.600566768227E+03   -0.37668E-05   -0.42314E-05  8547   0.766E-03
  34 F= -.60056677E+03 E0= -.60056099E+03  d E =-.161576E+00
 curvature:  -2.26 expect dE=-0.743E+00 dE for cont linesearch -0.779E-02
 ZBRENT: extrapolating
 opt :   0.6136  next Energy=  -600.573680 (dE=-0.168E+00)
 bond charge predicted
       N       E                     dE             d eps       ncg     rms          rms(c)
DAV:   1    -0.600524454590E+03    0.42310E-01   -0.12440E+01 11808   0.499E+00    0.513E-01
RMM:   2    -0.600562239720E+03   -0.37785E-01   -0.39767E-01 13246   0.129E+00    0.176E-01
RMM:   3    -0.600571122415E+03   -0.88827E-02   -0.94974E-02 15174   0.504E-01    0.168E-01
RMM:   4    -0.600571699817E+03   -0.57740E-03   -0.11543E-02 15502   0.173E-01    0.953E-02
RMM:   5    -0.600571660267E+03    0.39551E-04   -0.22916E-03 14821   0.724E-02    0.288E-02
RMM:   6    -0.600571705281E+03   -0.45014E-04   -0.54364E-04 14094   0.330E-02    0.201E-02
RMM:   7    -0.600571714168E+03   -0.88879E-05   -0.15278E-04 10516   0.155E-02    0.612E-03
RMM:   8    -0.600571718220E+03   -0.40514E-05   -0.44814E-05  8749   0.995E-03
  35 F= -.60057172E+03 E0= -.60056568E+03  d E =-.166526E+00
 curvature:  -2.00 expect dE=-0.690E+00 dE for cont linesearch -0.111E-02
 trial: gam= 0.15261 g(F)=  0.344E+00 g(S)=  0.000E+00 ort =-0.439E-01 (trialstep = 0.235E+00)
 search vector abs. value=  0.412E+00
 bond charge predicted
       N       E                     dE             d eps       ncg     rms          rms(c)
DAV:   1    -0.600619116409E+03   -0.47402E-01   -0.48448E+00 11336   0.331E+00    0.297E-01
RMM:   2    -0.600637092793E+03   -0.17976E-01   -0.18717E-01 13684   0.954E-01    0.108E-01
RMM:   3    -0.600641463095E+03   -0.43703E-02   -0.46905E-02 15415   0.359E-01    0.114E-01
RMM:   4    -0.600641775488E+03   -0.31239E-03   -0.53621E-03 15641   0.122E-01    0.757E-02
RMM:   5    -0.600641709704E+03    0.65784E-04   -0.11662E-03 14882   0.545E-02    0.219E-02
RMM:   6    -0.600641732473E+03   -0.22769E-04   -0.27120E-04 13686   0.256E-02    0.194E-02
RMM:   7    -0.600641732705E+03   -0.23148E-06   -0.76668E-05 10214   0.128E-02
  36 F= -.60064173E+03 E0= -.60063558E+03  d E =-.700145E-01
 trial-energy change:   -0.070014  1 .order   -0.069624   -0.079312   -0.059935
 step:   0.7572(harm=  0.9611)  dis= 0.02907  next Energy=  -600.712706 (dE=-0.141E+00)
 bond charge predicted
       N       E                     dE             d eps       ncg     rms          rms(c)
DAV:   1    -0.600612448664E+03    0.29284E-01   -0.23957E+01 11120   0.737E+00    0.662E-01
RMM:   2    -0.600705417567E+03   -0.92969E-01   -0.96666E-01 13783   0.217E+00    0.241E-01
RMM:   3    -0.600728173248E+03   -0.22756E-01   -0.24360E-01 15439   0.815E-01    0.257E-01
RMM:   4    -0.600729797787E+03   -0.16245E-02   -0.27272E-02 15798   0.275E-01    0.173E-01
RMM:   5    -0.600729439780E+03    0.35801E-03   -0.58663E-03 14755   0.123E-01    0.483E-02
RMM:   6    -0.600729569387E+03   -0.12961E-03   -0.14520E-03 15210   0.586E-02    0.452E-02
RMM:   7    -0.600729571852E+03   -0.24644E-05   -0.41524E-04 13654   0.268E-02    0.118E-02
RMM:   8    -0.600729582374E+03   -0.10522E-04   -0.10779E-04 10165   0.142E-02    0.112E-02
RMM:   9    -0.600729582721E+03   -0.34697E-06   -0.37480E-05  8553   0.879E-03
  37 F= -.60072958E+03 E0= -.60072330E+03  d E =-.157865E+00
 curvature:  -0.54 expect dE=-0.747E-01 dE for cont linesearch -0.784E-02
 ZBRENT: extrapolating
 opt :   0.9842  next Energy=  -600.738360 (dE=-0.167E+00)
 bond charge predicted
       N       E                     dE             d eps       ncg     rms          rms(c)
DAV:   1    -0.600717341224E+03    0.12241E-01   -0.45291E+00 11528   0.320E+00    0.288E-01
RMM:   2    -0.600734168620E+03   -0.16827E-01   -0.17494E-01 13706   0.921E-01    0.104E-01
RMM:   3    -0.600738278232E+03   -0.41096E-02   -0.44033E-02 15421   0.347E-01    0.110E-01
RMM:   4    -0.600738577261E+03   -0.29903E-03   -0.50711E-03 15687   0.118E-01    0.724E-02
RMM:   5    -0.600738521297E+03    0.55964E-04   -0.10908E-03 14881   0.521E-02    0.212E-02
RMM:   6    -0.600738542709E+03   -0.21412E-04   -0.25243E-04 13542   0.245E-02    0.187E-02
RMM:   7    -0.600738543350E+03   -0.64150E-06   -0.73309E-05 10084   0.125E-02
  38 F= -.60073854E+03 E0= -.60073227E+03  d E =-.166825E+00
 curvature:  -0.61 expect dE=-0.115E+00 dE for cont linesearch -0.616E-05
 trial: gam= 0.49878 g(F)=  0.189E+00 g(S)=  0.000E+00 ort =-0.205E-02 (trialstep = 0.385E+00)
 search vector abs. value=  0.290E+00
 bond charge predicted
       N       E                     dE             d eps       ncg     rms          rms(c)
DAV:   1    -0.600758711242E+03   -0.20169E-01   -0.94626E+00 11256   0.459E+00    0.454E-01
RMM:   2    -0.600792123435E+03   -0.33412E-01   -0.34988E-01 13452   0.126E+00    0.153E-01
RMM:   3    -0.600800043045E+03   -0.79196E-02   -0.84266E-02 15476   0.486E-01    0.163E-01
RMM:   4    -0.600800612647E+03   -0.56960E-03   -0.93735E-03 15673   0.164E-01    0.118E-01
RMM:   5    -0.600800426091E+03    0.18656E-03   -0.21397E-03 13888   0.734E-02    0.316E-02
RMM:   6    -0.600800476481E+03   -0.50390E-04   -0.57007E-04 14929   0.364E-02    0.297E-02
RMM:   7    -0.600800474941E+03    0.15399E-05   -0.15354E-04 11714   0.163E-02    0.711E-03
RMM:   8    -0.600800479329E+03   -0.43883E-05   -0.46026E-05  8955   0.109E-02
  39 F= -.60080048E+03 E0= -.60079415E+03  d E =-.619360E-01
 trial-energy change:   -0.061936  1 .order   -0.061419   -0.072387   -0.050451
 step:   1.0271(harm=  1.2695)  dis= 0.02365  next Energy=  -600.845010 (dE=-0.106E+00)
 bond charge predicted
       N       E                     dE             d eps       ncg     rms          rms(c)
DAV:   1    -0.600735786487E+03    0.64688E-01   -0.26355E+01 11248   0.767E+00    0.764E-01
RMM:   2    -0.600830437409E+03   -0.94651E-01   -0.99105E-01 13496   0.214E+00    0.255E-01
RMM:   3    -0.600853870868E+03   -0.23433E-01   -0.24883E-01 15503   0.830E-01    0.273E-01
RMM:   4    -0.600855603475E+03   -0.17326E-02   -0.27189E-02 15740   0.277E-01    0.200E-01
RMM:   5    -0.600855065460E+03    0.53801E-03   -0.60151E-03 13932   0.123E-01    0.536E-02
RMM:   6    -0.600855211170E+03   -0.14571E-03   -0.16113E-03 15235   0.614E-02    0.528E-02
RMM:   7    -0.600855202649E+03    0.85203E-05   -0.44535E-04 13446   0.273E-02    0.120E-02
RMM:   8    -0.600855216040E+03   -0.13391E-04   -0.12684E-04 10686   0.164E-02    0.117E-02
RMM:   9    -0.600855217018E+03   -0.97754E-06   -0.39596E-05  8714   0.856E-03
  40 F= -.60085522E+03 E0= -.60084880E+03  d E =-.116674E+00
 curvature:  -0.90 expect dE=-0.844E-01 dE for cont linesearch -0.398E-02
 ZBRENT: extrapolating
 opt :   1.2676  next Energy=  -600.859512 (dE=-0.121E+00)
 bond charge predicted
       N       E                     dE             d eps       ncg     rms          rms(c)
DAV:   1    -0.600843293852E+03    0.11922E-01   -0.36963E+00 11696   0.287E+00    0.287E-01
RMM:   2    -0.600856336155E+03   -0.13042E-01   -0.13672E-01 13493   0.789E-01    0.952E-02
RMM:   3    -0.600859397759E+03   -0.30616E-02   -0.32596E-02 15492   0.302E-01    0.101E-01
RMM:   4    -0.600859614827E+03   -0.21707E-03   -0.36012E-03 15674   0.102E-01    0.730E-02
RMM:   5    -0.600859546125E+03    0.68702E-04   -0.83699E-04 13902   0.455E-02    0.194E-02
RMM:   6    -0.600859565404E+03   -0.19278E-04   -0.21839E-04 13317   0.226E-02    0.183E-02
RMM:   7    -0.600859564732E+03    0.67108E-06   -0.59459E-05  9320   0.117E-02
  41 F= -.60085956E+03 E0= -.60085310E+03  d E =-.121021E+00
 curvature:  -0.98 expect dE=-0.131E+00 dE for cont linesearch -0.241E-04
 trial: gam= 0.73423 g(F)=  0.134E+00 g(S)=  0.000E+00 ort =-0.268E-02 (trialstep = 0.561E+00)
 search vector abs. value=  0.286E+00
 bond charge predicted
       N       E                     dE             d eps       ncg     rms          rms(c)
DAV:   1    -0.600835219812E+03    0.24346E-01   -0.19448E+01 11200   0.659E+00    0.655E-01
RMM:   2    -0.600902037758E+03   -0.66818E-01   -0.69811E-01 13486   0.182E+00    0.213E-01
RMM:   3    -0.600918538718E+03   -0.16501E-01   -0.17413E-01 15431   0.703E-01    0.222E-01
RMM:   4    -0.600919792267E+03   -0.12535E-02   -0.19506E-02 15699   0.234E-01    0.151E-01
RMM:   5    -0.600919522781E+03    0.26949E-03   -0.41024E-03 14199   0.999E-02    0.474E-02
RMM:   6    -0.600919601209E+03   -0.78428E-04   -0.99523E-04 15330   0.479E-02    0.375E-02
RMM:   7    -0.600919604176E+03   -0.29670E-05   -0.28266E-04 12830   0.215E-02    0.974E-03
RMM:   8    -0.600919611235E+03   -0.70590E-05   -0.74744E-05  9538   0.129E-02
  42 F= -.60091961E+03 E0= -.60091305E+03  d E =-.600465E-01
 trial-energy change:   -0.060047  1 .order   -0.059117   -0.074205   -0.044029
 step:   1.1546(harm=  1.3802)  dis= 0.02824  next Energy=  -600.943983 (dE=-0.844E-01)
 bond charge predicted
       N       E                     dE             d eps       ncg     rms          rms(c)
DAV:   1    -0.600855900409E+03    0.63704E-01   -0.21727E+01 11384   0.697E+00    0.691E-01
RMM:   2    -0.600930541200E+03   -0.74641E-01   -0.77935E-01 13465   0.192E+00    0.224E-01
RMM:   3    -0.600949167516E+03   -0.18626E-01   -0.19642E-01 15417   0.747E-01    0.233E-01
RMM:   4    -0.600950596251E+03   -0.14287E-02   -0.22066E-02 15692   0.249E-01    0.158E-01
RMM:   5    -0.600950309721E+03    0.28653E-03   -0.45532E-03 14231   0.106E-01    0.490E-02
RMM:   6    -0.600950399777E+03   -0.90056E-04   -0.11105E-03 15374   0.506E-02    0.392E-02
RMM:   7    -0.600950404062E+03   -0.42855E-05   -0.31847E-04 13023   0.227E-02    0.105E-02
RMM:   8    -0.600950411968E+03   -0.79057E-05   -0.83075E-05  9648   0.132E-02
  43 F= -.60095041E+03 E0= -.60094400E+03  d E =-.908472E-01
 curvature:  -1.38 expect dE=-0.810E-01 dE for cont linesearch -0.226E-02
 ZBRENT: extrapolating
 opt :   1.3804  next Energy=  -600.952853 (dE=-0.933E-01)
 bond charge predicted
       N       E                     dE             d eps       ncg     rms          rms(c)
DAV:   1    -0.600940040768E+03    0.10363E-01   -0.31496E+00 11760   0.265E+00    0.260E-01
RMM:   2    -0.600950651645E+03   -0.10611E-01   -0.11070E-01 13467   0.718E-01    0.845E-02
RMM:   3    -0.600953146148E+03   -0.24945E-02   -0.26410E-02 15406   0.276E-01    0.880E-02
RMM:   4    -0.600953330870E+03   -0.18472E-03   -0.29807E-03 15574   0.926E-02    0.583E-02
RMM:   5    -0.600953296475E+03    0.34394E-04   -0.67288E-04 14168   0.400E-02    0.200E-02
RMM:   6    -0.600953306694E+03   -0.10219E-04   -0.15099E-04 12433   0.189E-02    0.142E-02
RMM:   7    -0.600953307541E+03   -0.84721E-06   -0.45647E-05  8979   0.103E-02
  44 F= -.60095331E+03 E0= -.60094699E+03  d E =-.937428E-01
 curvature:  -1.50 expect dE=-0.114E+00 dE for cont linesearch -0.109E-08
 trial: gam= 0.54018 g(F)=  0.764E-01 g(S)=  0.000E+00 ort =-0.144E-04 (trialstep = 0.725E+00)
 search vector abs. value=  0.160E+00
 bond charge predicted
       N       E                     dE             d eps       ncg     rms          rms(c)
DAV:   1    -0.600903817872E+03    0.49489E-01   -0.18334E+01 11032   0.637E+00    0.658E-01
RMM:   2    -0.600971163502E+03   -0.67346E-01   -0.70319E-01 13571   0.176E+00    0.215E-01
RMM:   3    -0.600986185731E+03   -0.15022E-01   -0.16033E-01 15498   0.669E-01    0.229E-01
RMM:   4    -0.600987070173E+03   -0.88444E-03   -0.18081E-02 15685   0.226E-01    0.148E-01
RMM:   5    -0.600986827938E+03    0.24223E-03   -0.43342E-03 14764   0.100E-01    0.447E-02
RMM:   6    -0.600986901962E+03   -0.74024E-04   -0.95885E-04 14972   0.470E-02    0.348E-02
RMM:   7    -0.600986911946E+03   -0.99837E-05   -0.30299E-04 12787   0.222E-02    0.976E-03
RMM:   8    -0.600986919199E+03   -0.72530E-05   -0.80908E-05  9691   0.133E-02
  45 F= -.60098692E+03 E0= -.60098106E+03  d E =-.336117E-01
 trial-energy change:   -0.033612  1 .order   -0.032735   -0.055361   -0.010108
 step:   0.8673(harm=  0.8871)  dis= 0.01594  next Energy=  -600.987917 (dE=-0.346E-01)
 bond charge predicted
       N       E                     dE             d eps       ncg     rms          rms(c)
DAV:   1    -0.600985150234E+03    0.17617E-02   -0.70638E-01 11848   0.125E+00    0.127E-01
RMM:   2    -0.600987703183E+03   -0.25529E-02   -0.26639E-02 13562   0.341E-01    0.421E-02
RMM:   3    -0.600988253589E+03   -0.55041E-03   -0.59194E-03 15446   0.129E-01    0.444E-02
RMM:   4    -0.600988284863E+03   -0.31273E-04   -0.68779E-04 15229   0.443E-02    0.275E-02
RMM:   5    -0.600988278187E+03    0.66760E-05   -0.17862E-04 12400   0.206E-02    0.916E-03
RMM:   6    -0.600988280306E+03   -0.21192E-05   -0.36102E-05  8956   0.100E-02
  46 F= -.60098828E+03 E0= -.60098251E+03  d E =-.349728E-01
 curvature:  -0.92 expect dE=-0.282E-01 dE for cont linesearch -0.374E-04
 trial: gam= 0.36514 g(F)=  0.308E-01 g(S)=  0.000E+00 ort = 0.256E-02 (trialstep = 0.754E+00)
 search vector abs. value=  0.540E-01
 bond charge predicted
       N       E                     dE             d eps       ncg     rms          rms(c)
DAV:   1    -0.600973819429E+03    0.14459E-01   -0.69066E+00 11030   0.391E+00    0.404E-01
RMM:   2    -0.600999144746E+03   -0.25325E-01   -0.26401E-01 13585   0.107E+00    0.131E-01
RMM:   3    -0.601004287214E+03   -0.51425E-02   -0.55181E-02 15503   0.399E-01    0.140E-01
RMM:   4    -0.601004544453E+03   -0.25724E-03   -0.64186E-03 15570   0.136E-01    0.833E-02
RMM:   5    -0.601004488106E+03    0.56347E-04   -0.15868E-03 14915   0.609E-02    0.272E-02
RMM:   6    -0.601004513832E+03   -0.25727E-04   -0.33962E-04 14157   0.278E-02    0.197E-02
RMM:   7    -0.601004517667E+03   -0.38346E-05   -0.10515E-04 10187   0.137E-02    0.537E-03
RMM:   8    -0.601004520484E+03   -0.28169E-05   -0.31279E-05  8538   0.910E-03
  47 F= -.60100452E+03 E0= -.60099885E+03  d E =-.162402E-01
 trial-energy change:   -0.016240  1 .order   -0.015894   -0.023940   -0.007848
 step:   1.0644(harm=  1.1211)  dis= 0.01047  next Energy=  -601.006164 (dE=-0.179E-01)
 bond charge predicted
       N       E                     dE             d eps       ncg     rms          rms(c)
DAV:   1    -0.601001480684E+03    0.30370E-02   -0.11764E+00 11664   0.161E+00    0.165E-01
RMM:   2    -0.601005738979E+03   -0.42583E-02   -0.44385E-02 13561   0.437E-01    0.540E-02
RMM:   3    -0.601006592698E+03   -0.85372E-03   -0.91564E-03 15478   0.162E-01    0.575E-02
RMM:   4    -0.601006634218E+03   -0.41521E-04   -0.10765E-03 15329   0.557E-02    0.341E-02
RMM:   5    -0.601006625455E+03    0.87634E-05   -0.27684E-04 13109   0.255E-02    0.117E-02
RMM:   6    -0.601006628807E+03   -0.33522E-05   -0.53635E-05  9548   0.119E-02
  48 F= -.60100663E+03 E0= -.60100100E+03  d E =-.183485E-01
 curvature:  -0.93 expect dE=-0.143E-01 dE for cont linesearch -0.544E-04
 trial: gam= 0.49426 g(F)=  0.154E-01 g(S)=  0.000E+00 ort = 0.178E-02 (trialstep = 0.816E+00)
 search vector abs. value=  0.304E-01
 bond charge predicted
       N       E                     dE             d eps       ncg     rms          rms(c)
DAV:   1    -0.600996530075E+03    0.10095E-01   -0.45605E+00 11198   0.318E+00    0.327E-01
RMM:   2    -0.601012457770E+03   -0.15928E-01   -0.16582E-01 13448   0.855E-01    0.106E-01
RMM:   3    -0.601015922409E+03   -0.34646E-02   -0.36596E-02 15442   0.324E-01    0.110E-01
RMM:   4    -0.601016146400E+03   -0.22399E-03   -0.42387E-03 15555   0.109E-01    0.709E-02
RMM:   5    -0.601016102194E+03    0.44206E-04   -0.99480E-04 14578   0.479E-02    0.229E-02
RMM:   6    -0.601016118355E+03   -0.16160E-04   -0.21364E-04 13137   0.223E-02    0.169E-02
RMM:   7    -0.601016119955E+03   -0.16006E-05   -0.66205E-05  9455   0.115E-02
  49 F= -.60101612E+03 E0= -.60101063E+03  d E =-.949115E-02
 trial-energy change:   -0.009491  1 .order   -0.009112   -0.013285   -0.004939
 step:   1.1633(harm=  1.2984)  dis= 0.00932  next Energy=  -601.017202 (dE=-0.106E-01)
 bond charge predicted
       N       E                     dE             d eps       ncg     rms          rms(c)
DAV:   1    -0.601014161991E+03    0.19564E-02   -0.83002E-01 11872   0.135E+00    0.136E-01
RMM:   2    -0.601017054292E+03   -0.28923E-02   -0.30111E-02 13453   0.363E-01    0.455E-02
RMM:   3    -0.601017673628E+03   -0.61934E-03   -0.65784E-03 15417   0.137E-01    0.478E-02
RMM:   4    -0.601017711858E+03   -0.38231E-04   -0.76803E-04 15147   0.465E-02    0.304E-02
RMM:   5    -0.601017704826E+03    0.70326E-05   -0.19647E-04 12450   0.216E-02    0.106E-02
RMM:   6    -0.601017706929E+03   -0.21033E-05   -0.37546E-05  9024   0.102E-02
  50 F= -.60101771E+03 E0= -.60101227E+03  d E =-.110781E-01
 curvature:  -1.12 expect dE=-0.856E-02 dE for cont linesearch -0.141E-03
 ZBRENT: extrapolating
 opt :   1.3296  next Energy=  -601.017870 (dE=-0.112E-01)
 bond charge predicted
       N       E                     dE             d eps       ncg     rms          rms(c)
DAV:   1    -0.601017114579E+03    0.59025E-03   -0.19055E-01 11876   0.650E-01    0.665E-02
RMM:   2    -0.601017790478E+03   -0.67590E-03   -0.70331E-03 13453   0.175E-01    0.218E-02
RMM:   3    -0.601017933487E+03   -0.14301E-03   -0.15304E-03 15270   0.663E-02    0.227E-02
RMM:   4    -0.601017942807E+03   -0.93204E-05   -0.18539E-04 13078   0.236E-02    0.145E-02
RMM:   5    -0.601017941847E+03    0.96060E-06   -0.53905E-05  9941   0.134E-02
  51 F= -.60101794E+03 E0= -.60101254E+03  d E =-.113130E-01
 curvature:  -1.29 expect dE=-0.131E-01 dE for cont linesearch -0.542E-06
 trial: gam= 0.74479 g(F)=  0.102E-01 g(S)=  0.000E+00 ort = 0.113E-03 (trialstep = 0.918E+00)
 search vector abs. value=  0.272E-01
 bond charge predicted
       N       E                     dE             d eps       ncg     rms          rms(c)
DAV:   1    -0.601002800896E+03    0.15142E-01   -0.51477E+00 11223   0.338E+00    0.343E-01
RMM:   2    -0.601020039626E+03   -0.17239E-01   -0.17947E-01 13388   0.898E-01    0.112E-01
RMM:   3    -0.601023944962E+03   -0.39053E-02   -0.40722E-02 15321   0.343E-01    0.111E-01
RMM:   4    -0.601024232095E+03   -0.28713E-03   -0.48388E-03 15567   0.116E-01    0.724E-02
RMM:   5    -0.601024193620E+03    0.38475E-04   -0.10741E-03 14445   0.488E-02    0.263E-02
RMM:   6    -0.601024207411E+03   -0.13791E-04   -0.22780E-04 13249   0.225E-02    0.164E-02
RMM:   7    -0.601024210135E+03   -0.27239E-05   -0.70678E-05  9403   0.115E-02
  52 F= -.60102421E+03 E0= -.60101876E+03  d E =-.626829E-02
 trial-energy change:   -0.006268  1 .order   -0.005812   -0.009428   -0.002195
 step:   1.1097(harm=  1.1972)  dis= 0.00808  next Energy=  -601.024443 (dE=-0.650E-02)
 bond charge predicted
       N       E                     dE             d eps       ncg     rms          rms(c)
DAV:   1    -0.601023696802E+03    0.51061E-03   -0.22421E-01 11968   0.705E-01    0.685E-02
RMM:   2    -0.601024450108E+03   -0.75331E-03   -0.78457E-03 13388   0.187E-01    0.234E-02
RMM:   3    -0.601024617854E+03   -0.16775E-03   -0.17741E-03 15177   0.711E-02    0.241E-02
RMM:   4    -0.601024629544E+03   -0.11690E-04   -0.21312E-04 13193   0.250E-02    0.158E-02
RMM:   5    -0.601024628768E+03    0.77551E-06   -0.66102E-05 10501   0.149E-02
  53 F= -.60102463E+03 E0= -.60101916E+03  d E =-.668692E-02
 curvature:  -1.43 expect dE=-0.666E-02 dE for cont linesearch -0.699E-04
 ZBRENT: increasing intervall
 opt :   1.4921  next Energy=  -601.024597 (dE=-0.666E-02)
 bond charge predicted
       N       E                     dE             d eps       ncg     rms          rms(c)
DAV:   1    -0.601020878531E+03    0.37510E-02   -0.89371E-01 11296   0.141E+00    0.144E-01
RMM:   2    -0.601023860692E+03   -0.29822E-02   -0.31054E-02 13374   0.372E-01    0.466E-02
RMM:   3    -0.601024536204E+03   -0.67551E-03   -0.70429E-03 15262   0.142E-01    0.458E-02
RMM:   4    -0.601024587424E+03   -0.51219E-04   -0.84620E-04 15175   0.490E-02    0.301E-02
RMM:   5    -0.601024582459E+03    0.49642E-05   -0.20267E-04 12551   0.221E-02    0.112E-02
RMM:   6    -0.601024584131E+03   -0.16716E-05   -0.38908E-05  9140   0.104E-02
  54 F= -.60102458E+03 E0= -.60101910E+03  d E =-.664228E-02
 curvature:   0.65 expect dE= 0.530E-02 dE for cont linesearch  0.104E-03
 ZBRENT: bracketing found
 ZBRENT: interpolating
 opt :   1.2457  next Energy=  -601.024707 (dE=-0.677E-02)
 bond charge predicted
       N       E                     dE             d eps       ncg     rms          rms(c)
DAV:   1    -0.601023267331E+03    0.13151E-02   -0.36900E-01 11216   0.905E-01    0.912E-02
RMM:   2    -0.601024473570E+03   -0.12062E-02   -0.12553E-02 13371   0.236E-01    0.300E-02
RMM:   3    -0.601024736946E+03   -0.26338E-03   -0.27468E-03 15184   0.895E-02    0.293E-02
RMM:   4    -0.601024754557E+03   -0.17611E-04   -0.32145E-04 13790   0.311E-02    0.187E-02
RMM:   5    -0.601024752959E+03    0.15979E-05   -0.86176E-05 11185   0.168E-02
  55 F= -.60102475E+03 E0= -.60101928E+03  d E =-.681111E-02
 curvature:  -0.49 expect dE=-0.274E-02 dE for cont linesearch -0.883E-05
 trial: gam= 0.48148 g(F)=  0.561E-02 g(S)=  0.000E+00 ort = 0.701E-03 (trialstep = 0.984E+00)
 search vector abs. value=  0.126E-01
 bond charge predicted
       N       E                     dE             d eps       ncg     rms          rms(c)
DAV:   1    -0.601016838360E+03    0.79162E-02   -0.27157E+00 11112   0.247E+00    0.239E-01
RMM:   2    -0.601026011257E+03   -0.91729E-02   -0.95271E-02 13450   0.665E-01    0.795E-02
RMM:   3    -0.601028149807E+03   -0.21386E-02   -0.22333E-02 15376   0.255E-01    0.815E-02
RMM:   4    -0.601028303533E+03   -0.15373E-03   -0.25367E-03 15478   0.854E-02    0.533E-02
RMM:   5    -0.601028277173E+03    0.26360E-04   -0.57110E-04 14335   0.374E-02    0.180E-02
RMM:   6    -0.601028285722E+03   -0.85486E-05   -0.11814E-04 12000   0.174E-02    0.138E-02
RMM:   7    -0.601028285839E+03   -0.11776E-06   -0.36731E-05  8912   0.976E-03
  56 F= -.60102829E+03 E0= -.60102280E+03  d E =-.353288E-02
 trial-energy change:   -0.003533  1 .order   -0.003488   -0.005855   -0.001121
 step:   1.2018(harm=  1.2169)  dis= 0.00709  next Energy=  -601.028410 (dE=-0.366E-02)
 bond charge predicted
       N       E                     dE             d eps       ncg     rms          rms(c)
DAV:   1    -0.601027945727E+03    0.33999E-03   -0.13419E-01 11816   0.548E-01    0.509E-02
RMM:   2    -0.601028400441E+03   -0.45471E-03   -0.47250E-03 13453   0.147E-01    0.176E-02
RMM:   3    -0.601028504680E+03   -0.10424E-03   -0.11007E-03 15166   0.562E-02    0.187E-02
RMM:   4    -0.601028511580E+03   -0.69002E-05   -0.12813E-04 12610   0.199E-02    0.122E-02
RMM:   5    -0.601028510744E+03    0.83607E-06   -0.39331E-05  9165   0.118E-02
  57 F= -.60102851E+03 E0= -.60102303E+03  d E =-.375778E-02
 curvature:  -1.28 expect dE=-0.462E-02 dE for cont linesearch -0.152E-04
 trial: gam= 0.59676 g(F)=  0.360E-02 g(S)=  0.000E+00 ort = 0.386E-03 (trialstep = 0.103E+01)
 search vector abs. value=  0.855E-02
 bond charge predicted
       N       E                     dE             d eps       ncg     rms          rms(c)
DAV:   1    -0.601022583137E+03    0.59284E-02   -0.20285E+00 10920   0.212E+00    0.214E-01
RMM:   2    -0.601029431904E+03   -0.68488E-02   -0.71189E-02 13438   0.569E-01    0.693E-02
RMM:   3    -0.601031058245E+03   -0.16263E-02   -0.17001E-02 15384   0.219E-01    0.701E-02
RMM:   4    -0.601031178685E+03   -0.12044E-03   -0.18913E-03 15455   0.730E-02    0.458E-02
RMM:   5    -0.601031162279E+03    0.16405E-04   -0.44474E-04 13637   0.323E-02    0.180E-02
RMM:   6    -0.601031167472E+03   -0.51929E-05   -0.89185E-05 10791   0.151E-02
  58 F= -.60103117E+03 E0= -.60102567E+03  d E =-.265673E-02
 trial-energy change:   -0.002657  1 .order   -0.002455   -0.003937   -0.000974
 step:   1.2531(harm=  1.3652)  dis= 0.00647  next Energy=  -601.031277 (dE=-0.277E-02)
 bond charge predicted
       N       E                     dE             d eps       ncg     rms          rms(c)
DAV:   1    -0.601030947059E+03    0.21522E-03   -0.99001E-02 11776   0.469E-01    0.467E-02
RMM:   2    -0.601031300663E+03   -0.35360E-03   -0.36728E-03 13530   0.129E-01    0.153E-02
RMM:   3    -0.601031381482E+03   -0.80818E-04   -0.85169E-04 15097   0.492E-02    0.163E-02
RMM:   4    -0.601031386983E+03   -0.55011E-05   -0.10062E-04 12335   0.180E-02    0.104E-02
RMM:   5    -0.601031386787E+03    0.19580E-06   -0.32050E-05  8678   0.109E-02
  59 F= -.60103139E+03 E0= -.60102589E+03  d E =-.287604E-02
 curvature:  -1.35 expect dE=-0.355E-02 dE for cont linesearch -0.479E-04
 ZBRENT: increasing intervall
 opt :   1.7043  next Energy=  -601.031455 (dE=-0.294E-02)
 bond charge predicted
       N       E                     dE             d eps       ncg     rms          rms(c)
DAV:   1    -0.601029748403E+03    0.16386E-02   -0.39156E-01 10934   0.931E-01    0.950E-02
RMM:   2    -0.601031071754E+03   -0.13234E-02   -0.13758E-02 13434   0.250E-01    0.304E-02
RMM:   3    -0.601031388330E+03   -0.31658E-03   -0.33043E-03 15318   0.965E-02    0.306E-02
RMM:   4    -0.601031411744E+03   -0.23413E-04   -0.36438E-04 14277   0.328E-02    0.203E-02
RMM:   5    -0.601031409512E+03    0.22318E-05   -0.10019E-04 11250   0.172E-02    0.866E-03
RMM:   6    -0.601031410498E+03   -0.98652E-06   -0.22283E-05  7484   0.811E-03
  60 F= -.60103141E+03 E0= -.60102591E+03  d E =-.289975E-02
 curvature:  -1.93 expect dE=-0.978E-02 dE for cont linesearch -0.121E-03
 ZBRENT: bracketing found
 ZBRENT: interpolating
 opt :   1.4466  next Energy=  -601.031440 (dE=-0.293E-02)
 bond charge predicted
       N       E                     dE             d eps       ncg     rms          rms(c)
DAV:   1    -0.601030931725E+03    0.47779E-03   -0.12659E-01 10888   0.530E-01    0.534E-02
RMM:   2    -0.601031356591E+03   -0.42487E-03   -0.44127E-03 13401   0.143E-01    0.174E-02
RMM:   3    -0.601031457872E+03   -0.10128E-03   -0.10654E-03 15170   0.552E-02    0.173E-02
RMM:   4    -0.601031464663E+03   -0.67905E-05   -0.11479E-04 12595   0.193E-02    0.115E-02
RMM:   5    -0.601031464013E+03    0.64984E-06   -0.35980E-05  8957   0.121E-02
  61 F= -.60103146E+03 E0= -.60102597E+03  d E =-.295327E-02
 curvature:  -0.85 expect dE=-0.294E-02 dE for cont linesearch -0.720E-05
 trial: gam= 1.04056 g(F)=  0.346E-02 g(S)=  0.000E+00 ort = 0.269E-03 (trialstep = 0.715E+00)
 search vector abs. value=  0.133E-01
 bond charge predicted
       N       E                     dE             d eps       ncg     rms          rms(c)
DAV:   1    -0.601027070514E+03    0.43941E-02   -0.15322E+00 10839   0.183E+00    0.185E-01
RMM:   2    -0.601032000482E+03   -0.49300E-02   -0.51371E-02 13267   0.483E-01    0.604E-02
RMM:   3    -0.601033223623E+03   -0.12231E-02   -0.12771E-02 15363   0.189E-01    0.612E-02
RMM:   4    -0.601033313912E+03   -0.90289E-04   -0.13802E-03 15353   0.626E-02    0.417E-02
RMM:   5    -0.601033299298E+03    0.14614E-04   -0.34076E-04 12969   0.284E-02    0.174E-02
RMM:   6    -0.601033302180E+03   -0.28823E-05   -0.63579E-05  9943   0.132E-02
  62 F= -.60103330E+03 E0= -.60102782E+03  d E =-.183817E-02
 trial-energy change:   -0.001838  1 .order   -0.001759   -0.002677   -0.000841
 step:   0.9587(harm=  1.0429)  dis= 0.00598  next Energy=  -601.033448 (dE=-0.198E-02)
 bond charge predicted
       N       E                     dE             d eps       ncg     rms          rms(c)
DAV:   1    -0.601032840028E+03    0.45927E-03   -0.17906E-01 11408   0.626E-01    0.631E-02
RMM:   2    -0.601033443798E+03   -0.60377E-03   -0.62885E-03 13340   0.169E-01    0.205E-02
RMM:   3    -0.601033588054E+03   -0.14426E-03   -0.15179E-03 15231   0.655E-02    0.216E-02
RMM:   4    -0.601033598038E+03   -0.99842E-05   -0.16949E-04 12886   0.227E-02    0.143E-02
RMM:   5    -0.601033597364E+03    0.67355E-06   -0.52737E-05  9813   0.135E-02
  63 F= -.60103360E+03 E0= -.60102812E+03  d E =-.213335E-02
 curvature:  -1.73 expect dE=-0.313E-02 dE for cont linesearch -0.609E-04
 ZBRENT: increasing intervall
 opt :   1.4454  next Energy=  -601.033691 (dE=-0.223E-02)
 bond charge predicted
       N       E                     dE             d eps       ncg     rms          rms(c)
DAV:   1    -0.601030772346E+03    0.28257E-02   -0.71082E-01 10951   0.125E+00    0.129E-01
RMM:   2    -0.601033078024E+03   -0.23057E-02   -0.24033E-02 13264   0.331E-01    0.414E-02
RMM:   3    -0.601033664965E+03   -0.58694E-03   -0.60870E-03 15350   0.131E-01    0.408E-02
RMM:   4    -0.601033711343E+03   -0.46378E-04   -0.66999E-04 15122   0.437E-02    0.284E-02
RMM:   5    -0.601033705938E+03    0.54050E-05   -0.16998E-04 12295   0.209E-02    0.114E-02
RMM:   6    -0.601033707637E+03   -0.16995E-05   -0.33532E-05  8678   0.987E-03
  64 F= -.60103371E+03 E0= -.60102824E+03  d E =-.224362E-02
 curvature:  -2.66 expect dE=-0.958E-02 dE for cont linesearch -0.116E-03
 ZBRENT: bracketing found
 ZBRENT: interpolating
 opt :   1.1893  next Energy=  -601.033676 (dE=-0.221E-02)
 bond charge predicted
       N       E                     dE             d eps       ncg     rms          rms(c)
DAV:   1    -0.601032948655E+03    0.75728E-03   -0.19522E-01 10872   0.652E-01    0.670E-02
RMM:   2    -0.601033570138E+03   -0.62148E-03   -0.64776E-03 13246   0.171E-01    0.217E-02
RMM:   3    -0.601033722482E+03   -0.15234E-03   -0.15970E-03 15226   0.671E-02    0.211E-02
RMM:   4    -0.601033733066E+03   -0.10584E-04   -0.16752E-04 13000   0.228E-02    0.144E-02
RMM:   5    -0.601033732314E+03    0.75212E-06   -0.53327E-05 10039   0.140E-02
  65 F= -.60103373E+03 E0= -.60102826E+03  d E =-.226830E-02
 curvature:  -1.81 expect dE=-0.447E-02 dE for cont linesearch -0.284E-04
 trial: gam= 0.60949 g(F)=  0.246E-02 g(S)=  0.000E+00 ort = 0.456E-03 (trialstep = 0.810E+00)
 search vector abs. value=  0.795E-02
 bond charge predicted
       N       E                     dE             d eps       ncg     rms          rms(c)
DAV:   1    -0.601030473592E+03    0.32595E-02   -0.11734E+00 10895   0.160E+00    0.162E-01
RMM:   2    -0.601034298697E+03   -0.38251E-02   -0.39854E-02 13336   0.424E-01    0.523E-02
RMM:   3    -0.601035212391E+03   -0.91369E-03   -0.95347E-03 15343   0.164E-01    0.526E-02
RMM:   4    -0.601035282625E+03   -0.70234E-04   -0.10848E-03 15252   0.545E-02    0.351E-02
RMM:   5    -0.601035273079E+03    0.95463E-05   -0.25311E-04 12876   0.247E-02    0.126E-02
RMM:   6    -0.601035275982E+03   -0.29031E-05   -0.49478E-05  9366   0.116E-02
  66 F= -.60103528E+03 E0= -.60102981E+03  d E =-.154367E-02
 trial-energy change:   -0.001544  1 .order   -0.001489   -0.002221   -0.000758
 step:   1.1305(harm=  1.2298)  dis= 0.00516  next Energy=  -601.035429 (dE=-0.170E-02)
 bond charge predicted
       N       E                     dE             d eps       ncg     rms          rms(c)
DAV:   1    -0.601034798555E+03    0.47452E-03   -0.18499E-01 11440   0.636E-01    0.652E-02
RMM:   2    -0.601035419691E+03   -0.62114E-03   -0.64698E-03 13362   0.171E-01    0.207E-02
RMM:   3    -0.601035567720E+03   -0.14803E-03   -0.15435E-03 15253   0.661E-02    0.211E-02
RMM:   4    -0.601035578921E+03   -0.11201E-04   -0.17945E-04 12892   0.229E-02    0.140E-02
RMM:   5    -0.601035578268E+03    0.65345E-06   -0.51668E-05  9705   0.132E-02
  67 F= -.60103558E+03 E0= -.60103011E+03  d E =-.184595E-02
 curvature:  -1.68 expect dE=-0.241E-02 dE for cont linesearch -0.505E-04
 ZBRENT: increasing intervall
 opt :   1.7711  next Energy=  -601.035605 (dE=-0.187E-02)
 bond charge predicted
       N       E                     dE             d eps       ncg     rms          rms(c)
DAV:   1    -0.601032562122E+03    0.30168E-02   -0.73571E-01 10935   0.127E+00    0.132E-01
RMM:   2    -0.601034977322E+03   -0.24152E-02   -0.25178E-02 13333   0.339E-01    0.417E-02
RMM:   3    -0.601035578156E+03   -0.60083E-03   -0.62328E-03 15338   0.132E-01    0.409E-02
RMM:   4    -0.601035627861E+03   -0.49704E-04   -0.71540E-04 15126   0.442E-02    0.281E-02
RMM:   5    -0.601035622665E+03    0.51963E-05   -0.17045E-04 12414   0.208E-02    0.989E-03
RMM:   6    -0.601035624929E+03   -0.22641E-05   -0.35758E-05  8587   0.995E-03
  68 F= -.60103562E+03 E0= -.60103016E+03  d E =-.189261E-02
 curvature:  -0.89 expect dE=-0.298E-02 dE for cont linesearch -0.539E-04
 ZBRENT: bracketing found
 ZBRENT: interpolating
 opt :   1.3952  next Energy=  -601.035643 (dE=-0.191E-02)
 bond charge predicted
       N       E                     dE             d eps       ncg     rms          rms(c)
DAV:   1    -0.601034665580E+03    0.95709E-03   -0.25161E-01 10904   0.741E-01    0.759E-02
RMM:   2    -0.601035477034E+03   -0.81145E-03   -0.84612E-03 13328   0.196E-01    0.244E-02
RMM:   3    -0.601035673478E+03   -0.19644E-03   -0.20469E-03 15270   0.759E-02    0.240E-02
RMM:   4    -0.601035687775E+03   -0.14297E-04   -0.22114E-04 13176   0.255E-02    0.162E-02
RMM:   5    -0.601035686698E+03    0.10763E-05   -0.65040E-05 10469   0.150E-02
  69 F= -.60103569E+03 E0= -.60103022E+03  d E =-.195438E-02
 curvature:  -1.07 expect dE=-0.215E-02 dE for cont linesearch -0.164E-04
 trial: gam= 0.76625 g(F)=  0.201E-02 g(S)=  0.000E+00 ort = 0.349E-03 (trialstep = 0.927E+00)
 search vector abs. value=  0.722E-02
 bond charge predicted
       N       E                     dE             d eps       ncg     rms          rms(c)
DAV:   1    -0.601031715071E+03    0.39727E-02   -0.13650E+00 10983   0.172E+00    0.170E-01
RMM:   2    -0.601035992622E+03   -0.42776E-02   -0.44381E-02 13237   0.449E-01    0.560E-02
RMM:   3    -0.601037095340E+03   -0.11027E-02   -0.11424E-02 15265   0.177E-01    0.545E-02
RMM:   4    -0.601037188530E+03   -0.93190E-04   -0.13235E-03 15318   0.589E-02    0.360E-02
RMM:   5    -0.601037183206E+03    0.53239E-05   -0.29056E-04 12882   0.258E-02    0.153E-02
RMM:   6    -0.601037185411E+03   -0.22044E-05   -0.56926E-05  9565   0.121E-02
  70 F= -.60103719E+03 E0= -.60103171E+03  d E =-.149871E-02
 trial-energy change:   -0.001499  1 .order   -0.001459   -0.002116   -0.000802
 step:   1.4936(harm=  1.4936)  dis= 0.00546  next Energy=  -601.037391 (dE=-0.170E-02)
 bond charge predicted
       N       E                     dE             d eps       ncg     rms          rms(c)
DAV:   1    -0.601035585119E+03    0.15981E-02   -0.51247E-01 11327   0.105E+00    0.106E-01
RMM:   2    -0.601037223590E+03   -0.16385E-02   -0.16994E-02 13271   0.278E-01    0.343E-02
RMM:   3    -0.601037641267E+03   -0.41768E-03   -0.43197E-03 15232   0.110E-01    0.334E-02
RMM:   4    -0.601037677035E+03   -0.35768E-04   -0.51133E-04 14601   0.370E-02    0.221E-02
RMM:   5    -0.601037676348E+03    0.68676E-06   -0.12181E-04 11358   0.179E-02    0.927E-03
RMM:   6    -0.601037677455E+03   -0.11071E-05   -0.27005E-05  7936   0.879E-03
  71 F= -.60103768E+03 E0= -.60103220E+03  d E =-.199076E-02
 curvature:  -2.36 expect dE=-0.393E-02 dE for cont linesearch -0.444E-04
 ZBRENT: increasing intervall
 opt :   2.6265  next Energy=  -601.037531 (dE=-0.184E-02)
 bond charge predicted
       N       E                     dE             d eps       ncg     rms          rms(c)
DAV:   1    -0.601029394539E+03    0.82818E-02   -0.20439E+00 11046   0.210E+00    0.211E-01
RMM:   2    -0.601035850894E+03   -0.64564E-02   -0.66990E-02 13245   0.550E-01    0.687E-02
RMM:   3    -0.601037525533E+03   -0.16746E-02   -0.17313E-02 15280   0.218E-01    0.662E-02
RMM:   4    -0.601037671128E+03   -0.14560E-03   -0.20283E-03 15437   0.722E-02    0.439E-02
RMM:   5    -0.601037664229E+03    0.68990E-05   -0.43539E-04 13272   0.310E-02    0.183E-02
[...]
RMM:   5    -0.601100333857E+03   -0.17989E-05   -0.69718E-05  9948   0.144E-02
 128 F= -.60110033E+03 E0= -.60109536E+03  d E =-.541456E-03
 curvature:  -1.62 expect dE=-0.806E-03 dE for cont linesearch -0.295E-04
 ZBRENT: bisectioning
 opt :   2.2790  next Energy=  -601.100421 (dE=-0.629E-03)
 bond charge predicted
       N       E                     dE             d eps       ncg     rms          rms(c)
DAV:   1    -0.601100026778E+03    0.30528E-03   -0.93746E-02 10848   0.420E-01    0.472E-02
RMM:   2    -0.601100284751E+03   -0.25797E-03   -0.27006E-03 12568   0.101E-01    0.150E-02
RMM:   3    -0.601100347054E+03   -0.62303E-04   -0.65997E-04 14206   0.413E-02    0.147E-02
RMM:   4    -0.601100349325E+03   -0.22710E-05   -0.70684E-05  9909   0.148E-02
 129 F= -.60110035E+03 E0= -.60109540E+03  d E =-.556925E-03
 curvature:  -4.78 expect dE=-0.388E-02 dE for cont linesearch -0.549E-04
 ZBRENT: interpolating
 opt :   2.0685  next Energy=  -601.100364 (dE=-0.572E-03)
 bond charge predicted
       N       E                     dE             d eps       ncg     rms          rms(c)
DAV:   1    -0.601100280657E+03    0.66397E-04   -0.18649E-02 10734   0.188E-01    0.199E-02
RMM:   2    -0.601100336407E+03   -0.55750E-04   -0.58342E-04 12636   0.463E-02    0.673E-03
RMM:   3    -0.601100348422E+03   -0.12014E-04   -0.13371E-04 11329   0.189E-02    0.766E-03
RMM:   4    -0.601100348520E+03   -0.98174E-07   -0.17320E-05  6524   0.899E-03
 130 F= -.60110035E+03 E0= -.60109539E+03  d E =-.556119E-03
 curvature:  -1.29 expect dE=-0.837E-03 dE for cont linesearch -0.720E-05
 ZBRENT: interpolating
 opt :   2.1549  next Energy=  -601.100353 (dE=-0.560E-03)
 bond charge predicted
       N       E                     dE             d eps       ncg     rms          rms(c)
DAV:   1    -0.601100338402E+03    0.10020E-04   -0.31652E-03 11024   0.772E-02    0.779E-03
RMM:   2    -0.601100348543E+03   -0.10141E-04   -0.10585E-04  9890   0.192E-02    0.302E-03
RMM:   3    -0.601100349912E+03   -0.13689E-05   -0.22709E-05  6681   0.889E-03
 131 F= -.60110035E+03 E0= -.60109540E+03  d E =-.557511E-03
 curvature:  -0.76 expect dE=-0.541E-03 dE for cont linesearch -0.335E-05
 ZBRENT: interpolating
 opt :   2.1143  next Energy=  -601.100352 (dE=-0.559E-03)
 bond charge predicted
       N       E                     dE             d eps       ncg     rms          rms(c)
DAV:   1    -0.601100347258E+03    0.12843E-05   -0.67635E-04 10416   0.356E-02    0.474E-03
RMM:   2    -0.601100349558E+03   -0.22993E-05   -0.24064E-05  6553   0.914E-03
 132 F= -.60110035E+03 E0= -.60109539E+03  d E =-.557157E-03
 curvature:  -0.40 expect dE=-0.273E-03 dE for cont linesearch -0.562E-05
 ZBRENT: interpolating
 opt :   2.1403  next Energy=  -601.100351 (dE=-0.558E-03)
 bond charge predicted
       N       E                     dE             d eps       ncg     rms          rms(c)
DAV:   1    -0.601100349656E+03   -0.23978E-05   -0.26117E-04 10488   0.220E-02    0.303E-03
RMM:   2    -0.601100350483E+03   -0.82677E-06   -0.87927E-06  5603   0.583E-03
 133 F= -.60110035E+03 E0= -.60109540E+03  d E =-.558082E-03
 curvature:  -0.05 expect dE=-0.319E-04 dE for cont linesearch -0.122E-06
 ZBRENT: bisectioning
 opt :   2.1273  next Energy=  -601.100351 (dE=-0.559E-03)
 bond charge predicted
       N       E                     dE             d eps       ncg     rms          rms(c)
DAV:   1    -0.601100349877E+03   -0.22120E-06   -0.60474E-05  9184   0.125E-02    0.146E-03
RMM:   2    -0.601100350319E+03   -0.44152E-06   -0.50141E-06  5237   0.485E-03
 134 F= -.60110035E+03 E0= -.60109540E+03  d E =-.557918E-03
 curvature:  -0.29 expect dE=-0.198E-03 dE for cont linesearch -0.139E-05
 ZBRENT: interpolating
 opt :   2.1347  next Energy=  -601.100351 (dE=-0.558E-03)
 bond charge predicted
       N       E                     dE             d eps       ncg     rms          rms(c)
DAV:   1    -0.601100350234E+03   -0.35672E-06   -0.18012E-05  6944   0.836E-03    0.880E-04
RMM:   2    -0.601100350501E+03   -0.26738E-06   -0.28051E-06  5163   0.345E-03
 135 F= -.60110035E+03 E0= -.60109540E+03  d E =-.558101E-03
 curvature:  -0.04 expect dE=-0.271E-04 dE for cont linesearch -0.688E-07
 trial: gam= 2.15862 g(F)=  0.690E-03 g(S)=  0.000E+00 ort =-0.551E-04 (trialstep = 0.144E+00)
 search vector abs. value=  0.854E-02
 bond charge predicted
       N       E                     dE             d eps       ncg     rms          rms(c)
DAV:   1    -0.601100302119E+03    0.48115E-04   -0.42248E-02 10951   0.281E-01    0.325E-02
RMM:   2    -0.601100413269E+03   -0.11115E-03   -0.11681E-03 12301   0.673E-02    0.104E-02
RMM:   3    -0.601100444019E+03   -0.30750E-04   -0.32148E-04 12890   0.290E-02    0.938E-03
RMM:   4    -0.601100445562E+03   -0.15425E-05   -0.39246E-05  8013   0.124E-02
 136 F= -.60110045E+03 E0= -.60109550E+03  d E =-.950602E-04
 trial-energy change:   -0.000095  1 .order   -0.000072   -0.000082   -0.000061
 step:   0.5595(harm=  0.5595)  dis= 0.00217  next Energy=  -601.100510 (dE=-0.160E-03)
 bond charge predicted
       N       E                     dE             d eps       ncg     rms          rms(c)
DAV:   1    -0.601099461576E+03    0.98244E-03   -0.35046E-01 10949   0.809E-01    0.950E-02
RMM:   2    -0.601100384496E+03   -0.92292E-03   -0.97054E-03 12391   0.195E-01    0.299E-02
RMM:   3    -0.601100647959E+03   -0.26346E-03   -0.26807E-03 14866   0.833E-02    0.263E-02
RMM:   4    -0.601100664221E+03   -0.16262E-04   -0.30090E-04 13233   0.281E-02    0.123E-02
RMM:   5    -0.601100667142E+03   -0.29207E-05   -0.67595E-05  9716   0.140E-02
 137 F= -.60110067E+03 E0= -.60109577E+03  d E =-.316640E-03
 curvature:  -4.18 expect dE=-0.202E-02 dE for cont linesearch -0.211E-04
 ZBRENT: increasing intervall
 opt :   1.3907  next Energy=  -601.100659 (dE=-0.309E-03)
 bond charge predicted
       N       E                     dE             d eps       ncg     rms          rms(c)
DAV:   1    -0.601096003952E+03    0.46603E-02   -0.14057E+00 10889   0.162E+00    0.189E-01
RMM:   2    -0.601099742662E+03   -0.37387E-02   -0.39295E-02 12417   0.390E-01    0.593E-02
RMM:   3    -0.601100781801E+03   -0.10391E-02   -0.10598E-02 14965   0.165E-01    0.536E-02
RMM:   4    -0.601100843739E+03   -0.61938E-04   -0.11793E-03 14756   0.545E-02    0.247E-02
RMM:   5    -0.601100853469E+03   -0.97305E-05   -0.24137E-04 12037   0.231E-02    0.144E-02
RMM:   6    -0.601100855505E+03   -0.20354E-05   -0.54020E-05  9110   0.112E-02
 138 F= -.60110086E+03 E0= -.60109604E+03  d E =-.505003E-03
 curvature:   1.54 expect dE= 0.107E-02 dE for cont linesearch  0.976E-05
 ZBRENT: bracketing found
 ZBRENT: interpolating
 opt :   0.9512  next Energy=  -601.100708 (dE=-0.357E-03)
 bond charge predicted
       N       E                     dE             d eps       ncg     rms          rms(c)
DAV:   1    -0.601099467134E+03    0.13863E-02   -0.39084E-01 10780   0.854E-01    0.993E-02
RMM:   2    -0.601100496315E+03   -0.10292E-02   -0.10824E-02 12423   0.205E-01    0.312E-02
RMM:   3    -0.601100777740E+03   -0.28142E-03   -0.28874E-03 14918   0.868E-02    0.283E-02
RMM:   4    -0.601100792989E+03   -0.15249E-04   -0.30875E-04 13238   0.286E-02    0.134E-02
RMM:   5    -0.601100795300E+03   -0.23113E-05   -0.69114E-05  9829   0.143E-02
 139 F= -.60110080E+03 E0= -.60109593E+03  d E =-.444799E-03
 curvature:  -6.41 expect dE=-0.383E-02 dE for cont linesearch -0.168E-03
 ZBRENT: interpolating
 opt :   1.2459  next Energy=  -601.100872 (dE=-0.522E-03)
 bond charge predicted
       N       E                     dE             d eps       ncg     rms          rms(c)
DAV:   1    -0.601100263357E+03    0.52963E-03   -0.17534E-01 10838   0.572E-01    0.644E-02
RMM:   2    -0.601100718219E+03   -0.45486E-03   -0.47735E-03 12362   0.135E-01    0.206E-02
RMM:   3    -0.601100842439E+03   -0.12422E-03   -0.12821E-03 14629   0.576E-02    0.192E-02
RMM:   4    -0.601100848723E+03   -0.62838E-05   -0.14013E-04 11844   0.196E-02    0.839E-03
RMM:   5    -0.601100849914E+03   -0.11919E-05   -0.31442E-05  8019   0.986E-03
 140 F= -.60110085E+03 E0= -.60109602E+03  d E =-.499413E-03
 curvature:  -0.64 expect dE=-0.400E-03 dE for cont linesearch -0.789E-07
 trial: gam= 0.39168 g(F)=  0.624E-03 g(S)=  0.000E+00 ort =-0.324E-04 (trialstep = 0.364E+00)
 search vector abs. value=  0.191E-02
 bond charge predicted
       N       E                     dE             d eps       ncg     rms          rms(c)
DAV:   1    -0.601100835478E+03    0.13244E-04   -0.58114E-02 11248   0.339E-01    0.391E-02
RMM:   2    -0.601101014948E+03   -0.17947E-03   -0.18778E-03 13023   0.872E-02    0.119E-02
RMM:   3    -0.601101060381E+03   -0.45434E-04   -0.47773E-04 13949   0.347E-02    0.117E-02
RMM:   4    -0.601101063448E+03   -0.30671E-05   -0.55776E-05  9374   0.138E-02
 141 F= -.60110106E+03 E0= -.60109625E+03  d E =-.213534E-03
 trial-energy change:   -0.000214  1 .order   -0.000183   -0.000223   -0.000143
 step:   1.0140(harm=  1.0140)  dis= 0.00183  next Energy=  -601.101160 (dE=-0.310E-03)
 bond charge predicted
       N       E                     dE             d eps       ncg     rms          rms(c)
DAV:   1    -0.601100617561E+03    0.44282E-03   -0.18327E-01 11030   0.602E-01    0.694E-02
RMM:   2    -0.601101165697E+03   -0.54814E-03   -0.57400E-03 13000   0.153E-01    0.211E-02
RMM:   3    -0.601101306517E+03   -0.14082E-03   -0.14500E-03 14967   0.608E-02    0.196E-02
RMM:   4    -0.601101317283E+03   -0.10765E-04   -0.17008E-04 12510   0.213E-02    0.131E-02
RMM:   5    -0.601101317409E+03   -0.12687E-06   -0.49603E-05  9198   0.122E-02
 142 F= -.60110132E+03 E0= -.60109654E+03  d E =-.467495E-03
 curvature:  -1.58 expect dE=-0.476E-03 dE for cont linesearch -0.320E-04
 ZBRENT: increasing intervall
 opt :   2.3134  next Energy=  -601.101319 (dE=-0.469E-03)
 bond charge predicted
       N       E                     dE             d eps       ncg     rms          rms(c)
DAV:   1    -0.601098440952E+03    0.28763E-02   -0.73695E-01 10909   0.121E+00    0.137E-01
RMM:   2    -0.601100675282E+03   -0.22343E-02   -0.23395E-02 13010   0.309E-01    0.420E-02
RMM:   3    -0.601101255945E+03   -0.58066E-03   -0.60128E-03 15235   0.123E-01    0.419E-02
RMM:   4    -0.601101299294E+03   -0.43349E-04   -0.66189E-04 14451   0.405E-02    0.293E-02
RMM:   5    -0.601101295026E+03    0.42681E-05   -0.18650E-04 11703   0.205E-02    0.149E-02
RMM:   6    -0.601101295005E+03    0.21522E-07   -0.36986E-05  8620   0.963E-03
 143 F= -.60110130E+03 E0= -.60109659E+03  d E =-.445090E-03
 curvature:  -0.07 expect dE=-0.971E-04 dE for cont linesearch -0.585E-05
 ZBRENT: bracketing found
 ZBRENT: interpolating
 opt :   1.4509  next Energy=  -601.101360 (dE=-0.510E-03)
 bond charge predicted
       N       E                     dE             d eps       ncg     rms          rms(c)
DAV:   1    -0.601100165923E+03    0.11291E-02   -0.32250E-01 10828   0.799E-01    0.887E-02
RMM:   2    -0.601101129931E+03   -0.96401E-03   -0.10103E-02 12991   0.204E-01    0.275E-02
RMM:   3    -0.601101375940E+03   -0.24601E-03   -0.25618E-03 15176   0.810E-02    0.275E-02
RMM:   4    -0.601101393070E+03   -0.17131E-04   -0.27683E-04 13248   0.269E-02    0.190E-02
RMM:   5    -0.601101391508E+03    0.15627E-05   -0.84382E-05 10412   0.155E-02
 144 F= -.60110139E+03 E0= -.60109664E+03  d E =-.541593E-03
 curvature:  -0.54 expect dE=-0.251E-03 dE for cont linesearch -0.486E-05
 ZBRENT: bisectioning
 opt :   1.8821  next Energy=  -601.101434 (dE=-0.584E-03)
 bond charge predicted
       N       E                     dE             d eps       ncg     rms          rms(c)
DAV:   1    -0.601101082055E+03    0.31102E-03   -0.80437E-02 10936   0.399E-01    0.408E-02
RMM:   2    -0.601101318987E+03   -0.23693E-03   -0.24752E-03 12991   0.992E-02    0.136E-02
RMM:   3    -0.601101375008E+03   -0.56022E-04   -0.59696E-04 14372   0.390E-02    0.145E-02
RMM:   4    -0.601101377816E+03   -0.28073E-05   -0.64409E-05  9984   0.142E-02
 145 F= -.60110138E+03 E0= -.60109665E+03  d E =-.527901E-03
 curvature:  -4.74 expect dE=-0.379E-02 dE for cont linesearch -0.149E-03
 ZBRENT: interpolating
 opt :   1.6006  next Energy=  -601.101401 (dE=-0.551E-03)
 bond charge predicted
       N       E                     dE             d eps       ncg     rms          rms(c)
DAV:   1    -0.601101258824E+03    0.11618E-03   -0.34911E-02 10990   0.264E-01    0.264E-02
RMM:   2    -0.601101369819E+03   -0.11100E-03   -0.11642E-03 13020   0.672E-02    0.922E-03
RMM:   3    -0.601101395195E+03   -0.25377E-04   -0.27862E-04 13242   0.266E-02    0.109E-02
RMM:   4    -0.601101396263E+03   -0.10680E-05   -0.32957E-05  7549   0.110E-02
 146 F= -.60110140E+03 E0= -.60109666E+03  d E =-.546349E-03
 curvature:  -0.31 expect dE=-0.170E-03 dE for cont linesearch -0.153E-05
 trial: gam= 0.84557 g(F)=  0.549E-03 g(S)=  0.000E+00 ort = 0.971E-04 (trialstep = 0.562E+00)
 search vector abs. value=  0.208E-02
 bond charge predicted
       N       E                     dE             d eps       ncg     rms          rms(c)
DAV:   1    -0.601101050620E+03    0.34458E-03   -0.15195E-01 10998   0.557E-01    0.586E-02
RMM:   2    -0.601101528517E+03   -0.47790E-03   -0.49772E-03 13130   0.142E-01    0.186E-02
RMM:   3    -0.601101634725E+03   -0.10621E-03   -0.11183E-03 14990   0.552E-02    0.196E-02
RMM:   4    -0.601101640347E+03   -0.56229E-05   -0.12359E-04 12359   0.193E-02    0.115E-02
RMM:   5    -0.601101640259E+03    0.88367E-07   -0.35987E-05  8579   0.111E-02
 147 F= -.60110164E+03 E0= -.60109693E+03  d E =-.243996E-03
 trial-energy change:   -0.000244  1 .order   -0.000255   -0.000355   -0.000156
 step:   1.0019(harm=  1.0019)  dis= 0.00211  next Energy=  -601.101712 (dE=-0.316E-03)
 bond charge predicted
       N       E                     dE             d eps       ncg     rms          rms(c)
DAV:   1    -0.601101390188E+03    0.25016E-03   -0.93436E-02 11320   0.437E-01    0.495E-02
RMM:   2    -0.601101682893E+03   -0.29270E-03   -0.30523E-03 13144   0.111E-01    0.147E-02
RMM:   3    -0.601101750127E+03   -0.67234E-04   -0.69916E-04 14671   0.434E-02    0.141E-02
RMM:   4    -0.601101754532E+03   -0.44049E-05   -0.79932E-05 11108   0.159E-02
 148 F= -.60110175E+03 E0= -.60109706E+03  d E =-.358268E-03
 curvature:  -1.65 expect dE=-0.395E-03 dE for cont linesearch -0.387E-06
 trial: gam= 0.17146 g(F)=  0.239E-03 g(S)=  0.000E+00 ort = 0.221E-04 (trialstep = 0.650E+00)
 search vector abs. value=  0.308E-03
 bond charge predicted
       N       E                     dE             d eps       ncg     rms          rms(c)
DAV:   1    -0.601101738563E+03    0.11564E-04   -0.30283E-02 11072   0.255E-01    0.295E-02
RMM:   2    -0.601101852382E+03   -0.11382E-03   -0.12045E-03 13567   0.709E-02    0.902E-03
RMM:   3    -0.601101874984E+03   -0.22602E-04   -0.25875E-04 14087   0.272E-02    0.919E-03
RMM:   4    -0.601101876079E+03   -0.10944E-05   -0.32641E-05  8201   0.118E-02
 149 F= -.60110188E+03 E0= -.60109718E+03  d E =-.121547E-03
 trial-energy change:   -0.000122  1 .order   -0.000101   -0.000158   -0.000045
 step:   0.9073(harm=  0.9073)  dis= 0.00071  next Energy=  -601.101865 (dE=-0.110E-03)
 bond charge predicted
       N       E                     dE             d eps       ncg     rms          rms(c)
DAV:   1    -0.601101878015E+03   -0.30312E-05   -0.47842E-03 11784   0.102E-01    0.119E-02
RMM:   2    -0.601101896840E+03   -0.18824E-04   -0.19934E-04 13091   0.293E-02    0.370E-03
RMM:   3    -0.601101899803E+03   -0.29629E-05   -0.41820E-05  8081   0.116E-02
 150 F= -.60110190E+03 E0= -.60109720E+03  d E =-.145271E-03
 curvature:  -0.57 expect dE=-0.474E-04 dE for cont linesearch -0.242E-07
 trial: gam= 0.43139 g(F)=  0.824E-04 g(S)=  0.000E+00 ort = 0.360E-05 (trialstep = 0.701E+00)
 search vector abs. value=  0.143E-03
 bond charge predicted
       N       E                     dE             d eps       ncg     rms          rms(c)
DAV:   1    -0.601101885708E+03    0.11132E-04   -0.16434E-02 11040   0.188E-01    0.201E-02
RMM:   2    -0.601101946524E+03   -0.60817E-04   -0.64258E-04 13400   0.524E-02    0.684E-03
RMM:   3    -0.601101957802E+03   -0.11277E-04   -0.13641E-04 12677   0.202E-02    0.714E-03
RMM:   4    -0.601101958230E+03   -0.42821E-06   -0.20604E-05  6261   0.102E-02
 151 F= -.60110196E+03 E0= -.60109727E+03  d E =-.584272E-04
 trial-energy change:   -0.000058  1 .order   -0.000039   -0.000059   -0.000019
 step:   1.0398(harm=  1.0398)  dis= 0.00059  next Energy=  -601.101943 (dE=-0.436E-04)
 bond charge predicted
       N       E                     dE             d eps       ncg     rms          rms(c)
DAV:   1    -0.601101952633E+03    0.51684E-05   -0.38141E-03 11824   0.906E-02    0.103E-02
RMM:   2    -0.601101966506E+03   -0.13873E-04   -0.14648E-04 12241   0.254E-02    0.308E-03
RMM:   3    -0.601101968659E+03   -0.21525E-05   -0.31891E-05  7001   0.105E-02
 152 F= -.60110197E+03 E0= -.60109729E+03  d E =-.688561E-04
 curvature:  -0.88 expect dE=-0.511E-04 dE for cont linesearch -0.850E-07
 trial: gam= 0.81072 g(F)=  0.578E-04 g(S)=  0.000E+00 ort =-0.370E-05 (trialstep = 0.754E+00)
 search vector abs. value=  0.146E-03
 bond charge predicted
       N       E                     dE             d eps       ncg     rms          rms(c)
DAV:   1    -0.601101934846E+03    0.31661E-04   -0.19004E-02 11320   0.204E-01    0.205E-02
RMM:   2    -0.601102002117E+03   -0.67271E-04   -0.70245E-04 13316   0.569E-02    0.707E-03
RMM:   3    -0.601102017105E+03   -0.14988E-04   -0.16575E-04 12860   0.223E-02    0.712E-03
RMM:   4    -0.601102018236E+03   -0.11310E-05   -0.25525E-05  6534   0.113E-02
 153 F= -.60110202E+03 E0= -.60109734E+03  d E =-.495773E-04
 trial-energy change:   -0.000050  1 .order   -0.000027   -0.000041   -0.000012
 step:   1.0531(harm=  1.0531)  dis= 0.00061  next Energy=  -601.101998 (dE=-0.288E-04)
 bond charge predicted
       N       E                     dE             d eps       ncg     rms          rms(c)
DAV:   1    -0.601102017376E+03   -0.27081E-06   -0.29794E-03 12080   0.810E-02    0.884E-03
RMM:   2    -0.601102028003E+03   -0.10627E-04   -0.11145E-04 11707   0.230E-02    0.283E-03
RMM:   3    -0.601102029790E+03   -0.17877E-05   -0.25768E-05  6579   0.969E-03
 154 F= -.60110203E+03 E0= -.60109735E+03  d E =-.611314E-04
 curvature:  -1.40 expect dE=-0.390E-04 dE for cont linesearch -0.163E-08
 trial: gam= 0.58611 g(F)=  0.279E-04 g(S)=  0.000E+00 ort = 0.411E-06 (trialstep = 0.814E+00)
 search vector abs. value=  0.784E-04
 bond charge predicted
       N       E                     dE             d eps       ncg     rms          rms(c)
DAV:   1    -0.601102004984E+03    0.23018E-04   -0.11658E-02 11272   0.162E-01    0.159E-02
RMM:   2    -0.601102047836E+03   -0.42852E-04   -0.44682E-04 13354   0.467E-02    0.557E-03
RMM:   3    -0.601102058016E+03   -0.10180E-04   -0.11230E-04 12040   0.184E-02    0.564E-03
RMM:   4    -0.601102058773E+03   -0.75639E-06   -0.17403E-05  6082   0.977E-03
 155 F= -.60110206E+03 E0= -.60109739E+03  d E =-.289822E-04
 trial-energy change:   -0.000029  1 .order   -0.000014   -0.000023   -0.000004
 step:   1.0002(harm=  1.0002)  dis= 0.00039  next Energy=  -601.102044 (dE=-0.140E-04)
 reached required accuracy - stopping structural energy minimisation
Warning: ieee_invalid is signaling
Warning: ieee_divide_by_zero is signaling
Warning: ieee_underflow is signaling
Warning: ieee_inexact is signaling
FORTRAN STOP
Warning: ieee_invalid is signaling
Warning: ieee_divide_by_zero is signaling
Warning: ieee_underflow is signaling
Warning: ieee_inexact is signaling
FORTRAN STOP
Warning: ieee_invalid is signaling
Warning: ieee_divide_by_zero is signaling
Warning: ieee_underflow is signaling
Warning: ieee_inexact is signaling
FORTRAN STOP
Warning: ieee_invalid is signaling
Warning: ieee_divide_by_zero is signaling
Warning: ieee_underflow is signaling
Warning: ieee_inexact is signaling
FORTRAN STOP
