       N       E                     dE             d eps       ncg     rms          rms(c)
DAV:   1     0.217372928911E+05    0.21737E+05   -0.31781E+05 10000   0.280E+03
DAV:   2     0.482622549581E+04   -0.16911E+05   -0.15943E+05 10000   0.814E+02
DAV:   3    -0.139831172263E+03   -0.49661E+04   -0.46807E+04 12864   0.320E+02
DAV:   4    -0.760333642107E+03   -0.62050E+03   -0.60770E+03 12408   0.121E+02
DAV:   5    -0.802381455223E+03   -0.42048E+02   -0.41737E+02 14360   0.342E+01    0.610E+01
RMM:   6    -0.691831399399E+03    0.11055E+03   -0.38573E+02 13111   0.238E+01    0.211E+01
RMM:   7    -0.697890194883E+03   -0.60588E+01   -0.70915E+01 13733   0.101E+01    0.171E+01
RMM:   8    -0.693848974922E+03    0.40412E+01   -0.11357E+01 15276   0.452E+00    0.124E+01
RMM:   9    -0.694801661011E+03   -0.95269E+00   -0.77720E+00 13211   0.289E+00    0.175E+01
RMM:  10    -0.693356137002E+03    0.14455E+01   -0.35022E+00 11884   0.268E+00    0.674E+00
RMM:  11    -0.692804819892E+03    0.55132E+00   -0.85528E-01 13300   0.122E+00    0.705E+00
RMM:  12    -0.692561203494E+03    0.24362E+00   -0.12459E+00 13125   0.103E+00    0.334E+00
RMM:  13    -0.692530068363E+03    0.31135E-01   -0.16447E-01 15352   0.495E-01    0.306E+00
RMM:  14    -0.692462092364E+03    0.67976E-01   -0.38840E-02 14422   0.197E-01    0.259E+00
RMM:  15    -0.692375040617E+03    0.87052E-01   -0.46342E-02 13071   0.209E-01    0.122E+00
RMM:  16    -0.692375230520E+03   -0.18990E-03   -0.13765E-02 13499   0.136E-01    0.851E-01
RMM:  17    -0.692384570594E+03   -0.93401E-02   -0.22461E-02 13780   0.176E-01    0.143E+00
RMM:  18    -0.692378618636E+03    0.59520E-02   -0.30172E-03 14885   0.683E-02    0.111E+00
RMM:  19    -0.692372044342E+03    0.65743E-02   -0.49095E-03 13005   0.585E-02    0.974E-01
RMM:  20    -0.692368898189E+03    0.31462E-02   -0.87651E-04 12186   0.433E-02    0.354E-01
RMM:  21    -0.692368847009E+03    0.51179E-04   -0.41105E-04 11498   0.220E-02    0.243E-01
RMM:  22    -0.692368633656E+03    0.21335E-03   -0.50435E-04 11835   0.254E-02    0.121E-01
RMM:  23    -0.692368686499E+03   -0.52844E-04   -0.11673E-04 10469   0.141E-02    0.161E-01
RMM:  24    -0.692368593632E+03    0.92868E-04   -0.52446E-05  9595   0.104E-02    0.861E-02
RMM:  25    -0.692368570355E+03    0.23277E-04   -0.23149E-05  6396   0.606E-03    0.118E-02
RMM:  26    -0.692368577477E+03   -0.71216E-05   -0.50295E-06  6022   0.413E-03
   1 F= -.69236858E+03 E0= -.69235211E+03  d E =-.692369E+03
       N       E                     dE             d eps       ncg     rms          rms(c)
DAV:   1    -0.683785462424E+03    0.85831E+01   -0.15760E+03 13536   0.640E+01    0.219E+01
RMM:   2    -0.691971397818E+03   -0.81859E+01   -0.92040E+01 13574   0.191E+01    0.317E+00
RMM:   3    -0.694311002608E+03   -0.23396E+01   -0.23375E+01 15109   0.753E+00    0.967E+00
RMM:   4    -0.694647096074E+03   -0.33609E+00   -0.36278E+00 15699   0.269E+00    0.866E+00
RMM:   5    -0.694621710257E+03    0.25386E-01   -0.47415E-01 15355   0.104E+00    0.380E+00
RMM:   6    -0.694612668370E+03    0.90419E-02   -0.31844E-01 13268   0.862E-01    0.299E+00
RMM:   7    -0.694621206985E+03   -0.85386E-02   -0.15308E-01 14750   0.403E-01    0.338E+00
RMM:   8    -0.694614651296E+03    0.65557E-02   -0.49250E-02 13798   0.238E-01    0.133E+00
RMM:   9    -0.694614261142E+03    0.39015E-03   -0.24656E-02 13878   0.175E-01    0.206E-01
RMM:  10    -0.694614590062E+03   -0.32892E-03   -0.59341E-03 15499   0.794E-02    0.979E-02
RMM:  11    -0.694614655859E+03   -0.65797E-04   -0.16361E-03 12834   0.320E-02    0.876E-02
RMM:  12    -0.694614690960E+03   -0.35100E-04   -0.50221E-04 12020   0.226E-02    0.156E-02
RMM:  13    -0.694614711523E+03   -0.20564E-04   -0.21578E-04  9856   0.129E-02    0.453E-02
RMM:  14    -0.694614714401E+03   -0.28775E-05   -0.72681E-05  8412   0.102E-02
   2 F= -.69461471E+03 E0= -.69460317E+03  d E =-.224614E+01
       N       E                     dE             d eps       ncg     rms          rms(c)
DAV:   1    -0.694410055663E+03    0.20466E+00   -0.10031E+02 11966   0.142E+01    0.245E+00
RMM:   2    -0.694910815271E+03   -0.50076E+00   -0.52967E+00 13902   0.477E+00    0.141E+00
RMM:   3    -0.695041021279E+03   -0.13021E+00   -0.14937E+00 15221   0.182E+00    0.106E+00
RMM:   4    -0.695044347662E+03   -0.33264E-02   -0.20485E-01 15654   0.649E-01    0.559E-01
RMM:   5    -0.695040654285E+03    0.36934E-02   -0.33092E-02 15568   0.256E-01    0.300E-01
RMM:   6    -0.695038382377E+03    0.22719E-02   -0.14490E-02 13174   0.171E-01    0.164E-01
RMM:   7    -0.695038362736E+03    0.19640E-04   -0.35433E-03 15194   0.772E-02    0.731E-02
RMM:   8    -0.695038327672E+03    0.35064E-04   -0.82468E-04 13146   0.357E-02    0.365E-02
RMM:   9    -0.695038343813E+03   -0.16141E-04   -0.40027E-04 12495   0.231E-02    0.221E-02
RMM:  10    -0.695038346075E+03   -0.22616E-05   -0.10365E-04 10313   0.135E-02    0.988E-03
RMM:  11    -0.695038348681E+03   -0.26060E-05   -0.39284E-05  8456   0.813E-03
   3 F= -.69503835E+03 E0= -.69502467E+03  d E =-.266977E+01
       N       E                     dE             d eps       ncg     rms          rms(c)
DAV:   1    -0.694506223820E+03    0.53212E+00   -0.25002E+02 10542   0.233E+01    0.453E+00
RMM:   2    -0.695753683105E+03   -0.12475E+01   -0.13481E+01 13686   0.761E+00    0.193E+00
RMM:   3    -0.696020405814E+03   -0.26672E+00   -0.32245E+00 15367   0.291E+00    0.196E+00
RMM:   4    -0.696029939105E+03   -0.95333E-02   -0.43330E-01 15678   0.103E+00    0.172E+00
RMM:   5    -0.696003442272E+03    0.26497E-01   -0.83298E-02 15212   0.429E-01    0.777E-01
RMM:   6    -0.695997276328E+03    0.61659E-02   -0.72881E-02 12853   0.378E-01    0.547E-01
RMM:   7    -0.695994758750E+03    0.25176E-02   -0.10971E-02 15123   0.149E-01    0.292E-01
RMM:   8    -0.695994057205E+03    0.70155E-03   -0.55327E-03 13871   0.752E-02    0.655E-02
RMM:   9    -0.695994101764E+03   -0.44559E-04   -0.89382E-04 13942   0.363E-02    0.490E-02
RMM:  10    -0.695994110301E+03   -0.85372E-05   -0.30077E-04 11652   0.219E-02    0.123E-02
RMM:  11    -0.695994123528E+03   -0.13227E-04   -0.11513E-04 10004   0.135E-02    0.180E-02
RMM:  12    -0.695994121514E+03    0.20138E-05   -0.35919E-05  8927   0.947E-03
   4 F= -.69599412E+03 E0= -.69598131E+03  d E =-.955773E+00
       N       E                     dE             d eps       ncg     rms          rms(c)
DAV:   1    -0.695969454324E+03    0.24669E-01   -0.10992E+01 11424   0.487E+00    0.648E-01
RMM:   2    -0.696014068900E+03   -0.44615E-01   -0.48817E-01 13611   0.144E+00    0.431E-01
RMM:   3    -0.696022250554E+03   -0.81817E-02   -0.11099E-01 15288   0.536E-01    0.303E-01
RMM:   4    -0.696022283355E+03   -0.32801E-04   -0.14335E-02 15612   0.191E-01    0.218E-01
RMM:   5    -0.696021109793E+03    0.11736E-02   -0.40327E-03 14515   0.908E-02    0.812E-02
RMM:   6    -0.696021031230E+03    0.78563E-04   -0.18049E-03 13260   0.562E-02    0.450E-02
RMM:   7    -0.696021010817E+03    0.20413E-04   -0.33304E-04 12983   0.264E-02    0.238E-02
RMM:   8    -0.696021010035E+03    0.78245E-06   -0.14267E-04 10202   0.149E-02    0.829E-03
RMM:   9    -0.696021010766E+03   -0.73086E-06   -0.32901E-05  8650   0.938E-03
   5 F= -.69602101E+03 E0= -.69600863E+03  d E =-.982662E+00
       N       E                     dE             d eps       ncg     rms          rms(c)
DAV:   1    -0.695630970178E+03    0.39004E+00   -0.20831E+02 10306   0.202E+01    0.495E+00
RMM:   2    -0.696488182649E+03   -0.85721E+00   -0.99178E+00 13485   0.593E+00    0.127E+00
RMM:   3    -0.696690503057E+03   -0.20232E+00   -0.23500E+00 15513   0.229E+00    0.187E+00
RMM:   4    -0.696709517623E+03   -0.19015E-01   -0.30130E-01 15628   0.801E-01    0.170E+00
RMM:   5    -0.696694261736E+03    0.15256E-01   -0.62080E-02 14606   0.362E-01    0.620E-01
RMM:   6    -0.696694801925E+03   -0.54019E-03   -0.39543E-02 13119   0.256E-01    0.546E-01
RMM:   7    -0.696691835318E+03    0.29666E-02   -0.90499E-03 14820   0.124E-01    0.189E-01
RMM:   8    -0.696691810911E+03    0.24407E-04   -0.41537E-03 13945   0.630E-02    0.712E-02
RMM:   9    -0.696691845872E+03   -0.34962E-04   -0.66793E-04 12905   0.342E-02    0.515E-02
RMM:  10    -0.696691864088E+03   -0.18215E-04   -0.37568E-04 11447   0.202E-02    0.257E-02
RMM:  11    -0.696691861388E+03    0.26994E-05   -0.75482E-05  9627   0.119E-02
   6 F= -.69669186E+03 E0= -.69668460E+03  d E =-.670851E+00
       N       E                     dE             d eps       ncg     rms          rms(c)
DAV:   1    -0.696523298774E+03    0.16857E+00   -0.53754E+01 11008   0.102E+01    0.182E+00
RMM:   2    -0.696728749827E+03   -0.20545E+00   -0.23314E+00 13373   0.289E+00    0.622E-01
RMM:   3    -0.696775666793E+03   -0.46917E-01   -0.54121E-01 15503   0.111E+00    0.569E-01
RMM:   4    -0.696778546587E+03   -0.28798E-02   -0.67852E-02 15573   0.387E-01    0.434E-01
RMM:   5    -0.696776170441E+03    0.23761E-02   -0.16668E-02 14895   0.180E-01    0.106E-01
RMM:   6    -0.696776373699E+03   -0.20326E-03   -0.49329E-03 13821   0.922E-02    0.778E-02
RMM:   7    -0.696776385950E+03   -0.12252E-04   -0.16325E-03 14565   0.483E-02    0.235E-02
RMM:   8    -0.696776412235E+03   -0.26285E-04   -0.40096E-04 11421   0.230E-02    0.128E-02
RMM:   9    -0.696776420484E+03   -0.82485E-05   -0.13334E-04 10046   0.136E-02    0.523E-03
RMM:  10    -0.696776424391E+03   -0.39074E-05   -0.46495E-05  8514   0.820E-03
   7 F= -.69677642E+03 E0= -.69677354E+03  d E =-.755414E+00
       N       E                     dE             d eps       ncg     rms          rms(c)
DAV:   1    -0.696135192821E+03    0.64123E+00   -0.25065E+02 10326   0.217E+01    0.726E+00
RMM:   2    -0.697194401236E+03   -0.10592E+01   -0.11980E+01 13436   0.626E+00    0.164E+00
RMM:   3    -0.697410586405E+03   -0.21619E+00   -0.25756E+00 15493   0.242E+00    0.173E+00
RMM:   4    -0.697423354475E+03   -0.12768E-01   -0.31184E-01 15557   0.830E-01    0.127E+00
RMM:   5    -0.697413211779E+03    0.10143E-01   -0.86821E-02 14843   0.407E-01    0.220E-01
RMM:   6    -0.697414183282E+03   -0.97150E-03   -0.21478E-02 14818   0.191E-01    0.200E-01
RMM:   7    -0.697414408911E+03   -0.22563E-03   -0.67245E-03 15203   0.936E-02    0.552E-02
RMM:   8    -0.697414565605E+03   -0.15669E-03   -0.18434E-03 13452   0.461E-02    0.241E-02
RMM:   9    -0.697414610795E+03   -0.45190E-04   -0.58768E-04 11560   0.260E-02    0.100E-02
RMM:  10    -0.697414630532E+03   -0.19737E-04   -0.21491E-04 10178   0.153E-02    0.111E-02
RMM:  11    -0.697414634866E+03   -0.43333E-05   -0.69059E-05  9428   0.983E-03
   8 F= -.69741463E+03 E0= -.69740879E+03  d E =-.638210E+00
       N       E                     dE             d eps       ncg     rms          rms(c)
DAV:   1    -0.697334449993E+03    0.80181E-01   -0.39646E+01 10760   0.869E+00    0.245E+00
RMM:   2    -0.697486774832E+03   -0.15232E+00   -0.17959E+00 13312   0.239E+00    0.813E-01
RMM:   3    -0.697509985690E+03   -0.23211E-01   -0.33783E-01 15412   0.899E-01    0.417E-01
RMM:   4    -0.697510441268E+03   -0.45558E-03   -0.44326E-02 15395   0.315E-01    0.187E-01
RMM:   5    -0.697510549356E+03   -0.10809E-03   -0.10741E-02 15566   0.141E-01    0.504E-02
RMM:   6    -0.697510761702E+03   -0.21235E-03   -0.25309E-03 14683   0.662E-02    0.320E-02
RMM:   7    -0.697510825974E+03   -0.64272E-04   -0.78011E-04 13250   0.339E-02    0.115E-02
RMM:   8    -0.697510845932E+03   -0.19958E-04   -0.23805E-04 10624   0.181E-02    0.453E-03
RMM:   9    -0.697510852360E+03   -0.64281E-05   -0.80228E-05  9777   0.107E-02
   9 F= -.69751085E+03 E0= -.69750585E+03  d E =-.734428E+00
       N       E                     dE             d eps       ncg     rms          rms(c)
DAV:   1    -0.696284322997E+03    0.12265E+01   -0.27319E+02 10159   0.228E+01    0.115E+01
RMM:   2    -0.697593974470E+03   -0.13097E+01   -0.13961E+01 13576   0.635E+00    0.214E+00
RMM:   3    -0.697710648745E+03   -0.11667E+00   -0.19812E+00 15406   0.230E+00    0.111E+00
RMM:   4    -0.697716893303E+03   -0.62446E-02   -0.30290E-01 15537   0.823E-01    0.737E-01
RMM:   5    -0.697710101564E+03    0.67917E-02   -0.73207E-02 15129   0.374E-01    0.254E-01
RMM:   6    -0.697710894488E+03   -0.79292E-03   -0.16319E-02 15645   0.166E-01    0.112E-01
RMM:   7    -0.697711246488E+03   -0.35200E-03   -0.42785E-03 15233   0.780E-02    0.471E-02
RMM:   8    -0.697711369993E+03   -0.12351E-03   -0.13846E-03 13151   0.412E-02    0.131E-02
RMM:   9    -0.697711412081E+03   -0.42087E-04   -0.44822E-04 11135   0.229E-02    0.711E-03
RMM:  10    -0.697711426282E+03   -0.14201E-04   -0.15913E-04 10219   0.137E-02    0.380E-03
RMM:  11    -0.697711430575E+03   -0.42934E-05   -0.56037E-05  9195   0.844E-03
  10 F= -.69771143E+03 E0= -.69770442E+03  d E =-.200578E+00
       N       E                     dE             d eps       ncg     rms          rms(c)
DAV:   1    -0.697666984787E+03    0.44441E-01   -0.28948E+01 10084   0.729E+00    0.223E+00
RMM:   2    -0.697792540037E+03   -0.12556E+00   -0.13924E+00 13193   0.204E+00    0.104E+00
RMM:   3    -0.697809058164E+03   -0.16518E-01   -0.26006E-01 15386   0.772E-01    0.631E-01
RMM:   4    -0.697809303262E+03   -0.24510E-03   -0.30079E-02 15273   0.273E-01    0.214E-01
RMM:   5    -0.697809732662E+03   -0.42940E-03   -0.62839E-03 15718   0.117E-01    0.712E-02
RMM:   6    -0.697809819703E+03   -0.87041E-04   -0.13861E-03 15061   0.527E-02    0.377E-02
RMM:   7    -0.697809853974E+03   -0.34271E-04   -0.39980E-04 12408   0.262E-02    0.753E-03
RMM:   8    -0.697809863371E+03   -0.93969E-05   -0.12216E-04 10387   0.145E-02    0.541E-03
RMM:   9    -0.697809866832E+03   -0.34614E-05   -0.43166E-05  8990   0.903E-03
  11 F= -.69780987E+03 E0= -.69780512E+03  d E =-.299014E+00
       N       E                     dE             d eps       ncg     rms          rms(c)
DAV:   1    -0.697750312001E+03    0.59551E-01   -0.60240E+01 10760   0.117E+01    0.134E+00
RMM:   2    -0.697968306120E+03   -0.21799E+00   -0.23710E+00 13531   0.328E+00    0.511E-01
RMM:   3    -0.698009284764E+03   -0.40979E-01   -0.50251E-01 15182   0.122E+00    0.475E-01
RMM:   4    -0.698008113781E+03    0.11710E-02   -0.58893E-02 15450   0.419E-01    0.209E-01
RMM:   5    -0.698007517483E+03    0.59630E-03   -0.15819E-02 15067   0.197E-01    0.860E-02
RMM:   6    -0.698007668446E+03   -0.15096E-03   -0.30136E-03 15626   0.835E-02    0.498E-02
RMM:   7    -0.698007703764E+03   -0.35318E-04   -0.90737E-04 13206   0.451E-02    0.249E-02
RMM:   8    -0.698007717134E+03   -0.13370E-04   -0.26179E-04 12835   0.226E-02    0.732E-03
RMM:   9    -0.698007723161E+03   -0.60273E-05   -0.73880E-05  9391   0.113E-02
  12 F= -.69800772E+03 E0= -.69800242E+03  d E =-.197856E+00
       N       E                     dE             d eps       ncg     rms          rms(c)
DAV:   1    -0.698001733403E+03    0.59837E-02   -0.34932E+00 11440   0.280E+00    0.325E-01
RMM:   2    -0.698013875623E+03   -0.12142E-01   -0.13243E-01 13496   0.761E-01    0.123E-01
RMM:   3    -0.698016004490E+03   -0.21289E-02   -0.26491E-02 15244   0.281E-01    0.111E-01
RMM:   4    -0.698015920645E+03    0.83845E-04   -0.30948E-03 15381   0.963E-02    0.467E-02
RMM:   5    -0.698015892591E+03    0.28054E-04   -0.83967E-04 14833   0.445E-02    0.205E-02
RMM:   6    -0.698015899395E+03   -0.68037E-05   -0.15691E-04 12383   0.192E-02    0.115E-02
RMM:   7    -0.698015901616E+03   -0.22212E-05   -0.51194E-05  9197   0.112E-02
  13 F= -.69801590E+03 E0= -.69801054E+03  d E =-.206035E+00
       N       E                     dE             d eps       ncg     rms          rms(c)
DAV:   1    -0.697943968878E+03    0.71931E-01   -0.41078E+01 10544   0.936E+00    0.102E+00
RMM:   2    -0.698082854152E+03   -0.13889E+00   -0.14748E+00 13281   0.253E+00    0.328E-01
RMM:   3    -0.698112464221E+03   -0.29610E-01   -0.32754E-01 15137   0.961E-01    0.349E-01
RMM:   4    -0.698113479696E+03   -0.10155E-02   -0.35773E-02 15353   0.319E-01    0.192E-01
RMM:   5    -0.698112986499E+03    0.49320E-03   -0.10005E-02 14685   0.151E-01    0.872E-02
RMM:   6    -0.698113077436E+03   -0.90937E-04   -0.19947E-03 15546   0.661E-02    0.541E-02
RMM:   7    -0.698113083098E+03   -0.56618E-05   -0.66149E-04 13922   0.338E-02    0.205E-02
RMM:   8    -0.698113091962E+03   -0.88642E-05   -0.16584E-04 10659   0.175E-02    0.107E-02
RMM:   9    -0.698113094997E+03   -0.30352E-05   -0.55616E-05  8980   0.108E-02
  14 F= -.69811309E+03 E0= -.69810713E+03  d E =-.971934E-01
       N       E                     dE             d eps       ncg     rms          rms(c)
DAV:   1    -0.698098650445E+03    0.14442E-01   -0.59167E+00 11224   0.355E+00    0.389E-01
RMM:   2    -0.698118256463E+03   -0.19606E-01   -0.20835E-01 13226   0.941E-01    0.124E-01
RMM:   3    -0.698122344068E+03   -0.40876E-02   -0.45266E-02 15133   0.357E-01    0.131E-01
RMM:   4    -0.698122461981E+03   -0.11791E-03   -0.49325E-03 15255   0.118E-01    0.683E-02
RMM:   5    -0.698122410282E+03    0.51699E-04   -0.14069E-03 14726   0.556E-02    0.340E-02
RMM:   6    -0.698122419943E+03   -0.96608E-05   -0.27812E-04 13167   0.242E-02    0.191E-02
RMM:   7    -0.698122421825E+03   -0.18827E-05   -0.91857E-05  9664   0.129E-02
  15 F= -.69812242E+03 E0= -.69811625E+03  d E =-.106520E+00
       N       E                     dE             d eps       ncg     rms          rms(c)
DAV:   1    -0.698072179287E+03    0.50241E-01   -0.26109E+01 10448   0.737E+00    0.110E+00
RMM:   2    -0.698158626528E+03   -0.86447E-01   -0.93293E-01 13099   0.196E+00    0.411E-01
RMM:   3    -0.698177424576E+03   -0.18798E-01   -0.21070E-01 15267   0.758E-01    0.295E-01
RMM:   4    -0.698178432784E+03   -0.10082E-02   -0.22997E-02 15394   0.249E-01    0.194E-01
RMM:   5    -0.698178048834E+03    0.38395E-03   -0.62415E-03 14781   0.115E-01    0.598E-02
RMM:   6    -0.698178096402E+03   -0.47569E-04   -0.12106E-03 15576   0.501E-02    0.326E-02
RMM:   7    -0.698178115499E+03   -0.19097E-04   -0.37891E-04 12561   0.236E-02    0.126E-02
RMM:   8    -0.698178121333E+03   -0.58342E-05   -0.95174E-05  9866   0.138E-02
  16 F= -.69817812E+03 E0= -.69817235E+03  d E =-.556995E-01
       N       E                     dE             d eps       ncg     rms          rms(c)
DAV:   1    -0.698168230276E+03    0.98852E-02   -0.40829E+00 11096   0.291E+00    0.425E-01
RMM:   2    -0.698181641170E+03   -0.13411E-01   -0.14502E-01 13102   0.768E-01    0.165E-01
RMM:   3    -0.698184503011E+03   -0.28618E-02   -0.32183E-02 15263   0.295E-01    0.120E-01
RMM:   4    -0.698184659519E+03   -0.15651E-03   -0.35853E-03 15210   0.979E-02    0.806E-02
RMM:   5    -0.698184599291E+03    0.60228E-04   -0.10234E-03 14653   0.465E-02    0.253E-02
RMM:   6    -0.698184604884E+03   -0.55928E-05   -0.19203E-04 12385   0.199E-02    0.135E-02
RMM:   7    -0.698184607763E+03   -0.28795E-05   -0.64959E-05  9359   0.107E-02
  17 F= -.69818461E+03 E0= -.69817914E+03  d E =-.621859E-01
       N       E                     dE             d eps       ncg     rms          rms(c)
DAV:   1    -0.698150944730E+03    0.33660E-01   -0.22187E+01 10456   0.677E+00    0.119E+00
RMM:   2    -0.698221772774E+03   -0.70828E-01   -0.80810E-01 13112   0.180E+00    0.474E-01
RMM:   3    -0.698237769935E+03   -0.15997E-01   -0.18702E-01 15238   0.707E-01    0.286E-01
RMM:   4    -0.698238910109E+03   -0.11402E-02   -0.21212E-02 15356   0.235E-01    0.202E-01
RMM:   5    -0.698238453738E+03    0.45637E-03   -0.50574E-03 14511   0.105E-01    0.393E-02
RMM:   6    -0.698238538629E+03   -0.84892E-04   -0.10906E-03 14613   0.487E-02    0.259E-02
RMM:   7    -0.698238563346E+03   -0.24717E-04   -0.33396E-04 12590   0.229E-02    0.124E-02
RMM:   8    -0.698238570191E+03   -0.68450E-05   -0.90556E-05  9661   0.136E-02
  18 F= -.69823857E+03 E0= -.69823404E+03  d E =-.539624E-01
       N       E                     dE             d eps       ncg     rms          rms(c)
DAV:   1    -0.698152401796E+03    0.86162E-01   -0.30509E+01 10608   0.793E+00    0.142E+00
RMM:   2    -0.698249488387E+03   -0.97087E-01   -0.11175E+00 13108   0.212E+00    0.580E-01
RMM:   3    -0.698271618459E+03   -0.22130E-01   -0.25912E-01 15235   0.833E-01    0.335E-01
RMM:   4    -0.698273217763E+03   -0.15993E-02   -0.29749E-02 15366   0.278E-01    0.239E-01
RMM:   5    -0.698272575540E+03    0.64222E-03   -0.69197E-03 14679   0.123E-01    0.473E-02
RMM:   6    -0.698272695965E+03   -0.12042E-03   -0.15237E-03 14689   0.567E-02    0.309E-02
RMM:   7    -0.698272729383E+03   -0.33419E-04   -0.45541E-04 13053   0.268E-02    0.154E-02
RMM:   8    -0.698272739202E+03   -0.98184E-05   -0.12667E-04 10065   0.154E-02    0.605E-03
RMM:   9    -0.698272742284E+03   -0.30825E-05   -0.43143E-05  8922   0.866E-03
  19 F= -.69827274E+03 E0= -.69826932E+03  d E =-.881345E-01
       N       E                     dE             d eps       ncg     rms          rms(c)
DAV:   1    -0.697732036593E+03    0.54070E+00   -0.12161E+02 10454   0.159E+01    0.312E+00
RMM:   2    -0.698135640070E+03   -0.40360E+00   -0.46393E+00 13235   0.436E+00    0.110E+00
RMM:   3    -0.698230832920E+03   -0.95193E-01   -0.10711E+00 15273   0.171E+00    0.648E-01
RMM:   4    -0.698238624353E+03   -0.77914E-02   -0.12563E-01 15388   0.573E-01    0.489E-01
RMM:   5    -0.698236382728E+03    0.22416E-02   -0.26768E-02 14918   0.249E-01    0.103E-01
RMM:   6    -0.698236868908E+03   -0.48618E-03   -0.63518E-03 14457   0.117E-01    0.705E-02
RMM:   7    -0.698236998101E+03   -0.12919E-03   -0.19872E-03 14880   0.575E-02    0.397E-02
RMM:   8    -0.698237029806E+03   -0.31705E-04   -0.46623E-04 11878   0.261E-02    0.162E-02
RMM:   9    -0.698237042291E+03   -0.12485E-04   -0.16040E-04 10267   0.147E-02    0.591E-03
RMM:  10    -0.698237047006E+03   -0.47154E-05   -0.53054E-05  8986   0.865E-03
  20 F= -.69823705E+03 E0= -.69823500E+03  d E =-.524392E-01
       N       E                     dE             d eps       ncg     rms          rms(c)
DAV:   1    -0.697992007016E+03    0.24504E+00   -0.70549E+01 10347   0.121E+01    0.176E+00
RMM:   2    -0.698219785321E+03   -0.22778E+00   -0.25931E+00 13152   0.326E+00    0.758E-01
RMM:   3    -0.698275160769E+03   -0.55375E-01   -0.62168E-01 15238   0.129E+00    0.571E-01
RMM:   4    -0.698279066301E+03   -0.39055E-02   -0.70674E-02 15404   0.429E-01    0.431E-01
RMM:   5    -0.698277489092E+03    0.15772E-02   -0.19670E-02 14503   0.204E-01    0.111E-01
RMM:   6    -0.698277599821E+03   -0.11073E-03   -0.36404E-03 14912   0.911E-02    0.668E-02
RMM:   7    -0.698277633019E+03   -0.33198E-04   -0.12480E-03 14485   0.426E-02    0.226E-02
RMM:   8    -0.698277652109E+03   -0.19090E-04   -0.25949E-04 11161   0.213E-02    0.906E-03
RMM:   9    -0.698277661256E+03   -0.91469E-05   -0.99732E-05  9749   0.117E-02
  21 F= -.69827766E+03 E0= -.69827466E+03  d E =-.930535E-01
       N       E                     dE             d eps       ncg     rms          rms(c)
DAV:   1    -0.698289734202E+03   -0.12082E-01   -0.44346E+00 10471   0.301E+00    0.548E-01
RMM:   2    -0.698302245323E+03   -0.12511E-01   -0.16143E-01 12994   0.793E-01    0.246E-01
RMM:   3    -0.698305467204E+03   -0.32219E-02   -0.38264E-02 15247   0.317E-01    0.131E-01
RMM:   4    -0.698305791450E+03   -0.32425E-03   -0.47403E-03 15338   0.109E-01    0.921E-02
RMM:   5    -0.698305758042E+03    0.33408E-04   -0.10528E-03 14562   0.475E-02    0.172E-02
RMM:   6    -0.698305780693E+03   -0.22651E-04   -0.25148E-04 12472   0.224E-02    0.118E-02
RMM:   7    -0.698305786574E+03   -0.58809E-05   -0.77396E-05  9783   0.120E-02
  22 F= -.69830579E+03 E0= -.69830328E+03  d E =-.281253E-01
       N       E                     dE             d eps       ncg     rms          rms(c)
DAV:   1    -0.698233358859E+03    0.72422E-01   -0.39807E+01 10528   0.905E+00    0.175E+00
RMM:   2    -0.698349517721E+03   -0.11616E+00   -0.14880E+00 13014   0.245E+00    0.705E-01
RMM:   3    -0.698382572441E+03   -0.33055E-01   -0.37231E-01 15292   0.988E-01    0.381E-01
RMM:   4    -0.698386018413E+03   -0.34460E-02   -0.45974E-02 15464   0.339E-01    0.292E-01
RMM:   5    -0.698385707912E+03    0.31050E-03   -0.96008E-03 14465   0.147E-01    0.610E-02
RMM:   6    -0.698385926387E+03   -0.21847E-03   -0.25561E-03 14814   0.720E-02    0.421E-02
RMM:   7    -0.698385979559E+03   -0.53172E-04   -0.78564E-04 14018   0.346E-02    0.221E-02
RMM:   8    -0.698385994704E+03   -0.15146E-04   -0.19165E-04 10597   0.182E-02    0.922E-03
RMM:   9    -0.698386000014E+03   -0.53095E-05   -0.67854E-05  9435   0.993E-03
  23 F= -.69838600E+03 E0= -.69838455E+03  d E =-.108339E+00
       N       E                     dE             d eps       ncg     rms          rms(c)
DAV:   1    -0.697832202277E+03    0.55379E+00   -0.15816E+02 10590   0.182E+01    0.399E+00
RMM:   2    -0.698342101183E+03   -0.50990E+00   -0.62307E+00 13169   0.506E+00    0.118E+00
RMM:   3    -0.698481346655E+03   -0.13925E+00   -0.15409E+00 15348   0.203E+00    0.943E-01
RMM:   4    -0.698495614710E+03   -0.14268E-01   -0.19021E-01 15459   0.697E-01    0.786E-01
RMM:   5    -0.698494253591E+03    0.13611E-02   -0.39398E-02 14589   0.308E-01    0.166E-01
RMM:   6    -0.698495180759E+03   -0.92717E-03   -0.11758E-02 14389   0.161E-01    0.177E-01
RMM:   7    -0.698495234559E+03   -0.53800E-04   -0.44325E-03 14853   0.831E-02    0.497E-02
RMM:   8    -0.698495291137E+03   -0.56578E-04   -0.85460E-04 13648   0.387E-02    0.309E-02
RMM:   9    -0.698495308622E+03   -0.17485E-04   -0.26640E-04 11048   0.200E-02    0.128E-02
RMM:  10    -0.698495316058E+03   -0.74357E-05   -0.87307E-05  9467   0.117E-02
  24 F= -.69849532E+03 E0= -.69849403E+03  d E =-.217655E+00
       N       E                     dE             d eps       ncg     rms          rms(c)
DAV:   1    -0.698528199275E+03   -0.32891E-01   -0.10147E+01 10912   0.456E+00    0.853E-01
RMM:   2    -0.698561653713E+03   -0.33454E-01   -0.41566E-01 13137   0.125E+00    0.311E-01
RMM:   3    -0.698570132027E+03   -0.84783E-02   -0.97605E-02 15354   0.494E-01    0.207E-01
RMM:   4    -0.698570883312E+03   -0.75128E-03   -0.11992E-02 15422   0.172E-01    0.127E-01
RMM:   5    -0.698570944903E+03   -0.61591E-04   -0.29006E-03 15007   0.773E-02    0.286E-02
RMM:   6    -0.698571009050E+03   -0.64147E-04   -0.73148E-04 14278   0.376E-02    0.190E-02
RMM:   7    -0.698571028034E+03   -0.18984E-04   -0.22693E-04 11215   0.188E-02    0.822E-03
RMM:   8    -0.698571031768E+03   -0.37343E-05   -0.61103E-05  9505   0.118E-02
  25 F= -.69857103E+03 E0= -.69856946E+03  d E =-.757157E-01
       N       E                     dE             d eps       ncg     rms          rms(c)
DAV:   1    -0.698279808766E+03    0.29122E+00   -0.91513E+01 10320   0.138E+01    0.359E+00
RMM:   2    -0.698622666095E+03   -0.34286E+00   -0.40442E+00 13349   0.391E+00    0.105E+00
RMM:   3    -0.698703362769E+03   -0.80697E-01   -0.93499E-01 15343   0.154E+00    0.763E-01
RMM:   4    -0.698710156461E+03   -0.67937E-02   -0.11656E-01 15419   0.534E-01    0.485E-01
RMM:   5    -0.698710594231E+03   -0.43777E-03   -0.25894E-02 15150   0.235E-01    0.116E-01
RMM:   6    -0.698711243946E+03   -0.64971E-03   -0.67096E-03 15424   0.114E-01    0.720E-02
RMM:   7    -0.698711389786E+03   -0.14584E-03   -0.19807E-03 15088   0.539E-02    0.235E-02
RMM:   8    -0.698711433149E+03   -0.43363E-04   -0.51843E-04 11653   0.268E-02    0.133E-02
RMM:   9    -0.698711442066E+03   -0.89168E-05   -0.16166E-04 10392   0.159E-02    0.423E-03
RMM:  10    -0.698711446729E+03   -0.46630E-05   -0.58377E-05  9320   0.917E-03
  26 F= -.69871145E+03 E0= -.69870966E+03  d E =-.216131E+00
       N       E                     dE             d eps       ncg     rms          rms(c)
DAV:   1    -0.698778982014E+03   -0.67540E-01   -0.71230E+00 10816   0.374E+00    0.715E-01
RMM:   2    -0.698805727605E+03   -0.26746E-01   -0.28338E-01 13261   0.986E-01    0.219E-01
RMM:   3    -0.698810222069E+03   -0.44945E-02   -0.53174E-02 15368   0.366E-01    0.149E-01
RMM:   4    -0.698810323025E+03   -0.10096E-03   -0.56225E-03 15170   0.123E-01    0.740E-02
RMM:   5    -0.698810324179E+03   -0.11538E-05   -0.13933E-03 14939   0.548E-02    0.167E-02
RMM:   6    -0.698810348912E+03   -0.24733E-04   -0.29741E-04 12950   0.246E-02    0.117E-02
RMM:   7    -0.698810356976E+03   -0.80636E-05   -0.90885E-05  9903   0.125E-02
  27 F= -.69881036E+03 E0= -.69880868E+03  d E =-.989102E-01
       N       E                     dE             d eps       ncg     rms          rms(c)
DAV:   1    -0.698750183760E+03    0.60165E-01   -0.49772E+01 10174   0.988E+00    0.219E+00
RMM:   2    -0.698942624488E+03   -0.19244E+00   -0.20364E+00 13385   0.263E+00    0.624E-01
RMM:   3    -0.698972886577E+03   -0.30262E-01   -0.36913E-01 15379   0.966E-01    0.402E-01
RMM:   4    -0.698973435482E+03   -0.54891E-03   -0.39628E-02 15318   0.324E-01    0.188E-01
RMM:   5    -0.698973515768E+03   -0.80286E-04   -0.93997E-03 15266   0.143E-01    0.425E-02
RMM:   6    -0.698973695514E+03   -0.17975E-03   -0.20585E-03 15290   0.642E-02    0.295E-02
RMM:   7    -0.698973751826E+03   -0.56312E-04   -0.59653E-04 13074   0.304E-02    0.113E-02
RMM:   8    -0.698973767654E+03   -0.15828E-04   -0.17588E-04 10327   0.166E-02    0.323E-03
RMM:   9    -0.698973773019E+03   -0.53644E-05   -0.63159E-05  9353   0.103E-02
  28 F= -.69897377E+03 E0= -.69897246E+03  d E =-.262326E+00
       N       E                     dE             d eps       ncg     rms          rms(c)
DAV:   1    -0.697772262537E+03    0.12015E+01   -0.20041E+02 10180   0.198E+01    0.616E+00
RMM:   2    -0.698596683252E+03   -0.82442E+00   -0.87399E+00 13547   0.538E+00    0.164E+00
RMM:   3    -0.698709245895E+03   -0.11256E+00   -0.15115E+00 15411   0.195E+00    0.867E-01
RMM:   4    -0.698708875500E+03    0.37039E-03   -0.16981E-01 15254   0.662E-01    0.316E-01
RMM:   5    -0.698710369488E+03   -0.14940E-02   -0.35232E-02 15489   0.280E-01    0.102E-01
RMM:   6    -0.698711064087E+03   -0.69460E-03   -0.77917E-03 15607   0.126E-01    0.560E-02
RMM:   7    -0.698711277042E+03   -0.21296E-03   -0.22995E-03 14902   0.602E-02    0.228E-02
RMM:   8    -0.698711340964E+03   -0.63921E-04   -0.68231E-04 12874   0.314E-02    0.657E-03
RMM:   9    -0.698711362385E+03   -0.21422E-04   -0.23381E-04 10258   0.167E-02    0.394E-03
RMM:  10    -0.698711368633E+03   -0.62478E-05   -0.75922E-05  9547   0.103E-02
  29 F= -.69871137E+03 E0= -.69871060E+03  d E =0.780958E-04
       N       E                     dE             d eps       ncg     rms          rms(c)
DAV:   1    -0.698339670746E+03    0.37169E+00   -0.13734E+02 10112   0.163E+01    0.382E+00
RMM:   2    -0.698910245737E+03   -0.57057E+00   -0.61289E+00 13587   0.448E+00    0.151E+00
RMM:   3    -0.698990889646E+03   -0.80644E-01   -0.10719E+00 15406   0.161E+00    0.105E+00
RMM:   4    -0.698992403877E+03   -0.15142E-02   -0.10630E-01 15404   0.533E-01    0.560E-01
RMM:   5    -0.698991425349E+03    0.97853E-03   -0.26112E-02 14879   0.237E-01    0.808E-02
RMM:   6    -0.698991795572E+03   -0.37022E-03   -0.54075E-03 15240   0.109E-01    0.522E-02
RMM:   7    -0.698991949118E+03   -0.15355E-03   -0.16274E-03 14820   0.488E-02    0.262E-02
RMM:   8    -0.698991984620E+03   -0.35502E-04   -0.41465E-04 11395   0.246E-02    0.777E-03
RMM:   9    -0.698991999315E+03   -0.14695E-04   -0.15537E-04 10068   0.135E-02    0.365E-03
RMM:  10    -0.698992003027E+03   -0.37122E-05   -0.47842E-05  9082   0.867E-03
  30 F= -.69899200E+03 E0= -.69899082E+03  d E =-.280556E+00
       N       E                     dE             d eps       ncg     rms          rms(c)
DAV:   1    -0.699043306910E+03   -0.51308E-01   -0.13647E+01 10214   0.530E+00    0.612E-01
RMM:   2    -0.699085080425E+03   -0.41774E-01   -0.45380E-01 12873   0.134E+00    0.228E-01
RMM:   3    -0.699093903320E+03   -0.88229E-02   -0.10102E-01 15121   0.524E-01    0.230E-01
RMM:   4    -0.699094107353E+03   -0.20403E-03   -0.10096E-02 15138   0.169E-01    0.126E-01
RMM:   5    -0.699094022897E+03    0.84456E-04   -0.27711E-03 14338   0.787E-02    0.497E-02
RMM:   6    -0.699094040313E+03   -0.17416E-04   -0.57431E-04 14991   0.351E-02    0.271E-02
RMM:   7    -0.699094049329E+03   -0.90158E-05   -0.17585E-04 10633   0.167E-02    0.158E-02
RMM:   8    -0.699094050081E+03   -0.75209E-06   -0.43429E-05  8977   0.107E-02
  31 F= -.69909405E+03 E0= -.69909322E+03  d E =-.102047E+00
       N       E                     dE             d eps       ncg     rms          rms(c)
DAV:   1    -0.698925898792E+03    0.16815E+00   -0.68944E+01 10510   0.119E+01    0.138E+00
RMM:   2    -0.699142728334E+03   -0.21683E+00   -0.23511E+00 12973   0.307E+00    0.512E-01
RMM:   3    -0.699188714136E+03   -0.45986E-01   -0.52624E-01 15134   0.120E+00    0.521E-01
RMM:   4    -0.699189885844E+03   -0.11717E-02   -0.52404E-02 15168   0.382E-01    0.295E-01
RMM:   5    -0.699189337967E+03    0.54788E-03   -0.14559E-02 14199   0.181E-01    0.110E-01
RMM:   6    -0.699189442120E+03   -0.10415E-03   -0.30648E-03 15543   0.823E-02    0.614E-02
RMM:   7    -0.699189490708E+03   -0.48589E-04   -0.93905E-04 14263   0.382E-02    0.382E-02
RMM:   8    -0.699189495063E+03   -0.43552E-05   -0.22645E-04 11327   0.202E-02    0.832E-03
RMM:   9    -0.699189501829E+03   -0.67654E-05   -0.77593E-05  9369   0.112E-02
  32 F= -.69918950E+03 E0= -.69918881E+03  d E =-.197499E+00
       N       E                     dE             d eps       ncg     rms          rms(c)
DAV:   1    -0.699155816995E+03    0.33678E-01   -0.29237E+01 10960   0.792E+00    0.106E+00
RMM:   2    -0.699249112130E+03   -0.93295E-01   -0.98435E-01 12883   0.204E+00    0.322E-01
RMM:   3    -0.699270678008E+03   -0.21566E-01   -0.23389E-01 15151   0.812E-01    0.279E-01
RMM:   4    -0.699271678176E+03   -0.10002E-02   -0.24477E-02 15260   0.261E-01    0.149E-01
RMM:   5    -0.699271569815E+03    0.10836E-03   -0.57902E-03 14707   0.115E-01    0.543E-02
RMM:   6    -0.699271650969E+03   -0.81154E-04   -0.12770E-03 15413   0.516E-02    0.297E-02
RMM:   7    -0.699271678802E+03   -0.27834E-04   -0.38001E-04 12794   0.245E-02    0.158E-02
RMM:   8    -0.699271684905E+03   -0.61023E-05   -0.10369E-04  9736   0.139E-02    0.404E-03
RMM:   9    -0.699271687811E+03   -0.29061E-05   -0.36835E-05  8628   0.854E-03
  33 F= -.69927169E+03 E0= -.69927095E+03  d E =-.821860E-01
       N       E                     dE             d eps       ncg     rms          rms(c)
DAV:   1    -0.699175939757E+03    0.95745E-01   -0.33042E+01 10678   0.842E+00    0.115E+00
RMM:   2    -0.699281795101E+03   -0.10586E+00   -0.11173E+00 12891   0.217E+00    0.348E-01
RMM:   3    -0.699306306522E+03   -0.24511E-01   -0.26619E-01 15147   0.865E-01    0.299E-01
RMM:   4    -0.699307481708E+03   -0.11752E-02   -0.27761E-02 15267   0.278E-01    0.163E-01
RMM:   5    -0.699307336157E+03    0.14555E-03   -0.65873E-03 14663   0.123E-01    0.575E-02
RMM:   6    -0.699307427264E+03   -0.91107E-04   -0.14465E-03 15429   0.551E-02    0.315E-02
RMM:   7    -0.699307458919E+03   -0.31654E-04   -0.42939E-04 12980   0.258E-02    0.166E-02
RMM:   8    -0.699307465824E+03   -0.69057E-05   -0.11618E-04  9812   0.146E-02    0.416E-03
RMM:   9    -0.699307469154E+03   -0.33299E-05   -0.41161E-05  8795   0.895E-03
  34 F= -.69930747E+03 E0= -.69930667E+03  d E =-.117967E+00
       N       E                     dE             d eps       ncg     rms          rms(c)
DAV:   1    -0.699284139303E+03    0.23327E-01   -0.18404E+01 10896   0.640E+00    0.748E-01
RMM:   2    -0.699345384240E+03   -0.61245E-01   -0.65909E-01 13192   0.173E+00    0.243E-01
RMM:   3    -0.699360253941E+03   -0.14870E-01   -0.16196E-01 15142   0.677E-01    0.263E-01
RMM:   4    -0.699361283897E+03   -0.10300E-02   -0.17704E-02 15505   0.222E-01    0.196E-01
RMM:   5    -0.699360850002E+03    0.43389E-03   -0.44384E-03 13438   0.105E-01    0.603E-02
RMM:   6    -0.699360907342E+03   -0.57340E-04   -0.11372E-03 15252   0.522E-02    0.454E-02
RMM:   7    -0.699360905202E+03    0.21396E-05   -0.38565E-04 12769   0.254E-02    0.277E-02
RMM:   8    -0.699360902469E+03    0.27331E-05   -0.86718E-05 10217   0.157E-02
  35 F= -.69936090E+03 E0= -.69936012E+03  d E =-.534333E-01
       N       E                     dE             d eps       ncg     rms          rms(c)
DAV:   1    -0.699332884016E+03    0.28021E-01   -0.10473E+01 10944   0.482E+00    0.564E-01
RMM:   2    -0.699367472319E+03   -0.34588E-01   -0.37220E-01 13168   0.129E+00    0.184E-01
RMM:   3    -0.699375764598E+03   -0.82923E-02   -0.90570E-02 15146   0.506E-01    0.199E-01
RMM:   4    -0.699376345147E+03   -0.58055E-03   -0.99131E-03 15473   0.167E-01    0.151E-01
RMM:   5    -0.699376085842E+03    0.25931E-03   -0.25311E-03 13396   0.791E-02    0.469E-02
RMM:   6    -0.699376118190E+03   -0.32348E-04   -0.65500E-04 14971   0.395E-02    0.355E-02
RMM:   7    -0.699376115568E+03    0.26216E-05   -0.22886E-04 12321   0.199E-02    0.219E-02
RMM:   8    -0.699376113498E+03    0.20698E-05   -0.53385E-05  9275   0.126E-02
  36 F= -.69937611E+03 E0= -.69937534E+03  d E =-.686443E-01
       N       E                     dE             d eps       ncg     rms          rms(c)
DAV:   1    -0.699316598771E+03    0.59517E-01   -0.25488E+01 10590   0.750E+00    0.116E+00
RMM:   2    -0.699399005812E+03   -0.82407E-01   -0.87612E-01 12956   0.196E+00    0.315E-01
RMM:   3    -0.699419124051E+03   -0.20118E-01   -0.21815E-01 15107   0.786E-01    0.274E-01
RMM:   4    -0.699420499012E+03   -0.13750E-02   -0.23827E-02 15308   0.255E-01    0.178E-01
RMM:   5    -0.699420321875E+03    0.17714E-03   -0.50437E-03 14605   0.107E-01    0.482E-02
RMM:   6    -0.699420405804E+03   -0.83930E-04   -0.11473E-03 15248   0.493E-02    0.328E-02
RMM:   7    -0.699420436762E+03   -0.30958E-04   -0.35010E-04 12782   0.238E-02    0.243E-02
RMM:   8    -0.699420437884E+03   -0.11216E-05   -0.10074E-04  9681   0.138E-02    0.335E-03
RMM:   9    -0.699420440444E+03   -0.25604E-05   -0.33840E-05  8593   0.849E-03
  37 F= -.69942044E+03 E0= -.69941975E+03  d E =-.443269E-01
       N       E                     dE             d eps       ncg     rms          rms(c)
DAV:   1    -0.699389056765E+03    0.31381E-01   -0.10431E+01 11064   0.479E+00    0.745E-01
RMM:   2    -0.699422394722E+03   -0.33338E-01   -0.35419E-01 12968   0.124E+00    0.201E-01
RMM:   3    -0.699430288064E+03   -0.78933E-02   -0.85815E-02 15124   0.493E-01    0.176E-01
RMM:   4    -0.699430823642E+03   -0.53558E-03   -0.93453E-03 15293   0.160E-01    0.115E-01
RMM:   5    -0.699430750241E+03    0.73401E-04   -0.20567E-03 14605   0.671E-02    0.323E-02
RMM:   6    -0.699430781474E+03   -0.31233E-04   -0.45999E-04 14243   0.308E-02    0.209E-02
RMM:   7    -0.699430794492E+03   -0.13018E-04   -0.14293E-04 10387   0.156E-02    0.164E-02
RMM:   8    -0.699430794338E+03    0.15364E-06   -0.43464E-05  8807   0.102E-02
  38 F= -.69943079E+03 E0= -.69943010E+03  d E =-.546808E-01
       N       E                     dE             d eps       ncg     rms          rms(c)
DAV:   1    -0.699377816016E+03    0.52978E-01   -0.21667E+01 10752   0.687E+00    0.776E-01
RMM:   2    -0.699444185101E+03   -0.66369E-01   -0.70060E-01 12738   0.177E+00    0.245E-01
RMM:   3    -0.699461596253E+03   -0.17411E-01   -0.18256E-01 15083   0.719E-01    0.241E-01
RMM:   4    -0.699462916200E+03   -0.13199E-02   -0.19922E-02 15369   0.234E-01    0.174E-01
RMM:   5    -0.699462660562E+03    0.25564E-03   -0.46814E-03 13782   0.105E-01    0.638E-02
RMM:   6    -0.699462722717E+03   -0.62155E-04   -0.10714E-03 14896   0.503E-02    0.432E-02
RMM:   7    -0.699462730877E+03   -0.81601E-05   -0.38331E-04 12762   0.251E-02    0.215E-02
RMM:   8    -0.699462732054E+03   -0.11765E-05   -0.85849E-05  9732   0.148E-02
  39 F= -.69946273E+03 E0= -.69946209E+03  d E =-.319377E-01
       N       E                     dE             d eps       ncg     rms          rms(c)
DAV:   1    -0.699432636385E+03    0.30094E-01   -0.10204E+01 11016   0.471E+00    0.530E-01
RMM:   2    -0.699463578408E+03   -0.30942E-01   -0.32655E-01 12704   0.120E+00    0.168E-01
RMM:   3    -0.699471601412E+03   -0.80230E-02   -0.84233E-02 15054   0.489E-01    0.165E-01
RMM:   4    -0.699472218560E+03   -0.61715E-03   -0.92791E-03 15370   0.160E-01    0.121E-01
RMM:   5    -0.699472099484E+03    0.11908E-03   -0.22274E-03 13862   0.717E-02    0.464E-02
RMM:   6    -0.699472124190E+03   -0.24706E-04   -0.49534E-04 14536   0.340E-02    0.300E-02
RMM:   7    -0.699472127896E+03   -0.37063E-05   -0.18219E-04 11841   0.176E-02    0.151E-02
RMM:   8    -0.699472128397E+03   -0.50102E-06   -0.42900E-05  8794   0.110E-02
  40 F= -.69947213E+03 E0= -.69947152E+03  d E =-.413341E-01
       N       E                     dE             d eps       ncg     rms          rms(c)
DAV:   1    -0.699396990391E+03    0.75138E-01   -0.26565E+01 10903   0.770E+00    0.873E-01
RMM:   2    -0.699478114088E+03   -0.81124E-01   -0.85182E-01 12761   0.199E+00    0.277E-01
RMM:   3    -0.699500476532E+03   -0.22362E-01   -0.23135E-01 15091   0.821E-01    0.253E-01
RMM:   4    -0.699502213703E+03   -0.17372E-02   -0.25388E-02 15427   0.267E-01    0.179E-01
RMM:   5    -0.699501973450E+03    0.24025E-03   -0.54206E-03 13959   0.114E-01    0.649E-02
RMM:   6    -0.699502049727E+03   -0.76277E-04   -0.12480E-03 15235   0.544E-02    0.426E-02
RMM:   7    -0.699502062043E+03   -0.12316E-04   -0.41053E-04 12999   0.261E-02    0.207E-02
RMM:   8    -0.699502065220E+03   -0.31772E-05   -0.91857E-05  9743   0.147E-02
  41 F= -.69950207E+03 E0= -.69950147E+03  d E =-.299368E-01
       N       E                     dE             d eps       ncg     rms          rms(c)
DAV:   1    -0.699476948217E+03    0.25114E-01   -0.82761E+00 11464   0.429E+00    0.483E-01
RMM:   2    -0.699501813665E+03   -0.24865E-01   -0.26108E-01 12747   0.109E+00    0.153E-01
RMM:   3    -0.699508334177E+03   -0.65205E-02   -0.67504E-02 15025   0.445E-01    0.139E-01
RMM:   4    -0.699508845337E+03   -0.51116E-03   -0.77000E-03 15375   0.147E-01    0.974E-02
RMM:   5    -0.699508781595E+03    0.63742E-04   -0.16710E-03 14112   0.625E-02    0.364E-02
RMM:   6    -0.699508802103E+03   -0.20508E-04   -0.37232E-04 14332   0.293E-02    0.220E-02
RMM:   7    -0.699508806850E+03   -0.47473E-05   -0.12253E-04 10465   0.147E-02    0.111E-02
RMM:   8    -0.699508807832E+03   -0.98159E-06   -0.30967E-05  8323   0.968E-03
  42 F= -.69950881E+03 E0= -.69950820E+03  d E =-.366794E-01
       N       E                     dE             d eps       ncg     rms          rms(c)
DAV:   1    -0.699416709633E+03    0.92097E-01   -0.29140E+01 11135   0.812E+00    0.912E-01
RMM:   2    -0.699506037319E+03   -0.89328E-01   -0.93710E-01 12788   0.211E+00    0.289E-01
RMM:   3    -0.699530400746E+03   -0.24363E-01   -0.25265E-01 14993   0.866E-01    0.258E-01
RMM:   4    -0.699532433458E+03   -0.20327E-02   -0.29304E-02 15417   0.286E-01    0.181E-01
RMM:   5    -0.699532176165E+03    0.25729E-03   -0.57662E-03 13991   0.120E-01    0.581E-02
RMM:   6    -0.699532285389E+03   -0.10922E-03   -0.14217E-03 15090   0.582E-02    0.431E-02
RMM:   7    -0.699532303792E+03   -0.18403E-04   -0.46778E-04 13286   0.284E-02    0.237E-02
RMM:   8    -0.699532306286E+03   -0.24940E-05   -0.10813E-04  9948   0.153E-02    0.902E-03
RMM:   9    -0.699532308351E+03   -0.20656E-05   -0.37619E-05  8691   0.862E-03
  43 F= -.69953231E+03 E0= -.69953172E+03  d E =-.235005E-01
       N       E                     dE             d eps       ncg     rms          rms(c)
DAV:   1    -0.699519969084E+03    0.12337E-01   -0.38998E+00 11712   0.297E+00    0.335E-01
RMM:   2    -0.699531606461E+03   -0.11637E-01   -0.12206E-01 12735   0.752E-01    0.105E-01
RMM:   3    -0.699534669435E+03   -0.30630E-02   -0.31850E-02 14962   0.308E-01    0.935E-02
RMM:   4    -0.699534927132E+03   -0.25770E-03   -0.37413E-03 15397   0.103E-01    0.657E-02
RMM:   5    -0.699534897261E+03    0.29871E-04   -0.77746E-04 14091   0.427E-02    0.236E-02
RMM:   6    -0.699534908026E+03   -0.10765E-04   -0.17495E-04 12361   0.204E-02    0.150E-02
RMM:   7    -0.699534910440E+03   -0.24138E-05   -0.58593E-05  9321   0.116E-02
  44 F= -.69953491E+03 E0= -.69953433E+03  d E =-.261026E-01
       N       E                     dE             d eps       ncg     rms          rms(c)
DAV:   1    -0.699441744577E+03    0.93163E-01   -0.28862E+01 11182   0.800E+00    0.906E-01
RMM:   2    -0.699526013012E+03   -0.84268E-01   -0.89290E-01 12613   0.202E+00    0.287E-01
RMM:   3    -0.699548781301E+03   -0.22768E-01   -0.23967E-01 15034   0.838E-01    0.268E-01
RMM:   4    -0.699550707578E+03   -0.19263E-02   -0.28327E-02 15410   0.277E-01    0.198E-01
RMM:   5    -0.699550401889E+03    0.30569E-03   -0.60754E-03 13890   0.120E-01    0.721E-02
RMM:   6    -0.699550474639E+03   -0.72750E-04   -0.14035E-03 15137   0.572E-02    0.452E-02
RMM:   7    -0.699550490544E+03   -0.15905E-04   -0.48957E-04 13074   0.280E-02    0.275E-02
RMM:   8    -0.699550490824E+03   -0.27948E-06   -0.10903E-04 10034   0.158E-02    0.734E-03
RMM:   9    -0.699550493682E+03   -0.28585E-05   -0.37663E-05  8559   0.826E-03
  45 F= -.69955049E+03 E0= -.69954991E+03  d E =-.155832E-01
       N       E                     dE             d eps       ncg     rms          rms(c)
DAV:   1    -0.699548131302E+03    0.23595E-02   -0.78379E-01 12072   0.132E+00    0.150E-01
RMM:   2    -0.699550352681E+03   -0.22214E-02   -0.23545E-02 12533   0.324E-01    0.470E-02
RMM:   3    -0.699550939868E+03   -0.58719E-03   -0.62030E-03 15006   0.135E-01    0.443E-02
RMM:   4    -0.699550989895E+03   -0.50027E-04   -0.73322E-04 14936   0.450E-02    0.331E-02
RMM:   5    -0.699550983724E+03    0.61711E-05   -0.18596E-04 11980   0.210E-02    0.142E-02
RMM:   6    -0.699550983770E+03   -0.46370E-07   -0.36292E-05  8822   0.102E-02
  46 F= -.69955098E+03 E0= -.69955039E+03  d E =-.160733E-01
       N       E                     dE             d eps       ncg     rms          rms(c)
DAV:   1    -0.699477811437E+03    0.73172E-01   -0.21809E+01 11127   0.702E+00    0.776E-01
RMM:   2    -0.699543710143E+03   -0.65899E-01   -0.69456E-01 12799   0.182E+00    0.252E-01
RMM:   3    -0.699562153093E+03   -0.18443E-01   -0.19024E-01 15025   0.748E-01    0.225E-01
RMM:   4    -0.699563841429E+03   -0.16883E-02   -0.22540E-02 15423   0.248E-01    0.167E-01
RMM:   5    -0.699563663916E+03    0.17751E-03   -0.43961E-03 13869   0.105E-01    0.552E-02
RMM:   6    -0.699563745126E+03   -0.81210E-04   -0.11293E-03 15026   0.516E-02    0.405E-02
RMM:   7    -0.699563752959E+03   -0.78326E-05   -0.35223E-04 12895   0.245E-02    0.183E-02
RMM:   8    -0.699563758070E+03   -0.51115E-05   -0.82619E-05  9608   0.141E-02
  47 F= -.69956376E+03 E0= -.69956313E+03  d E =-.127743E-01
       N       E                     dE             d eps       ncg     rms          rms(c)
DAV:   1    -0.699561392595E+03    0.23604E-02   -0.85679E-01 11992   0.139E+00    0.153E-01
RMM:   2    -0.699563876026E+03   -0.24834E-02   -0.26179E-02 12752   0.348E-01    0.492E-02
RMM:   3    -0.699564536015E+03   -0.65999E-03   -0.68329E-03 14974   0.142E-01    0.438E-02
RMM:   4    -0.699564596442E+03   -0.60427E-04   -0.83002E-04 14982   0.479E-02    0.323E-02
RMM:   5    -0.699564592183E+03    0.42595E-05   -0.19071E-04 12133   0.216E-02    0.120E-02
RMM:   6    -0.699564593536E+03   -0.13534E-05   -0.40000E-05  8992   0.106E-02
  48 F= -.69956459E+03 E0= -.69956396E+03  d E =-.136098E-01
       N       E                     dE             d eps       ncg     rms          rms(c)
DAV:   1    -0.699529953710E+03    0.34638E-01   -0.11052E+01 11215   0.498E+00    0.575E-01
RMM:   2    -0.699564168586E+03   -0.34215E-01   -0.36242E-01 12883   0.129E+00    0.184E-01
RMM:   3    -0.699572805784E+03   -0.86372E-02   -0.91951E-02 15026   0.522E-01    0.165E-01
RMM:   4    -0.699573490259E+03   -0.68448E-03   -0.11083E-02 15337   0.176E-01    0.113E-01
RMM:   5    -0.699573378013E+03    0.11225E-03   -0.23058E-03 14248   0.769E-02    0.330E-02
RMM:   6    -0.699573419836E+03   -0.41822E-04   -0.56808E-04 14769   0.363E-02    0.238E-02
RMM:   7    -0.699573426227E+03   -0.63916E-05   -0.15727E-04 11432   0.167E-02    0.102E-02
RMM:   8    -0.699573428906E+03   -0.26787E-05   -0.41525E-05  8646   0.103E-02
  49 F= -.69957343E+03 E0= -.69957275E+03  d E =-.883537E-02
       N       E                     dE             d eps       ncg     rms          rms(c)
DAV:   1    -0.699573081150E+03    0.34508E-03   -0.14352E-01 12168   0.566E-01    0.647E-02
RMM:   2    -0.699573514611E+03   -0.43346E-03   -0.45904E-03 12852   0.144E-01    0.208E-02
RMM:   3    -0.699573620286E+03   -0.10567E-03   -0.11435E-03 14859   0.581E-02    0.186E-02
RMM:   4    -0.699573628922E+03   -0.86361E-05   -0.14300E-04 12288   0.204E-02    0.128E-02
RMM:   5    -0.699573627878E+03    0.10448E-05   -0.40326E-05  9053   0.122E-02
  50 F= -.69957363E+03 E0= -.69957294E+03  d E =-.903434E-02
       N       E                     dE             d eps       ncg     rms          rms(c)
DAV:   1    -0.699537353893E+03    0.36275E-01   -0.11104E+01 11142   0.497E+00    0.518E-01
RMM:   2    -0.699570933193E+03   -0.33579E-01   -0.35404E-01 12946   0.129E+00    0.177E-01
RMM:   3    -0.699579809423E+03   -0.88762E-02   -0.92266E-02 14988   0.520E-01    0.155E-01
RMM:   4    -0.699580577974E+03   -0.76855E-03   -0.11178E-02 15418   0.176E-01    0.107E-01
RMM:   5    -0.699580504400E+03    0.73574E-04   -0.22093E-03 14257   0.742E-02    0.353E-02
RMM:   6    -0.699580544704E+03   -0.40305E-04   -0.55693E-04 14619   0.354E-02    0.256E-02
RMM:   7    -0.699580548716E+03   -0.40121E-05   -0.15411E-04 11002   0.164E-02    0.719E-03
RMM:   8    -0.699580552132E+03   -0.34154E-05   -0.41044E-05  8702   0.103E-02
  51 F= -.69958055E+03 E0= -.69957989E+03  d E =-.692425E-02
       N       E                     dE             d eps       ncg     rms          rms(c)
DAV:   1    -0.699580002196E+03    0.54652E-03   -0.20864E-01 11984   0.680E-01    0.692E-02
RMM:   2    -0.699580603748E+03   -0.60155E-03   -0.63454E-03 12854   0.172E-01    0.240E-02
RMM:   3    -0.699580759643E+03   -0.15590E-03   -0.16377E-03 14862   0.695E-02    0.211E-02
RMM:   4    -0.699580772896E+03   -0.13253E-04   -0.20207E-04 12884   0.242E-02    0.145E-02
RMM:   5    -0.699580772419E+03    0.47635E-06   -0.54138E-05  9676   0.138E-02
  52 F= -.69958077E+03 E0= -.69958011E+03  d E =-.714454E-02
       N       E                     dE             d eps       ncg     rms          rms(c)
DAV:   1    -0.699558545332E+03    0.22228E-01   -0.69428E+00 11246   0.393E+00    0.431E-01
RMM:   2    -0.699579355624E+03   -0.20810E-01   -0.22030E-01 12974   0.104E+00    0.147E-01
RMM:   3    -0.699585230157E+03   -0.58745E-02   -0.61589E-02 14937   0.422E-01    0.121E-01
RMM:   4    -0.699585740781E+03   -0.51062E-03   -0.73484E-03 15413   0.143E-01    0.838E-02
RMM:   5    -0.699585683147E+03    0.57634E-04   -0.14024E-03 14255   0.604E-02    0.255E-02
RMM:   6    -0.699585710434E+03   -0.27287E-04   -0.37195E-04 13933   0.290E-02    0.187E-02
RMM:   7    -0.699585713408E+03   -0.29735E-05   -0.94327E-05 10124   0.136E-02
  53 F= -.69958571E+03 E0= -.69958495E+03  d E =-.494099E-02
       N       E                     dE             d eps       ncg     rms          rms(c)
DAV:   1    -0.699585712769E+03   -0.23348E-05   -0.10033E-02 11840   0.149E-01    0.146E-02
RMM:   2    -0.699585746289E+03   -0.33521E-04   -0.35376E-04 13086   0.410E-02    0.574E-03
RMM:   3    -0.699585754451E+03   -0.81620E-05   -0.97780E-05 11155   0.169E-02
  54 F= -.69958575E+03 E0= -.69958499E+03  d E =-.498203E-02
       N       E                     dE             d eps       ncg     rms          rms(c)
DAV:   1    -0.699564183816E+03    0.21562E-01   -0.65190E+00 11133   0.379E+00    0.384E-01
RMM:   2    -0.699583789480E+03   -0.19606E-01   -0.20577E-01 13006   0.100E+00    0.132E-01
RMM:   3    -0.699589393446E+03   -0.56040E-02   -0.57956E-02 14965   0.406E-01    0.117E-01
RMM:   4    -0.699589903609E+03   -0.51016E-03   -0.67447E-03 15427   0.136E-01    0.850E-02
RMM:   5    -0.699589847277E+03    0.56332E-04   -0.13039E-03 14117   0.578E-02    0.296E-02
RMM:   6    -0.699589869278E+03   -0.22001E-04   -0.32851E-04 13765   0.278E-02    0.215E-02
RMM:   7    -0.699589869705E+03   -0.42757E-06   -0.91688E-05 10114   0.135E-02
  55 F= -.69958987E+03 E0= -.69958915E+03  d E =-.411525E-02
       N       E                     dE             d eps       ncg     rms          rms(c)
DAV:   1    -0.699589873484E+03   -0.42065E-05   -0.70167E-03 11816   0.125E-01    0.102E-02
RMM:   2    -0.699589897726E+03   -0.24242E-04   -0.25691E-04 12993   0.349E-02    0.494E-03
RMM:   3    -0.699589903239E+03   -0.55133E-05   -0.70002E-05  9594   0.145E-02
  56 F= -.69958990E+03 E0= -.69958918E+03  d E =-.414879E-02
       N       E                     dE             d eps       ncg     rms          rms(c)
DAV:   1    -0.699581843340E+03    0.80544E-02   -0.26154E+00 11197   0.241E+00    0.261E-01
RMM:   2    -0.699589749482E+03   -0.79061E-02   -0.82929E-02 12961   0.627E-01    0.884E-02
RMM:   3    -0.699591869716E+03   -0.21202E-02   -0.22108E-02 15081   0.253E-01    0.758E-02
RMM:   4    -0.699592040810E+03   -0.17109E-03   -0.25486E-03 15237   0.837E-02    0.492E-02
RMM:   5    -0.699592027829E+03    0.12981E-04   -0.53285E-04 13904   0.367E-02    0.168E-02
RMM:   6    -0.699592036002E+03   -0.81738E-05   -0.12523E-04 11324   0.174E-02    0.108E-02
RMM:   7    -0.699592037610E+03   -0.16076E-05   -0.36066E-05  8714   0.969E-03
  57 F= -.69959204E+03 E0= -.69959130E+03  d E =-.213437E-02
       N       E                     dE             d eps       ncg     rms          rms(c)
DAV:   1    -0.699592035461E+03    0.54151E-06   -0.92197E-03 12016   0.143E-01    0.140E-02
RMM:   2    -0.699592065175E+03   -0.29714E-04   -0.31030E-04 12789   0.380E-02    0.509E-03
RMM:   3    -0.699592072132E+03   -0.69571E-05   -0.83091E-05 11010   0.158E-02
  58 F= -.69959207E+03 E0= -.69959134E+03  d E =-.216889E-02
       N       E                     dE             d eps       ncg     rms          rms(c)
DAV:   1    -0.699586144786E+03    0.59204E-02   -0.19659E+00 11183   0.207E+00    0.218E-01
RMM:   2    -0.699591978420E+03   -0.58336E-02   -0.61465E-02 12901   0.529E-01    0.709E-02
RMM:   3    -0.699593446947E+03   -0.14685E-02   -0.15457E-02 15033   0.212E-01    0.663E-02
RMM:   4    -0.699593557580E+03   -0.11063E-03   -0.18772E-03 15209   0.715E-02    0.419E-02
RMM:   5    -0.699593547261E+03    0.10318E-04   -0.40342E-04 13206   0.315E-02    0.142E-02
RMM:   6    -0.699593553039E+03   -0.57775E-05   -0.89767E-05 10344   0.151E-02
  59 F= -.69959355E+03 E0= -.69959281E+03  d E =-.148091E-02
       N       E                     dE             d eps       ncg     rms          rms(c)
DAV:   1    -0.699593558605E+03   -0.11343E-04   -0.31675E-03 11744   0.842E-02    0.870E-03
RMM:   2    -0.699593571907E+03   -0.13302E-04   -0.14030E-04 11902   0.250E-02    0.343E-03
RMM:   3    -0.699593574166E+03   -0.22586E-05   -0.36440E-05  7401   0.112E-02
  60 F= -.69959357E+03 E0= -.69959284E+03  d E =-.150203E-02
       N       E                     dE             d eps       ncg     rms          rms(c)
DAV:   1    -0.699590384927E+03    0.31870E-02   -0.10459E+00 11086   0.152E+00    0.151E-01
RMM:   2    -0.699593511366E+03   -0.31264E-02   -0.32793E-02 12999   0.401E-01    0.516E-02
RMM:   3    -0.699594382944E+03   -0.87158E-03   -0.90078E-03 15043   0.162E-01    0.481E-02
RMM:   4    -0.699594455152E+03   -0.72208E-04   -0.10374E-03 15124   0.535E-02    0.322E-02
RMM:   5    -0.699594447833E+03    0.73185E-05   -0.23337E-04 12608   0.245E-02    0.125E-02
RMM:   6    -0.699594450514E+03   -0.26803E-05   -0.52025E-05  9372   0.121E-02
  61 F= -.69959445E+03 E0= -.69959369E+03  d E =-.876348E-03
       N       E                     dE             d eps       ncg     rms          rms(c)
DAV:   1    -0.699594452821E+03   -0.49873E-05   -0.13399E-03 11528   0.567E-02    0.617E-03
RMM:   2    -0.699594459901E+03   -0.70802E-05   -0.76740E-05 10302   0.202E-02
  62 F= -.69959446E+03 E0= -.69959370E+03  d E =-.885735E-03
       N       E                     dE             d eps       ncg     rms          rms(c)
DAV:   1    -0.699592193519E+03    0.22593E-02   -0.70664E-01 10989   0.126E+00    0.139E-01
RMM:   2    -0.699594343730E+03   -0.21502E-02   -0.22512E-02 13087   0.331E-01    0.461E-02
RMM:   3    -0.699594918108E+03   -0.57438E-03   -0.60051E-03 15037   0.133E-01    0.390E-02
RMM:   4    -0.699594961844E+03   -0.43736E-04   -0.67335E-04 14981   0.438E-02    0.246E-02
RMM:   5    -0.699594958397E+03    0.34472E-05   -0.15323E-04 11871   0.199E-02    0.929E-03
RMM:   6    -0.699594959738E+03   -0.13415E-05   -0.31259E-05  8562   0.991E-03
  63 F= -.69959496E+03 E0= -.69959420E+03  d E =-.499837E-03
       N       E                     dE             d eps       ncg     rms          rms(c)
DAV:   1    -0.699594947166E+03    0.11231E-04   -0.23300E-03 11240   0.724E-02    0.955E-03
RMM:   2    -0.699594955144E+03   -0.79776E-05   -0.84664E-05 10427   0.196E-02
  64 F= -.69959496E+03 E0= -.69959420E+03  d E =-.495243E-03
       N       E                     dE             d eps       ncg     rms          rms(c)
DAV:   1    -0.699594953149E+03   -0.59829E-05   -0.14064E-03 11334   0.557E-02    0.668E-03
RMM:   2    -0.699594957411E+03   -0.42626E-05   -0.45594E-05  7935   0.153E-02
  65 F= -.69959496E+03 E0= -.69959420E+03  d E =-.497510E-03
       N       E                     dE             d eps       ncg     rms          rms(c)
DAV:   1    -0.699594955356E+03   -0.22070E-05   -0.33032E-04 10960   0.282E-02    0.356E-03
RMM:   2    -0.699594956868E+03   -0.15124E-05   -0.17301E-05  5521   0.992E-03
  66 F= -.69959496E+03 E0= -.69959420E+03  d E =-.496967E-03
       N       E                     dE             d eps       ncg     rms          rms(c)
DAV:   1    -0.699594956856E+03   -0.15000E-05   -0.84343E-05 10548   0.185E-02    0.173E-03
RMM:   2    -0.699594957934E+03   -0.10786E-05   -0.11819E-05  5252   0.762E-03
  67 F= -.69959496E+03 E0= -.69959420E+03  d E =-.498033E-03
       N       E                     dE             d eps       ncg     rms          rms(c)
DAV:   1    -0.699592758811E+03    0.21980E-02   -0.67140E-01 11143   0.122E+00    0.124E-01
RMM:   2    -0.699594667077E+03   -0.19083E-02   -0.20019E-02 12849   0.309E-01    0.422E-02
RMM:   3    -0.699595196625E+03   -0.52955E-03   -0.54733E-03 14933   0.127E-01    0.372E-02
RMM:   4    -0.699595239656E+03   -0.43030E-04   -0.63881E-04 14815   0.424E-02    0.243E-02
RMM:   5    -0.699595237036E+03    0.26198E-05   -0.14472E-04 11547   0.195E-02    0.993E-03
RMM:   6    -0.699595238172E+03   -0.11358E-05   -0.30712E-05  8490   0.975E-03
  68 F= -.69959524E+03 E0= -.69959446E+03  d E =-.280237E-03
       N       E                     dE             d eps       ncg     rms          rms(c)
DAV:   1    -0.699595198350E+03    0.38686E-04   -0.10613E-02 11296   0.153E-01    0.166E-02
RMM:   2    -0.699595228945E+03   -0.30595E-04   -0.32243E-04 12649   0.392E-02    0.569E-03
RMM:   3    -0.699595236282E+03   -0.73373E-05   -0.86908E-05 10809   0.164E-02
  69 F= -.69959524E+03 E0= -.69959446E+03  d E =-.278348E-03
       N       E                     dE             d eps       ncg     rms          rms(c)
DAV:   1    -0.699595223256E+03    0.56886E-05   -0.38573E-03 11754   0.927E-02    0.107E-02
RMM:   2    -0.699595237176E+03   -0.13920E-04   -0.14497E-04 11868   0.244E-02    0.302E-03
RMM:   3    -0.699595239020E+03   -0.18436E-05   -0.29611E-05  6858   0.105E-02
  70 F= -.69959524E+03 E0= -.69959447E+03  d E =-.281086E-03
       N       E                     dE             d eps       ncg     rms          rms(c)
DAV:   1    -0.699595234310E+03    0.28660E-05   -0.93918E-04 10792   0.459E-02    0.584E-03
RMM:   2    -0.699595237840E+03   -0.35297E-05   -0.37320E-05  8212   0.125E-02
  71 F= -.69959524E+03 E0= -.69959447E+03  d E =-.279906E-03
       N       E                     dE             d eps       ncg     rms          rms(c)
DAV:   1    -0.699595237876E+03   -0.35655E-05   -0.30010E-04 10780   0.255E-02    0.299E-03
RMM:   2    -0.699595238787E+03   -0.91155E-06   -0.98186E-06  5462   0.664E-03
  72 F= -.69959524E+03 E0= -.69959447E+03  d E =-.280853E-03
       N       E                     dE             d eps       ncg     rms          rms(c)
DAV:   1    -0.699595238124E+03   -0.24836E-06   -0.70176E-05 10128   0.145E-02    0.168E-03
RMM:   2    -0.699595238728E+03   -0.60333E-06   -0.72036E-06  5157   0.611E-03
  73 F= -.69959524E+03 E0= -.69959447E+03  d E =-.280793E-03
       N       E                     dE             d eps       ncg     rms          rms(c)
DAV:   1    -0.699595238457E+03   -0.33239E-06   -0.15628E-05  6564   0.870E-03    0.942E-04
RMM:   2    -0.699595238822E+03   -0.36591E-06   -0.38774E-06  5116   0.453E-03
  74 F= -.69959524E+03 E0= -.69959447E+03  d E =-.280888E-03
       N       E                     dE             d eps       ncg     rms          rms(c)
DAV:   1    -0.699595238716E+03   -0.25960E-06   -0.21003E-06  5446   0.520E-03    0.835E-04
RMM:   2    -0.699595238812E+03   -0.95926E-07   -0.11571E-06  4543   0.218E-03
  75 F= -.69959524E+03 E0= -.69959447E+03  d E =-.280878E-03
       N       E                     dE             d eps       ncg     rms          rms(c)
DAV:   1    -0.699595238872E+03   -0.15566E-06   -0.32526E-07  5384   0.330E-03    0.450E-04
RMM:   2    -0.699595238882E+03   -0.99462E-08   -0.16387E-07  2586   0.982E-04
  76 F= -.69959524E+03 E0= -.69959447E+03  d E =-.280947E-03
       N       E                     dE             d eps       ncg     rms          rms(c)
DAV:   1    -0.699594497393E+03    0.74148E-03   -0.23794E-01 11048   0.731E-01    0.727E-02
RMM:   2    -0.699595206729E+03   -0.70934E-03   -0.74545E-03 12996   0.190E-01    0.248E-02
RMM:   3    -0.699595396684E+03   -0.18995E-03   -0.19903E-03 15000   0.766E-02    0.239E-02
RMM:   4    -0.699595412132E+03   -0.15448E-04   -0.23124E-04 12982   0.261E-02    0.169E-02
RMM:   5    -0.699595410424E+03    0.17076E-05   -0.64365E-05 10194   0.152E-02
  77 F= -.69959541E+03 E0= -.69959463E+03  d E =-.171542E-03
       N       E                     dE             d eps       ncg     rms          rms(c)
DAV:   1    -0.699595400669E+03    0.11463E-04   -0.19900E-03 11087   0.672E-02    0.541E-03
RMM:   2    -0.699595407283E+03   -0.66142E-05   -0.71138E-05  9746   0.178E-02
  78 F= -.69959541E+03 E0= -.69959463E+03  d E =-.168401E-03
       N       E                     dE             d eps       ncg     rms          rms(c)
DAV:   1    -0.699595406740E+03   -0.60715E-05   -0.10863E-03 11128   0.489E-02    0.693E-03
RMM:   2    -0.699595409941E+03   -0.32011E-05   -0.34831E-05  7057   0.129E-02
  79 F= -.69959541E+03 E0= -.69959463E+03  d E =-.171060E-03
       N       E                     dE             d eps       ncg     rms          rms(c)
DAV:   1    -0.699595409219E+03   -0.24792E-05   -0.25016E-04 10791   0.240E-02    0.292E-03
RMM:   2    -0.699595410271E+03   -0.10514E-05   -0.11445E-05  5443   0.717E-03
  80 F= -.69959541E+03 E0= -.69959463E+03  d E =-.171389E-03
       N       E                     dE             d eps       ncg     rms          rms(c)
DAV:   1    -0.699595409961E+03   -0.74179E-06   -0.41413E-05  9159   0.132E-02    0.139E-03
RMM:   2    -0.699595410653E+03   -0.69214E-06   -0.77580E-06  5161   0.606E-03
  81 F= -.69959541E+03 E0= -.69959463E+03  d E =-.171772E-03
       N       E                     dE             d eps       ncg     rms          rms(c)
DAV:   1    -0.699595410380E+03   -0.41897E-06   -0.36886E-06  5567   0.759E-03    0.897E-04
RMM:   2    -0.699595410522E+03   -0.14195E-06   -0.16148E-06  4459   0.259E-03
  82 F= -.69959541E+03 E0= -.69959463E+03  d E =-.171640E-03
       N       E                     dE             d eps       ncg     rms          rms(c)
DAV:   1    -0.699595410603E+03   -0.22293E-06   -0.71140E-07  5368   0.352E-03    0.686E-04
RMM:   2    -0.699595410643E+03   -0.39770E-07   -0.52296E-07  3684   0.153E-03
  83 F= -.69959541E+03 E0= -.69959463E+03  d E =-.171761E-03
       N       E                     dE             d eps       ncg     rms          rms(c)
DAV:   1    -0.699595122340E+03    0.28826E-03   -0.99630E-02 11048   0.479E-01    0.496E-02
RMM:   2    -0.699595440792E+03   -0.31845E-03   -0.33258E-03 13127   0.126E-01    0.161E-02
RMM:   3    -0.699595517765E+03   -0.76972E-04   -0.81541E-04 14867   0.497E-02    0.155E-02
RMM:   4    -0.699595523282E+03   -0.55173E-05   -0.98973E-05 11863   0.177E-02
  84 F= -.69959552E+03 E0= -.69959474E+03  d E =-.112639E-03
       N       E                     dE             d eps       ncg     rms          rms(c)
DAV:   1    -0.699595515361E+03    0.24035E-05   -0.74915E-04 12424   0.461E-02    0.344E-03
RMM:   2    -0.699595519315E+03   -0.39540E-05   -0.42510E-05  7947   0.132E-02
  85 F= -.69959552E+03 E0= -.69959474E+03  d E =-.108672E-03
       N       E                     dE             d eps       ncg     rms          rms(c)
DAV:   1    -0.699595520225E+03   -0.48640E-05   -0.32651E-04 11668   0.275E-02    0.502E-03
RMM:   2    -0.699595521279E+03   -0.10538E-05   -0.12391E-05  6298   0.760E-03
  86 F= -.69959552E+03 E0= -.69959474E+03  d E =-.110636E-03
       N       E                     dE             d eps       ncg     rms          rms(c)
DAV:   1    -0.699595390589E+03    0.12964E-03   -0.52477E-02 10888   0.344E-01    0.358E-02
RMM:   2    -0.699595552745E+03   -0.16216E-03   -0.17025E-03 12921   0.886E-02    0.118E-02
RMM:   3    -0.699595591480E+03   -0.38734E-04   -0.42201E-04 14385   0.356E-02    0.112E-02
RMM:   4    -0.699595593654E+03   -0.21740E-05   -0.49234E-05  9168   0.135E-02
  87 F= -.69959559E+03 E0= -.69959481E+03  d E =-.723749E-04
       N       E                     dE             d eps       ncg     rms          rms(c)
DAV:   1    -0.699595588996E+03    0.24835E-05   -0.21446E-04 11288   0.323E-02    0.267E-03
RMM:   2    -0.699595591250E+03   -0.22539E-05   -0.25767E-05  6635   0.115E-02
  88 F= -.69959559E+03 E0= -.69959481E+03  d E =-.699713E-04
       N       E                     dE             d eps       ncg     rms          rms(c)
DAV:   1    -0.699595592839E+03   -0.38422E-05   -0.15987E-04 10998   0.200E-02    0.366E-03
RMM:   2    -0.699595593960E+03   -0.11214E-05   -0.12426E-05  5423   0.732E-03
  89 F= -.69959559E+03 E0= -.69959481E+03  d E =-.726811E-04
       N       E                     dE             d eps       ncg     rms          rms(c)
DAV:   1    -0.699595520102E+03    0.72736E-04   -0.28560E-02 10559   0.250E-01    0.313E-02
RMM:   2    -0.699595614443E+03   -0.94341E-04   -0.99664E-04 12971   0.662E-02    0.105E-02
RMM:   3    -0.699595634517E+03   -0.20074E-04   -0.22917E-04 13106   0.261E-02    0.875E-03
RMM:   4    -0.699595635459E+03   -0.94217E-06   -0.30575E-05  7137   0.120E-02
  90 F= -.69959564E+03 E0= -.69959486E+03  d E =-.414989E-04
       N       E                     dE             d eps       ncg     rms          rms(c)
DAV:   1    -0.699595626579E+03    0.79379E-05   -0.12325E-03 10534   0.533E-02    0.597E-03
RMM:   2    -0.699595631963E+03   -0.53845E-05   -0.56636E-05  8661   0.156E-02
  91 F= -.69959563E+03 E0= -.69959485E+03  d E =-.380033E-04
       N       E                     dE             d eps       ncg     rms          rms(c)
DAV:   1    -0.699595632412E+03   -0.58336E-05   -0.81334E-04 10406   0.415E-02    0.608E-03
RMM:   2    -0.699595634825E+03   -0.24123E-05   -0.26252E-05  6483   0.107E-02
  92 F= -.69959563E+03 E0= -.69959485E+03  d E =-.408647E-04
       N       E                     dE             d eps       ncg     rms          rms(c)
DAV:   1    -0.699595632842E+03   -0.42954E-06   -0.18594E-04 10584   0.224E-02    0.285E-03
RMM:   2    -0.699595634076E+03   -0.12345E-05   -0.14457E-05  5374   0.888E-03
  93 F= -.69959563E+03 E0= -.69959485E+03  d E =-.401164E-04
       N       E                     dE             d eps       ncg     rms          rms(c)
DAV:   1    -0.699595634123E+03   -0.12806E-05   -0.70293E-05  9310   0.156E-02    0.159E-03
RMM:   2    -0.699595635070E+03   -0.94726E-06   -0.10102E-05  5126   0.688E-03
  94 F= -.69959564E+03 E0= -.69959486E+03  d E =-.411098E-04
       N       E                     dE             d eps       ncg     rms          rms(c)
DAV:   1    -0.699595634555E+03   -0.43218E-06   -0.60527E-06  5572   0.925E-03    0.107E-03
RMM:   2    -0.699595634725E+03   -0.17076E-06   -0.20725E-06  4654   0.298E-03
  95 F= -.69959563E+03 E0= -.69959485E+03  d E =-.407655E-04
       N       E                     dE             d eps       ncg     rms          rms(c)
DAV:   1    -0.699595634924E+03   -0.36925E-06   -0.18196E-06  5296   0.395E-03    0.993E-04
RMM:   2    -0.699595635016E+03   -0.92266E-07   -0.12466E-06  4927   0.259E-03
  96 F= -.69959564E+03 E0= -.69959486E+03  d E =-.410562E-04
       N       E                     dE             d eps       ncg     rms          rms(c)
DAV:   1    -0.699595598891E+03    0.36033E-04   -0.18070E-02 10790   0.199E-01    0.213E-02
RMM:   2    -0.699595651477E+03   -0.52586E-04   -0.55112E-04 12459   0.500E-02    0.692E-03
RMM:   3    -0.699595664320E+03   -0.12842E-04   -0.14594E-04 12283   0.210E-02    0.645E-03
RMM:   4    -0.699595665159E+03   -0.83978E-06   -0.20122E-05  6344   0.102E-02
  97 F= -.69959567E+03 E0= -.69959488E+03  d E =-.301431E-04
       N       E                     dE             d eps       ncg     rms          rms(c)
DAV:   1    -0.699595666582E+03   -0.22620E-05   -0.34767E-04 11192   0.287E-02    0.411E-03
RMM:   2    -0.699595668017E+03   -0.14353E-05   -0.15884E-05  5842   0.102E-02
  98 F= -.69959567E+03 E0= -.69959489E+03  d E =-.330006E-04
