<?xml version="1.0" encoding="ISO-8859-1"?>
<modeling>
 <generator>
  <i name="program" type="string">vasp </i>
  <i name="version" type="string">6.4.2  </i>
  <i name="subversion" type="string">20Jul23 (build Nov 12 2023 22:16:35) complex                          parallel </i>
  <i name="platform" type="string">LinuxNV </i>
  <i name="date" type="string">2025 03 29 </i>
  <i name="time" type="string">05:06:41 </i>
 </generator>
 <incar>
  <i type="int" name="ISTART">     0</i>
  <i type="string" name="PREC">Normal</i>
  <i type="string" name="ALGO">Fast</i>
  <i type="int" name="ISPIN">     1</i>
  <i type="int" name="ICHARG">     2</i>
  <i type="int" name="IBRION">     2</i>
  <i name="EDIFF">      0.00001000</i>
  <i name="EDIFFG">     -0.00500000</i>
  <i type="int" name="NSW">   300</i>
  <i type="int" name="ISIF">     2</i>
  <i name="ENCUT">    450.00000000</i>
  <i name="NELECT">   1043.00000000</i>
  <i type="string" name="LREAL">Auto</i>
  <i type="logical" name="LPLANE"> T  </i>
  <i type="int" name="ISMEAR">     0</i>
  <i name="SIGMA">      0.05000000</i>
  <i type="logical" name="LWAVE"> F  </i>
  <i type="logical" name="LCHARG"> F  </i>
 </incar>
 <primitive_cell>
  <structure name="primitive_cell" >
   <crystal>
    <varray name="basis" >
     <v>       0.00000000      12.28047342       0.00000000 </v>
     <v>       9.14270205       0.00000000       0.00000000 </v>
     <v>       0.00000000      -2.76826177     -11.30069772 </v>
    </varray>
    <i name="volume">   1268.80515525 </i>
    <varray name="rec_basis" >
     <v>       0.00000000       0.08143009      -0.01994742 </v>
     <v>       0.10937686      -0.00000000       0.00000000 </v>
     <v>       0.00000000       0.00000000      -0.08849011 </v>
    </varray>
   </crystal>
   <varray name="positions" >
    <v>       0.65883830       0.00000000       0.15736517 </v>
    <v>       0.65883830       0.00000000       0.65736517 </v>
    <v>       0.65883830       0.33333333       0.15736517 </v>
    <v>       0.65883830       0.33333333       0.65736517 </v>
    <v>       0.65883830       0.66666667       0.15736517 </v>
    <v>       0.65883830       0.66666667       0.65736517 </v>
    <v>       0.84116170       0.16666667       0.34263483 </v>
    <v>       0.84116170       0.16666667       0.84263483 </v>
    <v>       0.84116170       0.50000000       0.34263483 </v>
    <v>       0.84116170       0.50000000       0.84263483 </v>
    <v>       0.84116170       0.83333333       0.34263483 </v>
    <v>       0.84116170       0.83333333       0.84263483 </v>
    <v>       0.59047440       0.16666667       0.39739300 </v>
    <v>       0.59047440       0.16666667       0.89739300 </v>
    <v>       0.59047440       0.50000000       0.39739300 </v>
    <v>       0.59047440       0.50000000       0.89739300 </v>
    <v>       0.59047440       0.83333333       0.39739300 </v>
    <v>       0.59047440       0.83333333       0.89739300 </v>
    <v>       0.90952560       0.00000000       0.10260700 </v>
    <v>       0.90952560       0.00000000       0.60260700 </v>
    <v>       0.90952560       0.33333333       0.10260700 </v>
    <v>       0.90952560       0.33333333       0.60260700 </v>
    <v>       0.90952560       0.66666667       0.10260700 </v>
    <v>       0.90952560       0.66666667       0.60260700 </v>
    <v>       0.15883830       0.16666667       0.15736517 </v>
    <v>       0.15883830       0.16666667       0.65736517 </v>
    <v>       0.15883830       0.50000000       0.15736517 </v>
    <v>       0.15883830       0.50000000       0.65736517 </v>
    <v>       0.15883830       0.83333333       0.15736517 </v>
    <v>       0.15883830       0.83333333       0.65736517 </v>
    <v>       0.34116170       0.00000000       0.34263483 </v>
    <v>       0.34116170       0.00000000       0.84263483 </v>
    <v>       0.34116170       0.33333333       0.34263483 </v>
    <v>       0.34116170       0.33333333       0.84263483 </v>
    <v>       0.34116170       0.66666667       0.34263483 </v>
    <v>       0.34116170       0.66666667       0.84263483 </v>
    <v>       0.09047440       0.00000000       0.89739300 </v>
    <v>       0.09047440       0.33333333       0.39739300 </v>
    <v>       0.09047440       0.33333333       0.89739300 </v>
    <v>       0.09047440       0.66666667       0.39739300 </v>
    <v>       0.09047440       0.66666667       0.89739300 </v>
    <v>       0.40952560       0.16666667       0.10260700 </v>
    <v>       0.40952560       0.16666667       0.60260700 </v>
    <v>       0.40952560       0.50000000       0.10260700 </v>
    <v>       0.40952560       0.50000000       0.60260700 </v>
    <v>       0.40952560       0.83333333       0.10260700 </v>
    <v>       0.40952560       0.83333333       0.60260700 </v>
    <v>       0.99646913       0.16666667       0.12833205 </v>
    <v>       0.99646913       0.16666667       0.62833205 </v>
    <v>       0.99646913       0.50000000       0.12833205 </v>
    <v>       0.99646913       0.50000000       0.62833205 </v>
    <v>       0.99646913       0.83333333       0.12833205 </v>
    <v>       0.99646913       0.83333333       0.62833205 </v>
    <v>       0.50353087       0.00000000       0.37166795 </v>
    <v>       0.50353087       0.00000000       0.87166795 </v>
    <v>       0.50353087       0.33333333       0.37166795 </v>
    <v>       0.50353087       0.33333333       0.87166795 </v>
    <v>       0.50353087       0.66666667       0.37166795 </v>
    <v>       0.50353087       0.66666667       0.87166795 </v>
    <v>       0.67337106       0.16666667       0.28161508 </v>
    <v>       0.67337106       0.16666667       0.78161508 </v>
    <v>       0.67337106       0.50000000       0.28161508 </v>
    <v>       0.67337106       0.50000000       0.78161508 </v>
    <v>       0.67337106       0.83333333       0.28161508 </v>
    <v>       0.67337106       0.83333333       0.78161508 </v>
    <v>       0.82662894       0.00000000       0.21838492 </v>
    <v>       0.82662894       0.00000000       0.71838492 </v>
    <v>       0.82662894       0.33333333       0.21838492 </v>
    <v>       0.82662894       0.33333333       0.71838492 </v>
    <v>       0.82662894       0.66666667       0.21838492 </v>
    <v>       0.82662894       0.66666667       0.71838492 </v>
    <v>       0.83549502       0.00000000       0.44542296 </v>
    <v>       0.83549502       0.00000000       0.94542296 </v>
    <v>       0.83549502       0.33333333       0.44542296 </v>
    <v>       0.83549502       0.33333333       0.94542296 </v>
    <v>       0.83549502       0.66666667       0.44542296 </v>
    <v>       0.83549502       0.66666667       0.94542296 </v>
    <v>       0.66450498       0.16666667       0.05457704 </v>
    <v>       0.66450498       0.16666667       0.55457704 </v>
    <v>       0.66450498       0.50000000       0.05457704 </v>
    <v>       0.66450498       0.50000000       0.55457704 </v>
    <v>       0.66450498       0.83333333       0.05457704 </v>
    <v>       0.66450498       0.83333333       0.55457704 </v>
    <v>       0.49646913       0.00000000       0.12833205 </v>
    <v>       0.49646913       0.00000000       0.62833205 </v>
    <v>       0.49646913       0.33333333       0.12833205 </v>
    <v>       0.49646913       0.33333333       0.62833205 </v>
    <v>       0.49646913       0.66666667       0.12833205 </v>
    <v>       0.49646913       0.66666667       0.62833205 </v>
    <v>       0.00353087       0.16666667       0.37166795 </v>
    <v>       0.00353087       0.16666667       0.87166795 </v>
    <v>       0.00353087       0.50000000       0.37166795 </v>
    <v>       0.00353087       0.50000000       0.87166795 </v>
    <v>       0.00353087       0.83333333       0.37166795 </v>
    <v>       0.00353087       0.83333333       0.87166795 </v>
    <v>       0.17337106       0.00000000       0.78161508 </v>
    <v>       0.17337106       0.33333333       0.28161508 </v>
    <v>       0.17337106       0.33333333       0.78161508 </v>
    <v>       0.17337106       0.66666667       0.28161508 </v>
    <v>       0.17337106       0.66666667       0.78161508 </v>
    <v>       0.32662894       0.16666667       0.21838492 </v>
    <v>       0.32662894       0.16666667       0.71838492 </v>
    <v>       0.32662894       0.50000000       0.21838492 </v>
    <v>       0.32662894       0.50000000       0.71838492 </v>
    <v>       0.32662894       0.83333333       0.21838492 </v>
    <v>       0.32662894       0.83333333       0.71838492 </v>
    <v>       0.33549502       0.16666667       0.44542296 </v>
    <v>       0.33549502       0.16666667       0.94542296 </v>
    <v>       0.33549502       0.50000000       0.44542296 </v>
    <v>       0.33549502       0.50000000       0.94542296 </v>
    <v>       0.33549502       0.83333333       0.44542296 </v>
    <v>       0.33549502       0.83333333       0.94542296 </v>
    <v>       0.16450498       0.00000000       0.05457704 </v>
    <v>       0.16450498       0.00000000       0.55457704 </v>
    <v>       0.16450498       0.33333333       0.05457704 </v>
    <v>       0.16450498       0.33333333       0.55457704 </v>
    <v>       0.16450498       0.66666667       0.05457704 </v>
    <v>       0.16450498       0.66666667       0.55457704 </v>
    <v>       0.17337106       0.00000000       0.28161508 </v>
   </varray>
  </structure>
  <varray name="primitive_index" >
   <v type="int" >        1 </v>
   <v type="int" >        2 </v>
   <v type="int" >        3 </v>
   <v type="int" >        4 </v>
   <v type="int" >        5 </v>
   <v type="int" >        6 </v>
   <v type="int" >        7 </v>
   <v type="int" >        8 </v>
   <v type="int" >        9 </v>
   <v type="int" >       10 </v>
   <v type="int" >       11 </v>
   <v type="int" >       12 </v>
   <v type="int" >       13 </v>
   <v type="int" >       14 </v>
   <v type="int" >       15 </v>
   <v type="int" >       16 </v>
   <v type="int" >       17 </v>
   <v type="int" >       18 </v>
   <v type="int" >       19 </v>
   <v type="int" >       20 </v>
   <v type="int" >       21 </v>
   <v type="int" >       22 </v>
   <v type="int" >       23 </v>
   <v type="int" >       24 </v>
   <v type="int" >       25 </v>
   <v type="int" >       26 </v>
   <v type="int" >       27 </v>
   <v type="int" >       28 </v>
   <v type="int" >       29 </v>
   <v type="int" >       30 </v>
   <v type="int" >       31 </v>
   <v type="int" >       32 </v>
   <v type="int" >       33 </v>
   <v type="int" >       34 </v>
   <v type="int" >       35 </v>
   <v type="int" >       36 </v>
   <v type="int" >       37 </v>
   <v type="int" >       38 </v>
   <v type="int" >       39 </v>
   <v type="int" >       40 </v>
   <v type="int" >       41 </v>
   <v type="int" >       42 </v>
   <v type="int" >       43 </v>
   <v type="int" >       44 </v>
   <v type="int" >       45 </v>
   <v type="int" >       46 </v>
   <v type="int" >       47 </v>
   <v type="int" >       48 </v>
   <v type="int" >       49 </v>
   <v type="int" >       50 </v>
   <v type="int" >       51 </v>
   <v type="int" >       52 </v>
   <v type="int" >       53 </v>
   <v type="int" >       54 </v>
   <v type="int" >       55 </v>
   <v type="int" >       56 </v>
   <v type="int" >       57 </v>
   <v type="int" >       58 </v>
   <v type="int" >       59 </v>
   <v type="int" >       60 </v>
   <v type="int" >       61 </v>
   <v type="int" >       62 </v>
   <v type="int" >       63 </v>
   <v type="int" >       64 </v>
   <v type="int" >       65 </v>
   <v type="int" >       66 </v>
   <v type="int" >       67 </v>
   <v type="int" >       68 </v>
   <v type="int" >       69 </v>
   <v type="int" >       70 </v>
   <v type="int" >       71 </v>
   <v type="int" >       72 </v>
   <v type="int" >       73 </v>
   <v type="int" >       74 </v>
   <v type="int" >       75 </v>
   <v type="int" >       76 </v>
   <v type="int" >       77 </v>
   <v type="int" >       78 </v>
   <v type="int" >       79 </v>
   <v type="int" >       80 </v>
   <v type="int" >       81 </v>
   <v type="int" >       82 </v>
   <v type="int" >       83 </v>
   <v type="int" >       84 </v>
   <v type="int" >       85 </v>
   <v type="int" >       86 </v>
   <v type="int" >       87 </v>
   <v type="int" >       88 </v>
   <v type="int" >       89 </v>
   <v type="int" >       90 </v>
   <v type="int" >       91 </v>
   <v type="int" >       92 </v>
   <v type="int" >       93 </v>
   <v type="int" >       94 </v>
   <v type="int" >       95 </v>
   <v type="int" >       96 </v>
   <v type="int" >       97 </v>
   <v type="int" >       98 </v>
   <v type="int" >       99 </v>
   <v type="int" >      100 </v>
   <v type="int" >      101 </v>
   <v type="int" >      102 </v>
   <v type="int" >      103 </v>
   <v type="int" >      104 </v>
   <v type="int" >      105 </v>
   <v type="int" >      106 </v>
   <v type="int" >      107 </v>
   <v type="int" >      108 </v>
   <v type="int" >      109 </v>
   <v type="int" >      110 </v>
   <v type="int" >      111 </v>
   <v type="int" >      112 </v>
   <v type="int" >      113 </v>
   <v type="int" >      114 </v>
   <v type="int" >      115 </v>
   <v type="int" >      116 </v>
   <v type="int" >      117 </v>
   <v type="int" >      118 </v>
   <v type="int" >      119 </v>
  </varray>
 </primitive_cell>
 <kpoints>
  <generation param="Gamma">
   <v type="int" name="divisions">       2        2        2 </v>
   <v name="usershift">      0.00000000       0.00000000       0.00000000 </v>
   <v name="genvec1">      0.50000000       0.00000000       0.00000000 </v>
   <v name="genvec2">      0.00000000       0.50000000       0.00000000 </v>
   <v name="genvec3">      0.00000000       0.00000000       0.50000000 </v>
   <v name="shift">      0.00000000       0.00000000       0.00000000 </v>
  </generation>
  <varray name="kpointlist" >
   <v>       0.00000000       0.00000000       0.00000000 </v>
   <v>       0.50000000       0.00000000       0.00000000 </v>
   <v>       0.00000000       0.50000000       0.00000000 </v>
   <v>       0.50000000       0.50000000       0.00000000 </v>
   <v>       0.00000000       0.00000000       0.50000000 </v>
   <v>       0.50000000       0.00000000       0.50000000 </v>
   <v>       0.00000000       0.50000000       0.50000000 </v>
   <v>       0.50000000       0.50000000       0.50000000 </v>
  </varray>
  <varray name="weights" >
   <v>       0.12500000 </v>
   <v>       0.12500000 </v>
   <v>       0.12500000 </v>
   <v>       0.12500000 </v>
   <v>       0.12500000 </v>
   <v>       0.12500000 </v>
   <v>       0.12500000 </v>
   <v>       0.12500000 </v>
  </varray>
 </kpoints>
 <parameters>
  <separator name="general" >
   <i type="string" name="SYSTEM">unknown system</i>
   <i type="logical" name="LCOMPAT"> F  </i>
  </separator>
  <separator name="electronic" >
   <i type="string" name="PREC">normal</i>
   <i name="ENMAX">    450.00000000</i>
   <i name="ENAUG">    605.39200000</i>
   <i name="EDIFF">      0.00001000</i>
   <i type="int" name="IALGO">    68</i>
   <i type="int" name="IWAVPR">    11</i>
   <i type="int" name="NBANDS">   625</i>
   <i type="int" name="NBANDSLOW">    -1</i>
   <i type="int" name="NBANDSHIGH">    -1</i>
   <i name="NELECT">   1043.00000000</i>
   <i type="int" name="TURBO">     0</i>
   <i type="int" name="IRESTART">     0</i>
   <i type="int" name="NREBOOT">     0</i>
   <i type="int" name="NMIN">     0</i>
   <i name="EREF">      0.00000000</i>
   <separator name="electronic smearing" >
    <i type="int" name="ISMEAR">     0</i>
    <i name="SIGMA">      0.05000000</i>
    <i name="KSPACING">      0.50000000</i>
    <i type="logical" name="KGAMMA"> T  </i>
    <i type="logical" name="KBLOWUP"> T  </i>
   </separator>
   <separator name="electronic projectors" >
    <i type="logical" name="LREAL"> T  </i>
    <v name="ROPT">     -0.00050000     -0.00050000     -0.00050000</v>
    <i type="int" name="LMAXPAW">  -100</i>
    <i type="int" name="LMAXMIX">     2</i>
    <i type="logical" name="NLSPLINE"> F  </i>
   </separator>
   <separator name="electronic startup" >
    <i type="int" name="ISTART">     0</i>
    <i type="int" name="ICHARG">     2</i>
    <i type="int" name="INIWAV">     1</i>
   </separator>
   <separator name="electronic spin" >
    <i type="int" name="ISPIN">     1</i>
    <i type="logical" name="LNONCOLLINEAR"> F  </i>
    <v name="MAGMOM">      1.00000000      1.00000000      1.00000000      1.00000000      1.00000000      1.00000000      1.00000000      1.00000000      1.00000000      1.00000000      1.00000000      1.00000000      1.00000000      1.00000000      1.00000000      1.00000000      1.00000000      1.00000000      1.00000000      1.00000000
      1.00000000      1.00000000      1.00000000      1.00000000      1.00000000      1.00000000      1.00000000      1.00000000      1.00000000      1.00000000      1.00000000      1.00000000      1.00000000      1.00000000      1.00000000      1.00000000      1.00000000      1.00000000      1.00000000      1.00000000
      1.00000000      1.00000000      1.00000000      1.00000000      1.00000000      1.00000000      1.00000000      1.00000000      1.00000000      1.00000000      1.00000000      1.00000000      1.00000000      1.00000000      1.00000000      1.00000000      1.00000000      1.00000000      1.00000000      1.00000000
      1.00000000      1.00000000      1.00000000      1.00000000      1.00000000      1.00000000      1.00000000      1.00000000      1.00000000      1.00000000      1.00000000      1.00000000      1.00000000      1.00000000      1.00000000      1.00000000      1.00000000      1.00000000      1.00000000      1.00000000
      1.00000000      1.00000000      1.00000000      1.00000000      1.00000000      1.00000000      1.00000000      1.00000000      1.00000000      1.00000000      1.00000000      1.00000000      1.00000000      1.00000000      1.00000000      1.00000000      1.00000000      1.00000000      1.00000000      1.00000000
      1.00000000      1.00000000      1.00000000      1.00000000      1.00000000      1.00000000      1.00000000      1.00000000      1.00000000      1.00000000      1.00000000      1.00000000      1.00000000      1.00000000      1.00000000      1.00000000      1.00000000      1.00000000      1.00000000</v>
    <i name="NUPDOWN">     -1.00000000</i>
    <i type="logical" name="LSORBIT"> F  </i>
    <v name="SAXIS">      0.00000000      0.00000000      1.00000000</v>
    <i type="logical" name="LSPIRAL"> F  </i>
    <v name="QSPIRAL">      0.00000000      0.00000000      0.00000000</v>
    <i type="logical" name="LZEROZ"> F  </i>
   </separator>
   <separator name="electronic exchange-correlation" >
    <i type="logical" name="LASPH"> F  </i>
    <i type="logical" name="LMETAGGA"> F  </i>
   </separator>
   <separator name="electronic convergence" >
    <i type="int" name="NELM">    60</i>
    <i type="int" name="NELMDL">    -5</i>
    <i type="int" name="NELMIN">     2</i>
    <i name="ENINI">    450.00000000</i>
    <separator name="electronic convergence detail" >
     <i type="logical" name="LDIAG"> T  </i>
     <i type="logical" name="LSUBROT"> F  </i>
     <i name="WEIMIN">      0.00100000</i>
     <i name="EBREAK">      0.00000000</i>
     <i name="DEPER">      0.30000000</i>
     <i type="int" name="NRMM">     4</i>
     <i name="TIME">      0.40000000</i>
    </separator>
   </separator>
   <separator name="electronic mixer" >
    <i name="AMIX">      0.40000000</i>
    <i name="BMIX">      1.00000000</i>
    <i name="AMIN">      0.10000000</i>
    <i name="AMIX_MAG">      1.60000000</i>
    <i name="BMIX_MAG">      1.00000000</i>
    <separator name="electronic mixer details" >
     <i type="int" name="IMIX">     4</i>
     <i type="logical" name="MIXFIRST"> F  </i>
     <i type="int" name="MAXMIX">   -45</i>
     <i name="WC">    100.00000000</i>
     <i type="int" name="INIMIX">     1</i>
     <i type="int" name="MIXPRE">     1</i>
     <i type="int" name="MREMOVE">     5</i>
    </separator>
   </separator>
   <separator name="electronic dipolcorrection" >
    <i type="logical" name="LDIPOL"> F  </i>
    <i type="logical" name="LMONO"> F  </i>
    <i type="int" name="IDIPOL">     0</i>
    <i name="EPSILON">      1.00000000</i>
    <v name="DIPOL">   -100.00000000   -100.00000000   -100.00000000</v>
    <i name="EFIELD">      0.00000000</i>
   </separator>
  </separator>
  <separator name="grids" >
   <i type="int" name="NGX">    64</i>
   <i type="int" name="NGY">    48</i>
   <i type="int" name="NGZ">    60</i>
   <i type="int" name="NGXF">   128</i>
   <i type="int" name="NGYF">    96</i>
   <i type="int" name="NGZF">   120</i>
   <i type="logical" name="ADDGRID"> F  </i>
  </separator>
  <separator name="ionic" >
   <i type="int" name="NSW">   300</i>
   <i type="int" name="IBRION">     2</i>
   <i type="int" name="MDALGO">     0</i>
   <i type="int" name="ISIF">     2</i>
   <i name="PSTRESS">      0.00000000</i>
   <i name="EDIFFG">     -0.00500000</i>
   <i type="int" name="NFREE">     1</i>
   <i name="POTIM">      0.50000000</i>
   <i name="SMASS">     -3.00000000</i>
   <i name="SCALEE">      1.00000000</i>
  </separator>
  <separator name="ionic md" >
   <i name="TEBEG">      0.00010000</i>
   <i name="TEEND">      0.00010000</i>
   <i type="int" name="NBLOCK">     1</i>
   <i type="int" name="KBLOCK">   300</i>
   <i type="int" name="NPACO">   256</i>
   <i name="APACO">     10.00000000</i>
  </separator>
  <separator name="symmetry" >
   <i type="int" name="ISYM">     2</i>
   <i name="SYMPREC">      0.00001000</i>
  </separator>
  <separator name="dos" >
   <i type="int" name="LORBIT">     0</i>
   <v name="RWIGS">     -1.00000000     -1.00000000     -1.00000000</v>
   <i type="int" name="NEDOS">   301</i>
   <i name="EMIN">     10.00000000</i>
   <i name="EMAX">    -10.00000000</i>
   <i name="EFERMI">      0.00000000</i>
  </separator>
  <separator name="writing" >
   <i type="int" name="NWRITE">     2</i>
   <i type="logical" name="LWAVE"> F  </i>
   <i type="logical" name="LDOWNSAMPLE"> F  </i>
   <i type="logical" name="LCHARG"> F  </i>
   <i type="logical" name="LPARD"> F  </i>
   <i type="logical" name="LVTOT"> F  </i>
   <i type="logical" name="LVHAR"> F  </i>
   <i type="logical" name="LELF"> F  </i>
   <i type="logical" name="LOPTICS"> F  </i>
   <v name="STM">      0.00000000      0.00000000      0.00000000      0.00000000      0.00000000      0.00000000      0.00000000</v>
  </separator>
  <separator name="performance" >
   <i type="int" name="NPAR">     1</i>
   <i type="int" name="NSIM">     4</i>
   <i type="int" name="NBLK">    -1</i>
   <i type="logical" name="LPLANE"> T  </i>
   <i type="logical" name="LSCALAPACK"> T  </i>
   <i type="logical" name="LSCAAWARE"> F  </i>
   <i type="logical" name="LSCALU"> F  </i>
   <i type="logical" name="LASYNC"> F  </i>
   <i type="logical" name="LORBITALREAL"> F  </i>
  </separator>
  <separator name="miscellaneous" >
   <i type="int" name="IDIOT">     3</i>
   <i type="int" name="PHON_NSTRUCT">    -1</i>
   <i type="logical" name="LMUSIC"> F  </i>
   <v name="POMASS">     69.72300000     16.00000000     30.97400000</v>
   <v name="DARWINR">      0.00000000      0.00000000      0.00000000</v>
   <v name="DARWINV">      1.00000000      1.00000000      1.00000000</v>
   <i type="logical" name="LCORR"> T  </i>
  </separator>
  <i type="logical" name="GGA_COMPAT"> T  </i>
  <i type="logical" name="LBERRY"> F  </i>
  <i type="int" name="ICORELEVEL">     0</i>
  <i type="logical" name="LDAU"> F  </i>
  <i type="int" name="I_CONSTRAINED_M">     0</i>
  <separator name="electronic exchange-correlation" >
   <i type="string" name="GGA">--</i>
   <i type="int" name="VOSKOWN">     0</i>
   <i type="logical" name="LHFCALC"> F  </i>
   <i type="string" name="PRECFOCK"></i>
   <i type="logical" name="LSYMGRAD"> F  </i>
   <i type="logical" name="LHFONE"> F  </i>
   <i type="logical" name="LRHFCALC"> F  </i>
   <i type="logical" name="LTHOMAS"> F  </i>
   <i type="logical" name="LMODELHF"> F  </i>
   <i type="logical" name="LFOCKACE"> F  </i>
   <i name="ENCUT4O">     -1.00000000</i>
   <i type="int" name="EXXOEP">     0</i>
   <i type="int" name="FOURORBIT">     0</i>
   <i name="AEXX">      0.00000000</i>
   <i name="HFALPHA">      0.00000000</i>
   <i name="MCALPHA">      0.00000000</i>
   <i name="ALDAX">      1.00000000</i>
   <i name="AGGAX">      1.00000000</i>
   <i name="ALDAC">      1.00000000</i>
   <i name="AGGAC">      1.00000000</i>
   <i type="int" name="NKREDX">     1</i>
   <i type="int" name="NKREDY">     1</i>
   <i type="int" name="NKREDZ">     1</i>
   <i type="logical" name="SHIFTRED"> F  </i>
   <i type="logical" name="ODDONLY"> F  </i>
   <i type="logical" name="EVENONLY"> F  </i>
   <i type="int" name="LMAXFOCK">     0</i>
   <i type="int" name="NMAXFOCKAE">     0</i>
   <i type="logical" name="LFOCKAEDFT"> F  </i>
   <i name="HFSCREEN">      0.00000000</i>
   <i name="HFSCREENC">      0.00000000</i>
   <i type="int" name="NBANDSGWLOW">     0</i>
  </separator>
  <separator name="vdW DFT" >
   <i type="logical" name="LUSE_VDW"> F  </i>
   <i type="int" name="IVDW_NL">     1</i>
   <i type="logical" name="LSPIN_VDW"> F  </i>
   <i name="Zab_VDW">     -0.84910000</i>
   <i name="PARAM1">      0.12340000</i>
   <i name="PARAM2">      1.00000000</i>
   <i name="PARAM3">      0.00000000</i>
  </separator>
  <separator name="model GW" >
   <i type="int" name="MODEL_GW">     0</i>
   <i name="MODEL_EPS0">      6.39733692</i>
   <i name="MODEL_ALPHA">      1.00000000</i>
  </separator>
  <separator name="linear response parameters" >
   <i type="logical" name="LEPSILON"> F  </i>
   <i type="logical" name="LRPA"> F  </i>
   <i type="logical" name="LNABLA"> F  </i>
   <i type="logical" name="LVEL"> F  </i>
   <i name="CSHIFT">      0.10000000</i>
   <i name="OMEGAMAX">     -1.00000000</i>
   <i name="DEG_THRESHOLD">      0.00200000</i>
   <i name="RTIME">     -0.10000000</i>
   <i name="WPLASMAI">      0.00000000</i>
   <v name="DFIELD">      0.00000000      0.00000000      0.00000000</v>
   <v name="WPLASMA">      0.00000000      0.00000000      0.00000000      0.00000000      0.00000000      0.00000000      0.00000000      0.00000000      0.00000000</v>
  </separator>
  <separator name="orbital magnetization" >
   <i type="logical" name="NUCIND"> F  </i>
   <v name="MAGPOS">      0.00000000      0.00000000      0.00000000</v>
   <i type="logical" name="LNICSALL"> T  </i>
   <i type="logical" name="ORBITALMAG"> F  </i>
   <i type="logical" name="LMAGBLOCH"> F  </i>
   <i type="logical" name="LCHIMAG"> F  </i>
   <i type="logical" name="LGAUGE"> T  </i>
   <i type="int" name="MAGATOM">     0</i>
   <v name="MAGDIPOL">      0.00000000      0.00000000      0.00000000</v>
   <v name="AVECCONST">      0.00000000      0.00000000      0.00000000</v>
  </separator>
  <separator name="response functions" >
   <i type="logical" name="LALL_IN_ONE"> F  </i>
   <i type="int" name="IALL_IN_ONE">    -1</i>
   <i type="int" name="NBANDS_WAVE">    -1</i>
   <i type="logical" name="LFINITE_TEMPERATURE"> F  </i>
   <i type="logical" name="LADDER"> F  </i>
   <i type="logical" name="LRPAFORCE"> F  </i>
   <i type="logical" name="LFXC"> F  </i>
   <i type="logical" name="LHARTREE"> T  </i>
   <i type="int" name="IBSE">     0</i>
   <v type="int" name="KPOINT">    -1     0     0     0</v>
   <i type="logical" name="LTCTC"> F  </i>
   <i type="logical" name="LTCTE"> F  </i>
   <i type="logical" name="LTETE"> F  </i>
   <i type="logical" name="LTRIPLET"> F  </i>
   <i type="logical" name="LFXCEPS"> F  </i>
   <i type="logical" name="LFXHEG"> F  </i>
   <i type="int" name="NATURALO">     2</i>
   <i type="logical" name="LHOLEGF"> F  </i>
   <i type="logical" name="L2ORDER"> F  </i>
   <i type="logical" name="LDMP1"> F  </i>
   <i type="logical" name="LMP2LT"> F  </i>
   <i type="logical" name="LSMP2LT"> F  </i>
   <i type="logical" name="LGWLF"> F  </i>
   <i name="ENCUTGW">     -1.60000002</i>
   <i name="ENCUTGWSOFT">     -1.60000002</i>
   <i name="ENCUTLF">     -1.00000000</i>
   <i type="logical" name="LESF_SPLINES"> F  </i>
   <i type="int" name="LMAXMP2">    -1</i>
   <i name="SCISSOR">      0.00000000</i>
   <i type="int" name="NOMEGA">     0</i>
   <i type="int" name="NOMEGAR">     0</i>
   <i type="int" name="NBANDSGW">    -1</i>
   <i type="int" name="NBANDSO">    -1</i>
   <i type="int" name="NBANDSV">    -1</i>
   <i type="int" name="NELMGW">     1</i>
   <i type="int" name="NELMHF">     1</i>
   <i type="int" name="DIM">     3</i>
   <i type="int" name="IESPILON">     4</i>
   <i type="int" name="ANTIRES">     0</i>
   <i name="OMEGAMAX">    -30.00000000</i>
   <i name="OMEGAMIN">    -30.00000000</i>
   <i name="OMEGATL">   -200.00000000</i>
   <i type="int" name="OMEGAGRID">     0</i>
   <i name="CSHIFT">     -0.10000000</i>
   <i type="logical" name="LSELFENERGY"> F  </i>
   <i type="logical" name="LSPECTRAL"> F  </i>
   <i type="logical" name="LSPECTRALGW"> F  </i>
   <i type="logical" name="LSINGLES"> F  </i>
   <i type="logical" name="LFERMIGW"> F  </i>
   <i type="logical" name="ODDONLYGW"> F  </i>
   <i type="logical" name="EVENONLYGW"> F  </i>
   <i type="int" name="NKREDLFX">     1</i>
   <i type="int" name="NKREDLFY">     1</i>
   <i type="int" name="NKREDLFZ">     1</i>
   <i type="int" name="MAXMEM">  2800</i>
   <i type="int" name="TELESCOPE">     0</i>
   <i type="int" name="NTAUPAR">    -1</i>
   <i type="int" name="NOMEGAPAR">    -1</i>
   <i name="DAMP_NEWTON">      0.80000001</i>
   <i name="LAMBDA">      1.00000000</i>
  </separator>
  <separator name="External order field" >
   <i name="OFIELD_KAPPA">      0.00000000</i>
   <v name="OFIELD_K">      0.00000000      0.00000000      0.00000000</v>
   <i name="OFIELD_Q6_NEAR">      0.00000000</i>
   <i name="OFIELD_Q6_FAR">      0.00000000</i>
   <i name="OFIELD_A">      0.00000000</i>
  </separator>
  <separator name="optional k-points parameters" >
   <i type="int" name="KPOINTS_OPT_MODE">     1</i>
   <i type="logical" name="LKPOINTS_OPT"> F  </i>
  </separator>
 </parameters>
 <atominfo>
  <atoms>     119 </atoms>
  <types>       3 </types>
  <array name="atoms" >
   <dimension dim="1">ion</dimension>
   <field type="string">element</field>
   <field type="int">atomtype</field>
   <set>
    <rc><c>Ga</c><c>   1</c></rc>
    <rc><c>Ga</c><c>   1</c></rc>
    <rc><c>Ga</c><c>   1</c></rc>
    <rc><c>Ga</c><c>   1</c></rc>
    <rc><c>Ga</c><c>   1</c></rc>
    <rc><c>Ga</c><c>   1</c></rc>
    <rc><c>Ga</c><c>   1</c></rc>
    <rc><c>Ga</c><c>   1</c></rc>
    <rc><c>Ga</c><c>   1</c></rc>
    <rc><c>Ga</c><c>   1</c></rc>
    <rc><c>Ga</c><c>   1</c></rc>
    <rc><c>Ga</c><c>   1</c></rc>
    <rc><c>Ga</c><c>   1</c></rc>
    <rc><c>Ga</c><c>   1</c></rc>
    <rc><c>Ga</c><c>   1</c></rc>
    <rc><c>Ga</c><c>   1</c></rc>
    <rc><c>Ga</c><c>   1</c></rc>
    <rc><c>Ga</c><c>   1</c></rc>
    <rc><c>Ga</c><c>   1</c></rc>
    <rc><c>Ga</c><c>   1</c></rc>
    <rc><c>Ga</c><c>   1</c></rc>
    <rc><c>Ga</c><c>   1</c></rc>
    <rc><c>Ga</c><c>   1</c></rc>
    <rc><c>Ga</c><c>   1</c></rc>
    <rc><c>Ga</c><c>   1</c></rc>
    <rc><c>Ga</c><c>   1</c></rc>
    <rc><c>Ga</c><c>   1</c></rc>
    <rc><c>Ga</c><c>   1</c></rc>
    <rc><c>Ga</c><c>   1</c></rc>
    <rc><c>Ga</c><c>   1</c></rc>
    <rc><c>Ga</c><c>   1</c></rc>
    <rc><c>Ga</c><c>   1</c></rc>
    <rc><c>Ga</c><c>   1</c></rc>
    <rc><c>Ga</c><c>   1</c></rc>
    <rc><c>Ga</c><c>   1</c></rc>
    <rc><c>Ga</c><c>   1</c></rc>
    <rc><c>Ga</c><c>   1</c></rc>
    <rc><c>Ga</c><c>   1</c></rc>
    <rc><c>Ga</c><c>   1</c></rc>
    <rc><c>Ga</c><c>   1</c></rc>
    <rc><c>Ga</c><c>   1</c></rc>
    <rc><c>Ga</c><c>   1</c></rc>
    <rc><c>Ga</c><c>   1</c></rc>
    <rc><c>Ga</c><c>   1</c></rc>
    <rc><c>Ga</c><c>   1</c></rc>
    <rc><c>Ga</c><c>   1</c></rc>
    <rc><c>Ga</c><c>   1</c></rc>
    <rc><c>O </c><c>   2</c></rc>
    <rc><c>O </c><c>   2</c></rc>
    <rc><c>O </c><c>   2</c></rc>
    <rc><c>O </c><c>   2</c></rc>
    <rc><c>O </c><c>   2</c></rc>
    <rc><c>O </c><c>   2</c></rc>
    <rc><c>O </c><c>   2</c></rc>
    <rc><c>O </c><c>   2</c></rc>
    <rc><c>O </c><c>   2</c></rc>
    <rc><c>O </c><c>   2</c></rc>
    <rc><c>O </c><c>   2</c></rc>
    <rc><c>O </c><c>   2</c></rc>
    <rc><c>O </c><c>   2</c></rc>
    <rc><c>O </c><c>   2</c></rc>
    <rc><c>O </c><c>   2</c></rc>
    <rc><c>O </c><c>   2</c></rc>
    <rc><c>O </c><c>   2</c></rc>
    <rc><c>O </c><c>   2</c></rc>
    <rc><c>O </c><c>   2</c></rc>
    <rc><c>O </c><c>   2</c></rc>
    <rc><c>O </c><c>   2</c></rc>
    <rc><c>O </c><c>   2</c></rc>
    <rc><c>O </c><c>   2</c></rc>
    <rc><c>O </c><c>   2</c></rc>
    <rc><c>O </c><c>   2</c></rc>
    <rc><c>O </c><c>   2</c></rc>
    <rc><c>O </c><c>   2</c></rc>
    <rc><c>O </c><c>   2</c></rc>
    <rc><c>O </c><c>   2</c></rc>
    <rc><c>O </c><c>   2</c></rc>
    <rc><c>O </c><c>   2</c></rc>
    <rc><c>O </c><c>   2</c></rc>
    <rc><c>O </c><c>   2</c></rc>
    <rc><c>O </c><c>   2</c></rc>
    <rc><c>O </c><c>   2</c></rc>
    <rc><c>O </c><c>   2</c></rc>
    <rc><c>O </c><c>   2</c></rc>
    <rc><c>O </c><c>   2</c></rc>
    <rc><c>O </c><c>   2</c></rc>
    <rc><c>O </c><c>   2</c></rc>
    <rc><c>O </c><c>   2</c></rc>
    <rc><c>O </c><c>   2</c></rc>
    <rc><c>O </c><c>   2</c></rc>
    <rc><c>O </c><c>   2</c></rc>
    <rc><c>O </c><c>   2</c></rc>
    <rc><c>O </c><c>   2</c></rc>
    <rc><c>O </c><c>   2</c></rc>
    <rc><c>O </c><c>   2</c></rc>
    <rc><c>O </c><c>   2</c></rc>
    <rc><c>O </c><c>   2</c></rc>
    <rc><c>O </c><c>   2</c></rc>
    <rc><c>O </c><c>   2</c></rc>
    <rc><c>O </c><c>   2</c></rc>
    <rc><c>O </c><c>   2</c></rc>
    <rc><c>O </c><c>   2</c></rc>
    <rc><c>O </c><c>   2</c></rc>
    <rc><c>O </c><c>   2</c></rc>
    <rc><c>O </c><c>   2</c></rc>
    <rc><c>O </c><c>   2</c></rc>
    <rc><c>O </c><c>   2</c></rc>
    <rc><c>O </c><c>   2</c></rc>
    <rc><c>O </c><c>   2</c></rc>
    <rc><c>O </c><c>   2</c></rc>
    <rc><c>O </c><c>   2</c></rc>
    <rc><c>O </c><c>   2</c></rc>
    <rc><c>O </c><c>   2</c></rc>
    <rc><c>O </c><c>   2</c></rc>
    <rc><c>O </c><c>   2</c></rc>
    <rc><c>O </c><c>   2</c></rc>
    <rc><c>O </c><c>   2</c></rc>
    <rc><c>O </c><c>   2</c></rc>
    <rc><c>P </c><c>   3</c></rc>
   </set>
  </array>
  <array name="atomtypes" >
   <dimension dim="1">type</dimension>
   <field type="int">atomspertype</field>
   <field type="string">element</field>
   <field>mass</field>
   <field>valence</field>
   <field type="string">pseudopotential</field>
   <set>
    <rc><c>  47</c><c>Ga</c><c>     69.72300000</c><c>     13.00000000</c><c>  PAW_PBE Ga_d 06Jul2010                </c></rc>
    <rc><c>  71</c><c>O </c><c>     16.00000000</c><c>      6.00000000</c><c>   PAW_PBE O 08Apr2002                  </c></rc>
    <rc><c>   1</c><c>P </c><c>     30.97400000</c><c>      5.00000000</c><c>  PAW_PBE P 06Sep2000                   </c></rc>
   </set>
  </array>
 </atominfo>
 <structure name="initialpos" >
  <crystal>
   <varray name="basis" >
    <v>       0.00000000      12.28047342       0.00000000 </v>
    <v>       9.14270205       0.00000000       0.00000000 </v>
    <v>       0.00000000      -2.76826177     -11.30069772 </v>
   </varray>
   <i name="volume">   1268.80515525 </i>
   <varray name="rec_basis" >
    <v>       0.00000000       0.08143009      -0.01994742 </v>
    <v>       0.10937686      -0.00000000       0.00000000 </v>
    <v>       0.00000000       0.00000000      -0.08849011 </v>
   </varray>
  </crystal>
  <varray name="positions" >
   <v>       0.65883830       0.00000000       0.15736517 </v>
   <v>       0.65883830       0.00000000       0.65736517 </v>
   <v>       0.65883830       0.33333333       0.15736517 </v>
   <v>       0.65883830       0.33333333       0.65736517 </v>
   <v>       0.65883830       0.66666667       0.15736517 </v>
   <v>       0.65883830       0.66666667       0.65736517 </v>
   <v>       0.84116170       0.16666667       0.34263483 </v>
   <v>       0.84116170       0.16666667       0.84263483 </v>
   <v>       0.84116170       0.50000000       0.34263483 </v>
   <v>       0.84116170       0.50000000       0.84263483 </v>
   <v>       0.84116170       0.83333333       0.34263483 </v>
   <v>       0.84116170       0.83333333       0.84263483 </v>
   <v>       0.59047440       0.16666667       0.39739300 </v>
   <v>       0.59047440       0.16666667       0.89739300 </v>
   <v>       0.59047440       0.50000000       0.39739300 </v>
   <v>       0.59047440       0.50000000       0.89739300 </v>
   <v>       0.59047440       0.83333333       0.39739300 </v>
   <v>       0.59047440       0.83333333       0.89739300 </v>
   <v>       0.90952560       0.00000000       0.10260700 </v>
   <v>       0.90952560       0.00000000       0.60260700 </v>
   <v>       0.90952560       0.33333333       0.10260700 </v>
   <v>       0.90952560       0.33333333       0.60260700 </v>
   <v>       0.90952560       0.66666667       0.10260700 </v>
   <v>       0.90952560       0.66666667       0.60260700 </v>
   <v>       0.15883830       0.16666667       0.15736517 </v>
   <v>       0.15883830       0.16666667       0.65736517 </v>
   <v>       0.15883830       0.50000000       0.15736517 </v>
   <v>       0.15883830       0.50000000       0.65736517 </v>
   <v>       0.15883830       0.83333333       0.15736517 </v>
   <v>       0.15883830       0.83333333       0.65736517 </v>
   <v>       0.34116170       0.00000000       0.34263483 </v>
   <v>       0.34116170       0.00000000       0.84263483 </v>
   <v>       0.34116170       0.33333333       0.34263483 </v>
   <v>       0.34116170       0.33333333       0.84263483 </v>
   <v>       0.34116170       0.66666667       0.34263483 </v>
   <v>       0.34116170       0.66666667       0.84263483 </v>
   <v>       0.09047440       0.00000000       0.89739300 </v>
   <v>       0.09047440       0.33333333       0.39739300 </v>
   <v>       0.09047440       0.33333333       0.89739300 </v>
   <v>       0.09047440       0.66666667       0.39739300 </v>
   <v>       0.09047440       0.66666667       0.89739300 </v>
   <v>       0.40952560       0.16666667       0.10260700 </v>
   <v>       0.40952560       0.16666667       0.60260700 </v>
   <v>       0.40952560       0.50000000       0.10260700 </v>
   <v>       0.40952560       0.50000000       0.60260700 </v>
   <v>       0.40952560       0.83333333       0.10260700 </v>
   <v>       0.40952560       0.83333333       0.60260700 </v>
   <v>       0.99646913       0.16666667       0.12833205 </v>
   <v>       0.99646913       0.16666667       0.62833205 </v>
   <v>       0.99646913       0.50000000       0.12833205 </v>
   <v>       0.99646913       0.50000000       0.62833205 </v>
   <v>       0.99646913       0.83333333       0.12833205 </v>
   <v>       0.99646913       0.83333333       0.62833205 </v>
   <v>       0.50353087       0.00000000       0.37166795 </v>
   <v>       0.50353087       0.00000000       0.87166795 </v>
   <v>       0.50353087       0.33333333       0.37166795 </v>
   <v>       0.50353087       0.33333333       0.87166795 </v>
   <v>       0.50353087       0.66666667       0.37166795 </v>
   <v>       0.50353087       0.66666667       0.87166795 </v>
   <v>       0.67337106       0.16666667       0.28161508 </v>
   <v>       0.67337106       0.16666667       0.78161508 </v>
   <v>       0.67337106       0.50000000       0.28161508 </v>
   <v>       0.67337106       0.50000000       0.78161508 </v>
   <v>       0.67337106       0.83333333       0.28161508 </v>
   <v>       0.67337106       0.83333333       0.78161508 </v>
   <v>       0.82662894       0.00000000       0.21838492 </v>
   <v>       0.82662894       0.00000000       0.71838492 </v>
   <v>       0.82662894       0.33333333       0.21838492 </v>
   <v>       0.82662894       0.33333333       0.71838492 </v>
   <v>       0.82662894       0.66666667       0.21838492 </v>
   <v>       0.82662894       0.66666667       0.71838492 </v>
   <v>       0.83549502       0.00000000       0.44542296 </v>
   <v>       0.83549502       0.00000000       0.94542296 </v>
   <v>       0.83549502       0.33333333       0.44542296 </v>
   <v>       0.83549502       0.33333333       0.94542296 </v>
   <v>       0.83549502       0.66666667       0.44542296 </v>
   <v>       0.83549502       0.66666667       0.94542296 </v>
   <v>       0.66450498       0.16666667       0.05457704 </v>
   <v>       0.66450498       0.16666667       0.55457704 </v>
   <v>       0.66450498       0.50000000       0.05457704 </v>
   <v>       0.66450498       0.50000000       0.55457704 </v>
   <v>       0.66450498       0.83333333       0.05457704 </v>
   <v>       0.66450498       0.83333333       0.55457704 </v>
   <v>       0.49646913       0.00000000       0.12833205 </v>
   <v>       0.49646913       0.00000000       0.62833205 </v>
   <v>       0.49646913       0.33333333       0.12833205 </v>
   <v>       0.49646913       0.33333333       0.62833205 </v>
   <v>       0.49646913       0.66666667       0.12833205 </v>
   <v>       0.49646913       0.66666667       0.62833205 </v>
   <v>       0.00353087       0.16666667       0.37166795 </v>
   <v>       0.00353087       0.16666667       0.87166795 </v>
   <v>       0.00353087       0.50000000       0.37166795 </v>
   <v>       0.00353087       0.50000000       0.87166795 </v>
   <v>       0.00353087       0.83333333       0.37166795 </v>
   <v>       0.00353087       0.83333333       0.87166795 </v>
   <v>       0.17337106       0.00000000       0.78161508 </v>
   <v>       0.17337106       0.33333333       0.28161508 </v>
   <v>       0.17337106       0.33333333       0.78161508 </v>
   <v>       0.17337106       0.66666667       0.28161508 </v>
   <v>       0.17337106       0.66666667       0.78161508 </v>
   <v>       0.32662894       0.16666667       0.21838492 </v>
   <v>       0.32662894       0.16666667       0.71838492 </v>
   <v>       0.32662894       0.50000000       0.21838492 </v>
   <v>       0.32662894       0.50000000       0.71838492 </v>
   <v>       0.32662894       0.83333333       0.21838492 </v>
   <v>       0.32662894       0.83333333       0.71838492 </v>
   <v>       0.33549502       0.16666667       0.44542296 </v>
   <v>       0.33549502       0.16666667       0.94542296 </v>
   <v>       0.33549502       0.50000000       0.44542296 </v>
   <v>       0.33549502       0.50000000       0.94542296 </v>
   <v>       0.33549502       0.83333333       0.44542296 </v>
   <v>       0.33549502       0.83333333       0.94542296 </v>
   <v>       0.16450498       0.00000000       0.05457704 </v>
   <v>       0.16450498       0.00000000       0.55457704 </v>
   <v>       0.16450498       0.33333333       0.05457704 </v>
   <v>       0.16450498       0.33333333       0.55457704 </v>
   <v>       0.16450498       0.66666667       0.05457704 </v>
   <v>       0.16450498       0.66666667       0.55457704 </v>
   <v>       0.17337106       0.00000000       0.28161508 </v>
  </varray>
 </structure>
 <calculation>
  <scstep>
   <time name="dav">    1.76    1.76</time>
   <time name="total">    1.89    1.89</time>
   <energy>
    <i name="alphaZ">   5376.25786726 </i>
    <i name="ewald"> -86201.52052952 </i>
    <i name="hartreedc"> -33695.74815964 </i>
    <i name="XCdc">   4078.63762559 </i>
    <i name="pawpsdc"> 100093.09196360 </i>
    <i name="pawaedc">-115889.62880893 </i>
    <i name="eentropy">     -0.00990009 </i>
    <i name="bandstr">  16109.22005497 </i>
    <i name="atom"> 131866.99277783 </i>
    <i name="e_fr_energy">  21737.29289106 </i>
    <i name="e_wo_entrp">  21737.30279115 </i>
    <i name="e_0_energy">  21737.29784111 </i>
   </energy>
  </scstep>
  <scstep>
   <time name="dav">    1.68    1.68</time>
   <time name="total">    1.68    1.68</time>
   <energy>
    <i name="e_fr_energy">   4826.22549581 </i>
    <i name="e_wo_entrp">   4826.24205047 </i>
    <i name="e_0_energy">   4826.23377314 </i>
   </energy>
  </scstep>
  <scstep>
   <time name="dav">    2.09    2.09</time>
   <time name="total">    2.09    2.09</time>
   <energy>
    <i name="e_fr_energy">   -139.83117226 </i>
    <i name="e_wo_entrp">   -139.81636273 </i>
    <i name="e_0_energy">   -139.82376750 </i>
   </energy>
  </scstep>
  <scstep>
   <time name="dav">    2.27    2.27</time>
   <time name="total">    2.27    2.27</time>
   <energy>
    <i name="e_fr_energy">   -760.33364211 </i>
    <i name="e_wo_entrp">   -760.31798174 </i>
    <i name="e_0_energy">   -760.32581192 </i>
   </energy>
  </scstep>
  <scstep>
   <time name="dav">    2.28    2.28</time>
   <time name="total">    2.55    2.55</time>
   <energy>
    <i name="e_fr_energy">   -802.38145522 </i>
    <i name="e_wo_entrp">   -802.36609957 </i>
    <i name="e_0_energy">   -802.37377740 </i>
   </energy>
  </scstep>
  <scstep>
   <time name="diag">    0.24    0.24</time>
   <time name="diis">    2.45    2.45</time>
   <time name="orth">    0.03    0.03</time>
   <time name="total">    3.11    3.11</time>
   <energy>
    <i name="e_fr_energy">   -691.83139940 </i>
    <i name="e_wo_entrp">   -691.81936367 </i>
    <i name="e_0_energy">   -691.82538154 </i>
   </energy>
  </scstep>
  <scstep>
   <time name="diag">    0.24    0.24</time>
   <time name="diis">    2.60    2.60</time>
   <time name="orth">    0.03    0.03</time>
   <time name="total">    3.42    3.42</time>
   <energy>
    <i name="e_fr_energy">   -697.89019488 </i>
    <i name="e_wo_entrp">   -697.86835610 </i>
    <i name="e_0_energy">   -697.87927549 </i>
   </energy>
  </scstep>
  <scstep>
   <time name="diag">    0.24    0.24</time>
   <time name="diis">    2.91    2.91</time>
   <time name="orth">    0.03    0.03</time>
   <time name="total">    3.56    3.56</time>
   <energy>
    <i name="e_fr_energy">   -693.84897492 </i>
    <i name="e_wo_entrp">   -693.82303865 </i>
    <i name="e_0_energy">   -693.83600679 </i>
   </energy>
  </scstep>
  <scstep>
   <time name="diag">    0.24    0.24</time>
   <time name="diis">    2.50    2.50</time>
   <time name="orth">    0.03    0.03</time>
   <time name="total">    3.16    3.16</time>
   <energy>
    <i name="e_fr_energy">   -694.80166101 </i>
    <i name="e_wo_entrp">   -694.79838673 </i>
    <i name="e_0_energy">   -694.80002387 </i>
   </energy>
  </scstep>
  <scstep>
   <time name="diag">    0.24    0.24</time>
   <time name="diis">    2.23    2.23</time>
   <time name="orth">    0.03    0.03</time>
   <time name="total">    2.89    2.89</time>
   <energy>
    <i name="e_fr_energy">   -693.35613700 </i>
    <i name="e_wo_entrp">   -693.32618530 </i>
    <i name="e_0_energy">   -693.34116115 </i>
   </energy>
  </scstep>
  <scstep>
   <time name="diag">    0.24    0.24</time>
   <time name="diis">    2.90    2.90</time>
   <time name="orth">    0.03    0.03</time>
   <time name="total">    3.56    3.56</time>
   <energy>
    <i name="e_fr_energy">   -692.80481989 </i>
    <i name="e_wo_entrp">   -692.77972333 </i>
    <i name="e_0_energy">   -692.79227161 </i>
   </energy>
  </scstep>
  <scstep>
   <time name="diag">    0.24    0.24</time>
   <time name="diis">    2.49    2.49</time>
   <time name="orth">    0.03    0.03</time>
   <time name="total">    3.15    3.15</time>
   <energy>
    <i name="e_fr_energy">   -692.56120349 </i>
    <i name="e_wo_entrp">   -692.52858223 </i>
    <i name="e_0_energy">   -692.54489286 </i>
   </energy>
  </scstep>
  <scstep>
   <time name="diag">    0.24    0.24</time>
   <time name="diis">    2.91    2.91</time>
   <time name="orth">    0.03    0.03</time>
   <time name="total">    3.58    3.57</time>
   <energy>
    <i name="e_fr_energy">   -692.53006836 </i>
    <i name="e_wo_entrp">   -692.50855176 </i>
    <i name="e_0_energy">   -692.51931006 </i>
   </energy>
  </scstep>
  <scstep>
   <time name="diag">    0.24    0.24</time>
   <time name="diis">    2.75    2.75</time>
   <time name="orth">    0.03    0.03</time>
   <time name="total">    3.42    3.42</time>
   <energy>
    <i name="e_fr_energy">   -692.46209236 </i>
    <i name="e_wo_entrp">   -692.42841223 </i>
    <i name="e_0_energy">   -692.44525230 </i>
   </energy>
  </scstep>
  <scstep>
   <time name="diag">    0.24    0.24</time>
   <time name="diis">    2.46    2.46</time>
   <time name="orth">    0.03    0.03</time>
   <time name="total">    3.12    3.12</time>
   <energy>
    <i name="e_fr_energy">   -692.37504062 </i>
    <i name="e_wo_entrp">   -692.34654843 </i>
    <i name="e_0_energy">   -692.36079452 </i>
   </energy>
  </scstep>
  <scstep>
   <time name="diag">    0.24    0.24</time>
   <time name="diis">    2.54    2.54</time>
   <time name="orth">    0.03    0.03</time>
   <time name="total">    3.21    3.21</time>
   <energy>
    <i name="e_fr_energy">   -692.37523052 </i>
    <i name="e_wo_entrp">   -692.34440394 </i>
    <i name="e_0_energy">   -692.35981723 </i>
   </energy>
  </scstep>
  <scstep>
   <time name="diag">    0.24    0.24</time>
   <time name="diis">    2.62    2.62</time>
   <time name="orth">    0.03    0.03</time>
   <time name="total">    3.29    3.29</time>
   <energy>
    <i name="e_fr_energy">   -692.38457059 </i>
    <i name="e_wo_entrp">   -692.34862302 </i>
    <i name="e_0_energy">   -692.36659681 </i>
   </energy>
  </scstep>
  <scstep>
   <time name="diag">    0.24    0.24</time>
   <time name="diis">    2.83    2.83</time>
   <time name="orth">    0.03    0.03</time>
   <time name="total">    3.51    3.51</time>
   <energy>
    <i name="e_fr_energy">   -692.37861864 </i>
    <i name="e_wo_entrp">   -692.34386705 </i>
    <i name="e_0_energy">   -692.36124284 </i>
   </energy>
  </scstep>
  <scstep>
   <time name="diag">    0.24    0.24</time>
   <time name="diis">    2.46    2.46</time>
   <time name="orth">    0.03    0.03</time>
   <time name="total">    3.14    3.14</time>
   <energy>
    <i name="e_fr_energy">   -692.37204434 </i>
    <i name="e_wo_entrp">   -692.34245433 </i>
    <i name="e_0_energy">   -692.35724934 </i>
   </energy>
  </scstep>
  <scstep>
   <time name="diag">    0.24    0.24</time>
   <time name="diis">    2.30    2.30</time>
   <time name="orth">    0.03    0.03</time>
   <time name="total">    2.98    2.98</time>
   <energy>
    <i name="e_fr_energy">   -692.36889819 </i>
    <i name="e_wo_entrp">   -692.33678118 </i>
    <i name="e_0_energy">   -692.35283968 </i>
   </energy>
  </scstep>
  <scstep>
   <time name="diag">    0.24    0.24</time>
   <time name="diis">    2.18    2.18</time>
   <time name="orth">    0.03    0.03</time>
   <time name="total">    2.86    2.86</time>
   <energy>
    <i name="e_fr_energy">   -692.36884701 </i>
    <i name="e_wo_entrp">   -692.33584330 </i>
    <i name="e_0_energy">   -692.35234516 </i>
   </energy>
  </scstep>
  <scstep>
   <time name="diag">    0.24    0.24</time>
   <time name="diis">    2.25    2.25</time>
   <time name="orth">    0.03    0.03</time>
   <time name="total">    2.94    2.94</time>
   <energy>
    <i name="e_fr_energy">   -692.36863366 </i>
    <i name="e_wo_entrp">   -692.33585137 </i>
    <i name="e_0_energy">   -692.35224251 </i>
   </energy>
  </scstep>
  <scstep>
   <time name="diag">    0.24    0.24</time>
   <time name="diis">    2.01    2.01</time>
   <time name="orth">    0.03    0.03</time>
   <time name="total">    2.70    2.70</time>
   <energy>
    <i name="e_fr_energy">   -692.36868650 </i>
    <i name="e_wo_entrp">   -692.33562035 </i>
    <i name="e_0_energy">   -692.35215342 </i>
   </energy>
  </scstep>
  <scstep>
   <time name="diag">    0.24    0.24</time>
   <time name="diis">    1.82    1.82</time>
   <time name="orth">    0.03    0.03</time>
   <time name="total">    2.52    2.52</time>
   <energy>
    <i name="e_fr_energy">   -692.36859363 </i>
    <i name="e_wo_entrp">   -692.33558999 </i>
    <i name="e_0_energy">   -692.35209181 </i>
   </energy>
  </scstep>
  <scstep>
   <time name="diag">    0.24    0.24</time>
   <time name="diis">    1.20    1.20</time>
   <time name="orth">    0.03    0.03</time>
   <time name="total">    1.89    1.89</time>
   <energy>
    <i name="e_fr_energy">   -692.36857036 </i>
    <i name="e_wo_entrp">   -692.33564597 </i>
    <i name="e_0_energy">   -692.35210816 </i>
   </energy>
  </scstep>
  <scstep>
   <time name="diag">    0.24    0.24</time>
   <time name="diis">    1.11    1.11</time>
   <time name="orth">    0.03    0.03</time>
   <time name="total">    1.50    1.50</time>
   <energy>
    <i name="alphaZ">   5376.25786726 </i>
    <i name="ewald"> -86201.52052952 </i>
    <i name="hartreedc"> -34149.81456481 </i>
    <i name="XCdc">   4141.77071401 </i>
    <i name="pawpsdc"> 118440.65463085 </i>
    <i name="pawaedc">-134492.76053151 </i>
    <i name="eentropy">     -0.03292781 </i>
    <i name="bandstr">  -5673.91601377 </i>
    <i name="atom"> 131866.99277783 </i>
    <i name="e_fr_energy">   -692.36857748 </i>
    <i name="e_wo_entrp">   -692.33564967 </i>
    <i name="e_0_energy">   -692.35211357 </i>
   </energy>
  </scstep>
  <structure>
   <crystal>
    <varray name="basis" >
     <v>       0.00000000      12.28047342       0.00000000 </v>
     <v>       9.14270205       0.00000000       0.00000000 </v>
     <v>       0.00000000      -2.76826177     -11.30069772 </v>
    </varray>
    <i name="volume">   1268.80515525 </i>
    <varray name="rec_basis" >
     <v>       0.00000000       0.08143009      -0.01994742 </v>
     <v>       0.10937686      -0.00000000       0.00000000 </v>
     <v>       0.00000000       0.00000000      -0.08849011 </v>
    </varray>
   </crystal>
   <varray name="positions" >
    <v>       0.65883830       0.00000000       0.15736517 </v>
    <v>       0.65883830       0.00000000       0.65736517 </v>
    <v>       0.65883830       0.33333333       0.15736517 </v>
    <v>       0.65883830       0.33333333       0.65736517 </v>
    <v>       0.65883830       0.66666667       0.15736517 </v>
    <v>       0.65883830       0.66666667       0.65736517 </v>
    <v>       0.84116170       0.16666667       0.34263483 </v>
    <v>       0.84116170       0.16666667       0.84263483 </v>
    <v>       0.84116170       0.50000000       0.34263483 </v>
    <v>       0.84116170       0.50000000       0.84263483 </v>
    <v>       0.84116170       0.83333333       0.34263483 </v>
    <v>       0.84116170       0.83333333       0.84263483 </v>
    <v>       0.59047440       0.16666667       0.39739300 </v>
    <v>       0.59047440       0.16666667       0.89739300 </v>
    <v>       0.59047440       0.50000000       0.39739300 </v>
    <v>       0.59047440       0.50000000       0.89739300 </v>
    <v>       0.59047440       0.83333333       0.39739300 </v>
    <v>       0.59047440       0.83333333       0.89739300 </v>
    <v>       0.90952560       0.00000000       0.10260700 </v>
    <v>       0.90952560       0.00000000       0.60260700 </v>
    <v>       0.90952560       0.33333333       0.10260700 </v>
    <v>       0.90952560       0.33333333       0.60260700 </v>
    <v>       0.90952560       0.66666667       0.10260700 </v>
    <v>       0.90952560       0.66666667       0.60260700 </v>
    <v>       0.15883830       0.16666667       0.15736517 </v>
    <v>       0.15883830       0.16666667       0.65736517 </v>
    <v>       0.15883830       0.50000000       0.15736517 </v>
    <v>       0.15883830       0.50000000       0.65736517 </v>
    <v>       0.15883830       0.83333333       0.15736517 </v>
    <v>       0.15883830       0.83333333       0.65736517 </v>
    <v>       0.34116170       0.00000000       0.34263483 </v>
    <v>       0.34116170       0.00000000       0.84263483 </v>
    <v>       0.34116170       0.33333333       0.34263483 </v>
    <v>       0.34116170       0.33333333       0.84263483 </v>
    <v>       0.34116170       0.66666667       0.34263483 </v>
    <v>       0.34116170       0.66666667       0.84263483 </v>
    <v>       0.09047440       0.00000000       0.89739300 </v>
    <v>       0.09047440       0.33333333       0.39739300 </v>
    <v>       0.09047440       0.33333333       0.89739300 </v>
    <v>       0.09047440       0.66666667       0.39739300 </v>
    <v>       0.09047440       0.66666667       0.89739300 </v>
    <v>       0.40952560       0.16666667       0.10260700 </v>
    <v>       0.40952560       0.16666667       0.60260700 </v>
    <v>       0.40952560       0.50000000       0.10260700 </v>
    <v>       0.40952560       0.50000000       0.60260700 </v>
    <v>       0.40952560       0.83333333       0.10260700 </v>
    <v>       0.40952560       0.83333333       0.60260700 </v>
    <v>       0.99646913       0.16666667       0.12833205 </v>
    <v>       0.99646913       0.16666667       0.62833205 </v>
    <v>       0.99646913       0.50000000       0.12833205 </v>
    <v>       0.99646913       0.50000000       0.62833205 </v>
    <v>       0.99646913       0.83333333       0.12833205 </v>
    <v>       0.99646913       0.83333333       0.62833205 </v>
    <v>       0.50353087       0.00000000       0.37166795 </v>
    <v>       0.50353087       0.00000000       0.87166795 </v>
    <v>       0.50353087       0.33333333       0.37166795 </v>
    <v>       0.50353087       0.33333333       0.87166795 </v>
    <v>       0.50353087       0.66666667       0.37166795 </v>
    <v>       0.50353087       0.66666667       0.87166795 </v>
    <v>       0.67337106       0.16666667       0.28161508 </v>
    <v>       0.67337106       0.16666667       0.78161508 </v>
    <v>       0.67337106       0.50000000       0.28161508 </v>
    <v>       0.67337106       0.50000000       0.78161508 </v>
    <v>       0.67337106       0.83333333       0.28161508 </v>
    <v>       0.67337106       0.83333333       0.78161508 </v>
    <v>       0.82662894       0.00000000       0.21838492 </v>
    <v>       0.82662894       0.00000000       0.71838492 </v>
    <v>       0.82662894       0.33333333       0.21838492 </v>
    <v>       0.82662894       0.33333333       0.71838492 </v>
    <v>       0.82662894       0.66666667       0.21838492 </v>
    <v>       0.82662894       0.66666667       0.71838492 </v>
    <v>       0.83549502       0.00000000       0.44542296 </v>
    <v>       0.83549502       0.00000000       0.94542296 </v>
    <v>       0.83549502       0.33333333       0.44542296 </v>
    <v>       0.83549502       0.33333333       0.94542296 </v>
    <v>       0.83549502       0.66666667       0.44542296 </v>
    <v>       0.83549502       0.66666667       0.94542296 </v>
    <v>       0.66450498       0.16666667       0.05457704 </v>
    <v>       0.66450498       0.16666667       0.55457704 </v>
    <v>       0.66450498       0.50000000       0.05457704 </v>
    <v>       0.66450498       0.50000000       0.55457704 </v>
    <v>       0.66450498       0.83333333       0.05457704 </v>
    <v>       0.66450498       0.83333333       0.55457704 </v>
    <v>       0.49646913       0.00000000       0.12833205 </v>
    <v>       0.49646913       0.00000000       0.62833205 </v>
    <v>       0.49646913       0.33333333       0.12833205 </v>
    <v>       0.49646913       0.33333333       0.62833205 </v>
    <v>       0.49646913       0.66666667       0.12833205 </v>
    <v>       0.49646913       0.66666667       0.62833205 </v>
    <v>       0.00353087       0.16666667       0.37166795 </v>
    <v>       0.00353087       0.16666667       0.87166795 </v>
    <v>       0.00353087       0.50000000       0.37166795 </v>
    <v>       0.00353087       0.50000000       0.87166795 </v>
    <v>       0.00353087       0.83333333       0.37166795 </v>
    <v>       0.00353087       0.83333333       0.87166795 </v>
    <v>       0.17337106       0.00000000       0.78161508 </v>
    <v>       0.17337106       0.33333333       0.28161508 </v>
    <v>       0.17337106       0.33333333       0.78161508 </v>
    <v>       0.17337106       0.66666667       0.28161508 </v>
    <v>       0.17337106       0.66666667       0.78161508 </v>
    <v>       0.32662894       0.16666667       0.21838492 </v>
    <v>       0.32662894       0.16666667       0.71838492 </v>
    <v>       0.32662894       0.50000000       0.21838492 </v>
    <v>       0.32662894       0.50000000       0.71838492 </v>
    <v>       0.32662894       0.83333333       0.21838492 </v>
    <v>       0.32662894       0.83333333       0.71838492 </v>
    <v>       0.33549502       0.16666667       0.44542296 </v>
    <v>       0.33549502       0.16666667       0.94542296 </v>
    <v>       0.33549502       0.50000000       0.44542296 </v>
    <v>       0.33549502       0.50000000       0.94542296 </v>
    <v>       0.33549502       0.83333333       0.44542296 </v>
    <v>       0.33549502       0.83333333       0.94542296 </v>
    <v>       0.16450498       0.00000000       0.05457704 </v>
    <v>       0.16450498       0.00000000       0.55457704 </v>
    <v>       0.16450498       0.33333333       0.05457704 </v>
    <v>       0.16450498       0.33333333       0.55457704 </v>
    <v>       0.16450498       0.66666667       0.05457704 </v>
    <v>       0.16450498       0.66666667       0.55457704 </v>
    <v>       0.17337106       0.00000000       0.28161508 </v>
   </varray>
  </structure>
  <varray name="forces" >
   <v>      -0.00000000       0.33462841      -0.15400816 </v>
   <v>      -0.00000000      -0.00995820       0.08905342 </v>
   <v>      -0.03683700       0.20180339      -0.10387490 </v>
   <v>      -0.01656417      -0.03360778       0.07809614 </v>
   <v>       0.03683700       0.20180339      -0.10387490 </v>
   <v>       0.01656417      -0.03360778       0.07809614 </v>
   <v>      -0.42973971       1.46513681      -0.34226850 </v>
   <v>      -0.03618556       0.10453822      -0.05855182 </v>
   <v>      -0.00000000       0.50592316      -0.14992240 </v>
   <v>      -0.00000000       0.07390588      -0.05591516 </v>
   <v>       0.42973971       1.46513681      -0.34226850 </v>
   <v>       0.03618556       0.10453822      -0.05855182 </v>
   <v>      -0.00878066       0.10161844      -0.02421101 </v>
   <v>      -0.00785292       0.01354709      -0.04200132 </v>
   <v>      -0.00000000       0.05960011      -0.01192012 </v>
   <v>      -0.00000000       0.01317996      -0.02780242 </v>
   <v>       0.00878066       0.10161844      -0.02421101 </v>
   <v>       0.00785292       0.01354709      -0.04200132 </v>
   <v>      -0.00000000       0.07811650      -0.62822956 </v>
   <v>      -0.00000000       0.67745505       0.67581608 </v>
   <v>      -0.19948676       0.08720354      -0.31432845 </v>
   <v>      -0.20403574       0.32951459       0.24240836 </v>
   <v>       0.19948676       0.08720354      -0.31432845 </v>
   <v>       0.20403574       0.32951459       0.24240836 </v>
   <v>       3.48638011      -0.59351449       2.37793896 </v>
   <v>      -0.76728698      -0.08110305       1.34230783 </v>
   <v>      -0.00000000      -0.25723087      -0.40295311 </v>
   <v>      -0.00000000      -0.01774650       0.56088915 </v>
   <v>      -3.48638011      -0.59351449       2.37793896 </v>
   <v>       0.76728698      -0.08110305       1.34230783 </v>
   <v>      -0.00000000       4.78025332      -2.94001563 </v>
   <v>      -0.00000000      -0.14714616       0.27581039 </v>
   <v>      -0.00304416      -0.35942510      -0.29132881 </v>
   <v>      -0.05024831      -0.04130683       0.17807766 </v>
   <v>       0.00304416      -0.35942510      -0.29132881 </v>
   <v>       0.05024831      -0.04130683       0.17807766 </v>
   <v>      -0.00000000       0.07481362       0.30134005 </v>
   <v>      -1.43260272      -0.63052704       0.01356054 </v>
   <v>      -0.04494529       0.01483640       0.07093592 </v>
   <v>       1.43260272      -0.63052704       0.01356054 </v>
   <v>       0.04494529       0.01483640       0.07093592 </v>
   <v>       0.00499752       0.05583821       0.10151532 </v>
   <v>      -0.04471144      -0.33598117       0.24544792 </v>
   <v>      -0.00000000      -0.06464933      -0.01449668 </v>
   <v>      -0.00000000      -0.14225554       0.12694455 </v>
   <v>      -0.00499752       0.05583821       0.10151532 </v>
   <v>       0.04471144      -0.33598117       0.24544792 </v>
   <v>       0.41596602      -0.69681763       0.66748411 </v>
   <v>       0.22090964      -0.37640360      -0.26464736 </v>
   <v>      -0.00000000      -0.00877983       0.11099446 </v>
   <v>      -0.00000000      -0.15089661      -0.13154569 </v>
   <v>      -0.41596602      -0.69681763       0.66748411 </v>
   <v>      -0.22090964      -0.37640360      -0.26464736 </v>
   <v>      -0.00000000      -0.11688308       0.08478157 </v>
   <v>      -0.00000000       0.04254270      -0.00527358 </v>
   <v>       0.01258193       0.04816172       0.06324085 </v>
   <v>       0.01570356       0.03809059      -0.00135797 </v>
   <v>      -0.01258193       0.04816172       0.06324085 </v>
   <v>      -0.01570356       0.03809059      -0.00135797 </v>
   <v>       0.04960518      -0.22513481       0.06728218 </v>
   <v>       0.01221370      -0.07145515      -0.00591830 </v>
   <v>      -0.00000000      -0.17976404       0.05066163 </v>
   <v>      -0.00000000      -0.07003779      -0.00219746 </v>
   <v>      -0.04960518      -0.22513481       0.06728218 </v>
   <v>      -0.01221370      -0.07145515      -0.00591830 </v>
   <v>      -0.00000000      -0.42419939       0.39887344 </v>
   <v>      -0.00000000      -0.16232140      -0.15416328 </v>
   <v>       0.21683115      -0.29546025       0.27559044 </v>
   <v>       0.03290874      -0.12474063      -0.10357992 </v>
   <v>      -0.21683115      -0.29546025       0.27559044 </v>
   <v>      -0.03290874      -0.12474063      -0.10357992 </v>
   <v>      -0.00000000      -0.72697861      -0.17734353 </v>
   <v>      -0.00000000      -0.21550021       0.14056512 </v>
   <v>       0.20087781      -0.47304928      -0.14740228 </v>
   <v>       0.05417479      -0.22639175       0.12934081 </v>
   <v>      -0.20087781      -0.47304928      -0.14740228 </v>
   <v>      -0.05417479      -0.22639175       0.12934081 </v>
   <v>       0.02862010       0.08236852       0.14745876 </v>
   <v>       0.02316826       0.11021985      -0.00061692 </v>
   <v>      -0.00000000       0.09492516       0.12582225 </v>
   <v>      -0.00000000       0.13238898       0.01128491 </v>
   <v>      -0.02862010       0.08236852       0.14745876 </v>
   <v>      -0.02316826       0.11021985      -0.00061692 </v>
   <v>      -0.00000000      -0.04012625      -0.00153242 </v>
   <v>      -0.00000000       0.14183854      -0.09967723 </v>
   <v>       0.00013370      -0.02369633      -0.01378530 </v>
   <v>       0.07021234       0.13662563      -0.11346895 </v>
   <v>      -0.00013370      -0.02369633      -0.01378530 </v>
   <v>      -0.07021234       0.13662563      -0.11346895 </v>
   <v>       0.19221814       0.22279105       0.23740543 </v>
   <v>       0.01123167      -0.02861381      -0.02288195 </v>
   <v>      -0.00000000      -0.11696066       0.07389627 </v>
   <v>      -0.00000000       0.00060888       0.00452444 </v>
   <v>      -0.19221814       0.22279105       0.23740543 </v>
   <v>      -0.01123167      -0.02861381      -0.02288195 </v>
   <v>      -0.00000000      -0.09505396      -0.69681934 </v>
   <v>       0.78349064       0.42630964       0.13802645 </v>
   <v>       0.04754660      -0.01584775      -0.20425758 </v>
   <v>      -0.78349064       0.42630964       0.13802645 </v>
   <v>      -0.04754660      -0.01584775      -0.20425758 </v>
   <v>       0.39997942       0.96339909       0.48632617 </v>
   <v>       0.11276407       0.31543891      -0.33625211 </v>
   <v>      -0.00000000       0.24943337       0.10656012 </v>
   <v>      -0.00000000       0.16398102      -0.18896474 </v>
   <v>      -0.39997942       0.96339909       0.48632617 </v>
   <v>      -0.11276407       0.31543891      -0.33625211 </v>
   <v>       0.71590200       0.41556547      -0.55658600 </v>
   <v>       0.01161144      -0.12854114      -0.14735501 </v>
   <v>      -0.00000000      -0.01673139      -0.05914699 </v>
   <v>      -0.00000000      -0.13751624      -0.09468365 </v>
   <v>      -0.71590200       0.41556547      -0.55658600 </v>
   <v>      -0.01161144      -0.12854114      -0.14735501 </v>
   <v>      -0.00000000       0.74541366       0.95873545 </v>
   <v>      -0.00000000       0.23176025      -0.54850138 </v>
   <v>      -0.11696439       0.22405775       0.03745285 </v>
   <v>       0.39626885       0.30386917      -0.37301318 </v>
   <v>       0.11696439       0.22405775       0.03745285 </v>
   <v>      -0.39626885       0.30386917      -0.37301318 </v>
   <v>      -0.00000000      -7.09866549      -4.41585888 </v>
  </varray>
  <varray name="stress" >
   <v>      95.52615016       0.00000000       0.00000000 </v>
   <v>       0.00000000      85.97287437      -9.96843187 </v>
   <v>       0.00000000      -9.96843314      89.46945832 </v>
  </varray>
  <energy>
   <i name="e_fr_energy">   -692.36857748 </i>
   <i name="e_wo_entrp">   -692.33564967 </i>
   <i name="e_0_energy">   -692.35211357 </i>
  </energy>
  <time name="totalsc">   83.48   83.48</time>
 </calculation>
 <calculation>
  <scstep>
   <time name="dav">    2.18    2.18</time>
   <time name="total">    2.56    2.56</time>
   <energy>
    <i name="alphaZ">   5376.25786726 </i>
    <i name="ewald"> -86210.58025846 </i>
    <i name="hartreedc"> -34142.85140946 </i>
    <i name="XCdc">   4141.18659082 </i>
    <i name="pawpsdc"> 118440.61395345 </i>
    <i name="pawaedc">-134492.72265188 </i>
    <i name="eentropy">     -0.01214287 </i>
    <i name="bandstr">  -5662.67018911 </i>
    <i name="atom"> 131866.99277783 </i>
    <i name="e_fr_energy">   -683.78546242 </i>
    <i name="e_wo_entrp">   -683.77331956 </i>
    <i name="e_0_energy">   -683.77939099 </i>
   </energy>
  </scstep>
  <scstep>
   <time name="diag">    0.24    0.24</time>
   <time name="diis">    2.57    2.57</time>
   <time name="orth">    0.03    0.03</time>
   <time name="total">    3.22    3.22</time>
   <energy>
    <i name="e_fr_energy">   -691.97139782 </i>
    <i name="e_wo_entrp">   -691.96029901 </i>
    <i name="e_0_energy">   -691.96584842 </i>
   </energy>
  </scstep>
  <scstep>
   <time name="diag">    0.24    0.24</time>
   <time name="diis">    2.87    2.87</time>
   <time name="orth">    0.03    0.03</time>
   <time name="total">    3.53    3.53</time>
   <energy>
    <i name="e_fr_energy">   -694.31100261 </i>
    <i name="e_wo_entrp">   -694.29921474 </i>
    <i name="e_0_energy">   -694.30510868 </i>
   </energy>
  </scstep>
  <scstep>
   <time name="diag">    0.24    0.24</time>
   <time name="diis">    3.00    2.99</time>
   <time name="orth">    0.03    0.03</time>
   <time name="total">    3.65    3.65</time>
   <energy>
    <i name="e_fr_energy">   -694.64709607 </i>
    <i name="e_wo_entrp">   -694.63444199 </i>
    <i name="e_0_energy">   -694.64076903 </i>
   </energy>
  </scstep>
  <scstep>
   <time name="diag">    0.24    0.24</time>
   <time name="diis">    2.94    2.94</time>
   <time name="orth">    0.03    0.03</time>
   <time name="total">    3.59    3.59</time>
   <energy>
    <i name="e_fr_energy">   -694.62171026 </i>
    <i name="e_wo_entrp">   -694.60442716 </i>
    <i name="e_0_energy">   -694.61306871 </i>
   </energy>
  </scstep>
  <scstep>
   <time name="diag">    0.24    0.24</time>
   <time name="diis">    2.50    2.50</time>
   <time name="orth">    0.03    0.03</time>
   <time name="total">    3.15    3.16</time>
   <energy>
    <i name="e_fr_energy">   -694.61266837 </i>
    <i name="e_wo_entrp">   -694.59039904 </i>
    <i name="e_0_energy">   -694.60153371 </i>
   </energy>
  </scstep>
  <scstep>
   <time name="diag">    0.24    0.24</time>
   <time name="diis">    2.82    2.82</time>
   <time name="orth">    0.03    0.03</time>
   <time name="total">    3.48    3.48</time>
   <energy>
    <i name="e_fr_energy">   -694.62120698 </i>
    <i name="e_wo_entrp">   -694.59778976 </i>
    <i name="e_0_energy">   -694.60949837 </i>
   </energy>
  </scstep>
  <scstep>
   <time name="diag">    0.24    0.24</time>
   <time name="diis">    2.59    2.59</time>
   <time name="orth">    0.03    0.03</time>
   <time name="total">    3.25    3.25</time>
   <energy>
    <i name="e_fr_energy">   -694.61465130 </i>
    <i name="e_wo_entrp">   -694.59158966 </i>
    <i name="e_0_energy">   -694.60312048 </i>
   </energy>
  </scstep>
  <scstep>
   <time name="diag">    0.24    0.24</time>
   <time name="diis">    2.65    2.65</time>
   <time name="orth">    0.03    0.03</time>
   <time name="total">    3.31    3.31</time>
   <energy>
    <i name="e_fr_energy">   -694.61426114 </i>
    <i name="e_wo_entrp">   -694.59122159 </i>
    <i name="e_0_energy">   -694.60274137 </i>
   </energy>
  </scstep>
  <scstep>
   <time name="diag">    0.24    0.24</time>
   <time name="diis">    2.96    2.96</time>
   <time name="orth">    0.03    0.03</time>
   <time name="total">    3.62    3.62</time>
   <energy>
    <i name="e_fr_energy">   -694.61459006 </i>
    <i name="e_wo_entrp">   -694.59155994 </i>
    <i name="e_0_energy">   -694.60307500 </i>
   </energy>
  </scstep>
  <scstep>
   <time name="diag">    0.24    0.24</time>
   <time name="diis">    2.41    2.41</time>
   <time name="orth">    0.03    0.03</time>
   <time name="total">    3.08    3.08</time>
   <energy>
    <i name="e_fr_energy">   -694.61465586 </i>
    <i name="e_wo_entrp">   -694.59158693 </i>
    <i name="e_0_energy">   -694.60312140 </i>
   </energy>
  </scstep>
  <scstep>
   <time name="diag">    0.24    0.24</time>
   <time name="diis">    2.26    2.26</time>
   <time name="orth">    0.03    0.03</time>
   <time name="total">    2.93    2.93</time>
   <energy>
    <i name="e_fr_energy">   -694.61469096 </i>
    <i name="e_wo_entrp">   -694.59163477 </i>
    <i name="e_0_energy">   -694.60316287 </i>
   </energy>
  </scstep>
  <scstep>
   <time name="diag">    0.24    0.24</time>
   <time name="diis">    1.87    1.87</time>
   <time name="orth">    0.03    0.03</time>
   <time name="total">    2.55    2.55</time>
   <energy>
    <i name="e_fr_energy">   -694.61471152 </i>
    <i name="e_wo_entrp">   -694.59165054 </i>
    <i name="e_0_energy">   -694.60318103 </i>
   </energy>
  </scstep>
  <scstep>
   <time name="diag">    0.24    0.24</time>
   <time name="diis">    1.60    1.60</time>
   <time name="orth">    0.03    0.03</time>
   <time name="total">    1.99    1.99</time>
   <energy>
    <i name="alphaZ">   5376.25786726 </i>
    <i name="ewald"> -86210.58025846 </i>
    <i name="hartreedc"> -34158.61280240 </i>
    <i name="XCdc">   4141.68736622 </i>
    <i name="pawpsdc"> 118134.78645887 </i>
    <i name="pawaedc">-134188.37530824 </i>
    <i name="eentropy">     -0.02307995 </i>
    <i name="bandstr">  -5656.74773552 </i>
    <i name="atom"> 131866.99277783 </i>
    <i name="e_fr_energy">   -694.61471440 </i>
    <i name="e_wo_entrp">   -694.59163445 </i>
    <i name="e_0_energy">   -694.60317443 </i>
   </energy>
  </scstep>
  <structure>
   <crystal>
    <varray name="basis" >
     <v>       0.00000000      12.28047342       0.00000000 </v>
     <v>       9.14270205       0.00000000       0.00000000 </v>
     <v>       0.00000000      -2.76826177     -11.30069772 </v>
    </varray>
    <i name="volume">   1268.80515525 </i>
    <varray name="rec_basis" >
     <v>       0.00000000       0.08143009      -0.01994742 </v>
     <v>       0.10937686      -0.00000000       0.00000000 </v>
     <v>       0.00000000       0.00000000      -0.08849011 </v>
    </varray>
   </crystal>
   <varray name="positions" >
    <v>       0.66030106      -0.00000000       0.15802263 </v>
    <v>       0.65871348      -0.00000000       0.65698500 </v>
    <v>       0.65973103       0.33313896       0.15780861 </v>
    <v>       0.65863112       0.33324593       0.65703178 </v>
    <v>       0.65973103       0.66686104       0.15780861 </v>
    <v>       0.65863112       0.66675407       0.65703178 </v>
    <v>       0.84724672       0.16439909       0.34409597 </v>
    <v>       0.84162871       0.16647573       0.84288479 </v>
    <v>       0.84329344       0.50000000       0.34327485 </v>
    <v>       0.84150584       0.50000000       0.84287353 </v>
    <v>       0.84724672       0.83560091       0.34409597 </v>
    <v>       0.84162871       0.83352427       0.84288479 </v>
    <v>       0.59089690       0.16662033       0.39749636 </v>
    <v>       0.59056804       0.16662523       0.89757230 </v>
    <v>       0.59072000       0.50000000       0.39744389 </v>
    <v>       0.59055293       0.50000000       0.89751169 </v>
    <v>       0.59089690       0.83337967       0.39749636 </v>
    <v>       0.59056804       0.83337477       0.89757230 </v>
    <v>       0.91043703      -0.00000000       0.10528891 </v>
    <v>       0.91153657      -0.00000000       0.59972194 </v>
    <v>       0.91017065       0.33228072       0.10394887 </v>
    <v>       0.91058679       0.33225671       0.60157216 </v>
    <v>       0.91017065       0.66771928       0.10394887 </v>
    <v>       0.91058679       0.66774329       0.60157216 </v>
    <v>       0.15421841       0.18506300       0.14721375 </v>
    <v>       0.15722797       0.16261798       0.65163486 </v>
    <v>       0.15821556       0.50000000       0.15908538 </v>
    <v>       0.15822883       0.50000000       0.65497074 </v>
    <v>       0.15421841       0.81493700       0.14721375 </v>
    <v>       0.15722797       0.83738202       0.65163486 </v>
    <v>       0.36276969      -0.00000000       0.35518575 </v>
    <v>       0.34031823      -0.00000000       0.84145740 </v>
    <v>       0.34003008       0.33331727       0.34387851 </v>
    <v>       0.34082806       0.33306819       0.84187462 </v>
    <v>       0.34003008       0.66668273       0.34387851 </v>
    <v>       0.34082806       0.66693181       0.84187462 </v>
    <v>       0.09047831      -0.00000000       0.89610658 </v>
    <v>       0.08798439       0.32577402       0.39733511 </v>
    <v>       0.09046442       0.33309617       0.89709017 </v>
    <v>       0.08798439       0.67422598       0.39733511 </v>
    <v>       0.09046442       0.66690383       0.89709017 </v>
    <v>       0.40964727       0.16669304       0.10217363 </v>
    <v>       0.40796953       0.16643074       0.60155918 </v>
    <v>       0.40928558       0.50000000       0.10266889 </v>
    <v>       0.40884460       0.50000000       0.60206507 </v>
    <v>       0.40964727       0.83330696       0.10217363 </v>
    <v>       0.40796953       0.83356926       0.60155918 </v>
    <v>       0.99308942       0.16886157       0.12548256 </v>
    <v>       0.99524514       0.16783233       0.62946182 </v>
    <v>       0.99632783       0.50000000       0.12785821 </v>
    <v>       0.99600294       0.50000000       0.62889361 </v>
    <v>       0.99308942       0.83113843       0.12548256 </v>
    <v>       0.99524514       0.83216767       0.62946182 </v>
    <v>       0.50299012      -0.00000000       0.37130602 </v>
    <v>       0.50370307      -0.00000000       0.87169047 </v>
    <v>       0.50365921       0.33339972       0.37139798 </v>
    <v>       0.50368181       0.33341620       0.87167375 </v>
    <v>       0.50365921       0.66660028       0.37139798 </v>
    <v>       0.50368181       0.66658380       0.87167375 </v>
    <v>       0.67242190       0.16692841       0.28132785 </v>
    <v>       0.67309606       0.16673111       0.78164035 </v>
[...]
       <r>   -10.7205     0.0000   142.0000 </r>
       <r>   -10.6080     0.0000   142.0000 </r>
       <r>   -10.4955     0.0000   142.0000 </r>
       <r>   -10.3831     0.0000   142.0000 </r>
       <r>   -10.2706     0.0000   142.0000 </r>
       <r>   -10.1582     0.0000   142.0000 </r>
       <r>   -10.0457     0.0000   142.0000 </r>
       <r>    -9.9332     0.0000   142.0000 </r>
       <r>    -9.8208     0.0000   142.0000 </r>
       <r>    -9.7083     0.0000   142.0000 </r>
       <r>    -9.5959     0.0000   142.0000 </r>
       <r>    -9.4834     0.0014   142.0002 </r>
       <r>    -9.3710     4.1515   142.4670 </r>
       <r>    -9.2585    34.9114   146.3931 </r>
       <r>    -9.1460   101.5090   157.8087 </r>
       <r>    -9.0336   280.5472   189.3586 </r>
       <r>    -8.9211   591.0600   255.8284 </r>
       <r>    -8.8087   730.4305   337.9716 </r>
       <r>    -8.6962   673.1485   413.6729 </r>
       <r>    -8.5837   572.7925   478.0883 </r>
       <r>    -8.4713   373.6091   520.1039 </r>
       <r>    -8.3588   213.8236   544.1502 </r>
       <r>    -8.2464   156.8989   561.7948 </r>
       <r>    -8.1339   103.0369   573.3822 </r>
       <r>    -8.0215   120.0184   586.8793 </r>
       <r>    -7.9090   117.5317   600.0968 </r>
       <r>    -7.7965    80.6512   609.1667 </r>
       <r>    -7.6841    24.6470   611.9385 </r>
       <r>    -7.5716     0.5472   612.0000 </r>
       <r>    -7.4592     0.0000   612.0000 </r>
       <r>    -7.3467     0.0000   612.0000 </r>
       <r>    -7.2342     0.0000   612.0000 </r>
       <r>    -7.1218     0.0000   612.0000 </r>
       <r>    -7.0093     0.0000   612.0000 </r>
       <r>    -6.8969     0.0000   612.0000 </r>
       <r>    -6.7844     0.0000   612.0000 </r>
       <r>    -6.6720     0.0000   612.0000 </r>
       <r>    -6.5595     0.0000   612.0000 </r>
       <r>    -6.4470     0.0000   612.0000 </r>
       <r>    -6.3346     0.0000   612.0000 </r>
       <r>    -6.2221     0.0000   612.0000 </r>
       <r>    -6.1097     0.0000   612.0000 </r>
       <r>    -5.9972     0.0000   612.0000 </r>
       <r>    -5.8847     0.0000   612.0000 </r>
       <r>    -5.7723     0.0000   612.0000 </r>
       <r>    -5.6598     0.0000   612.0000 </r>
       <r>    -5.5474     0.0000   612.0000 </r>
       <r>    -5.4349     0.0000   612.0000 </r>
       <r>    -5.3224     0.0000   612.0000 </r>
       <r>    -5.2100     0.0000   612.0000 </r>
       <r>    -5.0975     0.0008   612.0001 </r>
       <r>    -4.9851     3.0682   612.3451 </r>
       <r>    -4.8726    14.2152   613.9438 </r>
       <r>    -4.7602     0.5001   614.0000 </r>
       <r>    -4.6477     0.0000   614.0000 </r>
       <r>    -4.5352     0.0000   614.0000 </r>
       <r>    -4.4228     0.0000   614.0000 </r>
       <r>    -4.3103     0.0000   614.0000 </r>
       <r>    -4.1979     0.0000   614.0000 </r>
       <r>    -4.0854     0.0000   614.0000 </r>
       <r>    -3.9729     0.0000   614.0000 </r>
       <r>    -3.8605     0.0000   614.0000 </r>
       <r>    -3.7480     0.0000   614.0000 </r>
       <r>    -3.6356     0.0000   614.0000 </r>
       <r>    -3.5231     0.0000   614.0000 </r>
       <r>    -3.4107     0.0000   614.0000 </r>
       <r>    -3.2982     0.3260   614.0367 </r>
       <r>    -3.1857     9.1597   615.0668 </r>
       <r>    -3.0733    20.2426   617.3432 </r>
       <r>    -2.9608    19.6579   619.5539 </r>
       <r>    -2.8484    26.2774   622.5090 </r>
       <r>    -2.7359    35.4194   626.4922 </r>
       <r>    -2.6234    41.9697   631.2121 </r>
       <r>    -2.5110    44.6465   636.2330 </r>
       <r>    -2.3985    38.8698   640.6042 </r>
       <r>    -2.2861    53.2710   646.5950 </r>
       <r>    -2.1736    54.1809   652.6881 </r>
       <r>    -2.0611    46.5968   657.9283 </r>
       <r>    -1.9487    48.0140   663.3279 </r>
       <r>    -1.8362    55.6575   669.5871 </r>
       <r>    -1.7238    40.3421   674.1239 </r>
       <r>    -1.6113    31.5007   677.6664 </r>
       <r>    -1.4989    28.8647   680.9125 </r>
       <r>    -1.3864    37.1369   685.0889 </r>
       <r>    -1.2739    39.0200   689.4770 </r>
       <r>    -1.1615    31.0733   692.9714 </r>
       <r>    -1.0490    35.2169   696.9319 </r>
       <r>    -0.9366    34.9358   700.8607 </r>
       <r>    -0.8241    39.6995   705.3253 </r>
       <r>    -0.7116    43.2158   710.1853 </r>
       <r>    -0.5992    41.4360   714.8451 </r>
       <r>    -0.4867    38.3141   719.1538 </r>
       <r>    -0.3743    44.8165   724.1938 </r>
       <r>    -0.2618    49.3014   729.7382 </r>
       <r>    -0.1494    39.0613   734.1310 </r>
       <r>    -0.0369    45.3644   739.2326 </r>
       <r>     0.0756    63.1815   746.3379 </r>
       <r>     0.1880    82.0589   755.5661 </r>
       <r>     0.3005    59.0517   762.2070 </r>
       <r>     0.4129    67.5975   769.8089 </r>
       <r>     0.5254    66.2724   777.2618 </r>
       <r>     0.6379    59.1992   783.9193 </r>
       <r>     0.7503    59.5104   790.6118 </r>
       <r>     0.8628    73.0931   798.8317 </r>
       <r>     0.9752    71.3222   806.8525 </r>
       <r>     1.0877    76.7297   815.4814 </r>
       <r>     1.2002    80.6885   824.5555 </r>
       <r>     1.3126    71.4960   832.5959 </r>
       <r>     1.4251    68.9625   840.3513 </r>
       <r>     1.5375    72.0496   848.4539 </r>
       <r>     1.6500    76.7169   857.0814 </r>
       <r>     1.7624    79.6889   866.0430 </r>
       <r>     1.8749    88.3458   875.9783 </r>
       <r>     1.9874    73.0351   884.1917 </r>
       <r>     2.0998    59.7260   890.9084 </r>
       <r>     2.2123    62.7854   897.9692 </r>
       <r>     2.3247    90.2137   908.1145 </r>
       <r>     2.4372    99.8964   919.3487 </r>
       <r>     2.5497    83.7943   928.7721 </r>
       <r>     2.6621    95.7805   939.5434 </r>
       <r>     2.7746    98.5895   950.6307 </r>
       <r>     2.8870   108.4909   962.8314 </r>
       <r>     2.9995   116.1397   975.8923 </r>
       <r>     3.1119   126.6127   990.1310 </r>
       <r>     3.2244   106.9433  1002.1577 </r>
       <r>     3.3369    89.0789  1012.1754 </r>
       <r>     3.4493    70.8121  1020.1388 </r>
       <r>     3.5618    55.7227  1026.4053 </r>
       <r>     3.6742    46.9075  1031.6804 </r>
       <r>     3.7867    47.5824  1037.0315 </r>
       <r>     3.8992     8.5575  1037.9939 </r>
       <r>     4.0116     0.1599  1038.0118 </r>
       <r>     4.1241     2.2039  1038.2597 </r>
       <r>     4.2365    11.0097  1039.4978 </r>
       <r>     4.3490     4.4554  1039.9989 </r>
       <r>     4.4614     0.0100  1040.0000 </r>
       <r>     4.5739     0.0000  1040.0000 </r>
       <r>     4.6864     0.0000  1040.0000 </r>
       <r>     4.7988     0.0000  1040.0000 </r>
       <r>     4.9113     0.0000  1040.0000 </r>
       <r>     5.0237     0.0000  1040.0000 </r>
       <r>     5.1362     0.0000  1040.0000 </r>
       <r>     5.2487     0.0000  1040.0000 </r>
       <r>     5.3611     0.0000  1040.0000 </r>
       <r>     5.4736     0.0000  1040.0000 </r>
       <r>     5.5860     0.0000  1040.0000 </r>
       <r>     5.6985     0.0000  1040.0000 </r>
       <r>     5.8110     0.0000  1040.0000 </r>
       <r>     5.9234     0.0022  1040.0002 </r>
       <r>     6.0359     1.1831  1040.1333 </r>
       <r>     6.1483     1.0676  1040.2534 </r>
       <r>     6.2608     3.6915  1040.6685 </r>
       <r>     6.3732     3.3643  1041.0469 </r>
       <r>     6.4857     5.7981  1041.6989 </r>
       <r>     6.5982     2.6884  1042.0012 </r>
       <r>     6.7106     1.7159  1042.1942 </r>
       <r>     6.8231     1.1703  1042.3258 </r>
       <r>     6.9355     1.5915  1042.5048 </r>
       <r>     7.0480     1.9326  1042.7221 </r>
       <r>     7.1605     1.9334  1042.9396 </r>
       <r>     7.2729     3.4003  1043.3219 </r>
       <r>     7.3854     3.8046  1043.7498 </r>
       <r>     7.4978     2.5124  1044.0323 </r>
       <r>     7.6103     7.1737  1044.8391 </r>
       <r>     7.7227     6.0536  1045.5199 </r>
       <r>     7.8352     2.3262  1045.7815 </r>
       <r>     7.9477     5.4308  1046.3922 </r>
       <r>     8.0601     5.2095  1046.9781 </r>
       <r>     8.1726     6.5123  1047.7104 </r>
       <r>     8.2850     7.4289  1048.5459 </r>
       <r>     8.3975     9.6525  1049.6314 </r>
       <r>     8.5100    18.6864  1051.7328 </r>
       <r>     8.6224     6.2591  1052.4367 </r>
       <r>     8.7349    10.4988  1053.6174 </r>
       <r>     8.8473    13.5224  1055.1381 </r>
       <r>     8.9598     9.7877  1056.2388 </r>
       <r>     9.0723    13.9241  1057.8047 </r>
       <r>     9.1847    20.0350  1060.0578 </r>
       <r>     9.2972    24.5600  1062.8198 </r>
       <r>     9.4096    20.9779  1065.1789 </r>
       <r>     9.5221    24.7796  1067.9656 </r>
       <r>     9.6345    32.5582  1071.6271 </r>
       <r>     9.7470    38.7018  1075.9794 </r>
       <r>     9.8595    41.5324  1080.6501 </r>
       <r>     9.9719    40.1232  1085.1623 </r>
       <r>    10.0844    36.3015  1089.2447 </r>
       <r>    10.1968    38.0418  1093.5228 </r>
       <r>    10.3093    32.5230  1097.1803 </r>
       <r>    10.4218    26.4254  1100.1521 </r>
       <r>    10.5342    39.3527  1104.5776 </r>
       <r>    10.6467    32.9940  1108.2881 </r>
       <r>    10.7591    40.8887  1112.8864 </r>
       <r>    10.8716    34.8270  1116.8030 </r>
       <r>    10.9840    31.2427  1120.3165 </r>
       <r>    11.0965    40.9056  1124.9166 </r>
       <r>    11.2090    35.6753  1128.9286 </r>
       <r>    11.3214    39.6897  1133.3921 </r>
       <r>    11.4339    31.2057  1136.9014 </r>
       <r>    11.5463    31.4663  1140.4401 </r>
       <r>    11.6588    36.4166  1144.5354 </r>
       <r>    11.7713    23.0469  1147.1273 </r>
       <r>    11.8837    21.8422  1149.5836 </r>
       <r>    11.9962    26.2418  1152.5347 </r>
       <r>    12.1086    22.9406  1155.1146 </r>
       <r>    12.2211    33.6433  1158.8981 </r>
       <r>    12.3336    39.6273  1163.3545 </r>
       <r>    12.4460    40.3836  1167.8960 </r>
       <r>    12.5585    38.6412  1172.2415 </r>
       <r>    12.6709    41.0403  1176.8569 </r>
       <r>    12.7834    34.6170  1180.7498 </r>
       <r>    12.8958    40.1358  1185.2635 </r>
       <r>    13.0083    32.1256  1188.8763 </r>
       <r>    13.1208    44.0699  1193.8323 </r>
       <r>    13.2332    39.2746  1198.2491 </r>
       <r>    13.3457    38.0972  1202.5334 </r>
       <r>    13.4581    48.9082  1208.0336 </r>
       <r>    13.5706    44.3291  1213.0187 </r>
       <r>    13.6831    35.8791  1217.0537 </r>
       <r>    13.7955    39.4268  1221.4875 </r>
       <r>    13.9080    37.5860  1225.7144 </r>
       <r>    14.0204    31.0986  1229.2117 </r>
       <r>    14.1329    35.1419  1233.1637 </r>
       <r>    14.2453    31.8549  1236.7461 </r>
       <r>    14.3578    34.3077  1240.6043 </r>
       <r>    14.4703    35.3893  1244.5841 </r>
       <r>    14.5827    33.6255  1248.3656 </r>
       <r>    14.6952    14.4058  1249.9856 </r>
       <r>    14.8076     0.1277  1250.0000 </r>
       <r>    14.9201     0.0000  1250.0000 </r>
       <r>    15.0326     0.0000  1250.0000 </r>
       <r>    15.1450     0.0000  1250.0000 </r>
       <r>    15.2575     0.0000  1250.0000 </r>
       <r>    15.3699     0.0000  1250.0000 </r>
       <r>    15.4824     0.0000  1250.0000 </r>
       <r>    15.5948     0.0000  1250.0000 </r>
       <r>    15.7073     0.0000  1250.0000 </r>
       <r>    15.8198     0.0000  1250.0000 </r>
       <r>    15.9322     0.0000  1250.0000 </r>
       <r>    16.0447     0.0000  1250.0000 </r>
       <r>    16.1571     0.0000  1250.0000 </r>
      </set>
     </set>
    </array>
   </total>
  </dos>
 </calculation>
 <structure name="finalpos" >
  <crystal>
   <varray name="basis" >
    <v>       0.00000000      12.28047342       0.00000000 </v>
    <v>       9.14270205       0.00000000       0.00000000 </v>
    <v>       0.00000000      -2.76826177     -11.30069772 </v>
   </varray>
   <i name="volume">   1268.80515525 </i>
   <varray name="rec_basis" >
    <v>       0.00000000       0.08143009      -0.01994742 </v>
    <v>       0.10937686      -0.00000000       0.00000000 </v>
    <v>       0.00000000       0.00000000      -0.08849011 </v>
   </varray>
  </crystal>
  <varray name="positions" >
   <v>       0.66005308      -0.00000000       0.15539002 </v>
   <v>       0.65823297      -0.00000000       0.65431527 </v>
   <v>       0.66305670       0.33365077       0.15619252 </v>
   <v>       0.65858663       0.33293403       0.65503283 </v>
   <v>       0.66305670       0.66634923       0.15619252 </v>
   <v>       0.65858663       0.66706597       0.65503283 </v>
   <v>       0.83839071       0.16403093       0.34403691 </v>
   <v>       0.83994371       0.16632719       0.84312908 </v>
   <v>       0.84566542       0.50000000       0.34316423 </v>
   <v>       0.84024911       0.50000000       0.84384658 </v>
   <v>       0.83839071       0.83596907       0.34403691 </v>
   <v>       0.83994371       0.83367281       0.84312908 </v>
   <v>       0.58574052       0.16369506       0.39491403 </v>
   <v>       0.59188698       0.16690253       0.89684545 </v>
   <v>       0.59447780       0.50000000       0.39689698 </v>
   <v>       0.59306322       0.50000000       0.89851450 </v>
   <v>       0.58574052       0.83630494       0.39491403 </v>
   <v>       0.59188698       0.83309747       0.89684545 </v>
   <v>       0.91108068      -0.00000000       0.10340499 </v>
   <v>       0.90851390      -0.00000000       0.60337812 </v>
   <v>       0.91303591       0.33100731       0.10210497 </v>
   <v>       0.90834065       0.33397570       0.60396788 </v>
   <v>       0.91303591       0.66899269       0.10210497 </v>
   <v>       0.90834065       0.66602430       0.60396788 </v>
   <v>       0.16650520       0.15858963       0.15529819 </v>
   <v>       0.15675612       0.17060917       0.66027787 </v>
   <v>       0.15970825       0.50000000       0.15548321 </v>
   <v>       0.15811174       0.50000000       0.65576165 </v>
   <v>       0.16650520       0.84141037       0.15529819 </v>
   <v>       0.15675612       0.82939083       0.66027787 </v>
   <v>       0.32235899      -0.00000000       0.33004779 </v>
   <v>       0.34214782      -0.00000000       0.83936339 </v>
   <v>       0.34203839       0.33398597       0.34045201 </v>
   <v>       0.34205394       0.33430252       0.84146214 </v>
   <v>       0.34203839       0.66601403       0.34045201 </v>
   <v>       0.34205394       0.66569748       0.84146214 </v>
   <v>       0.08911813      -0.00000000       0.89231585 </v>
   <v>       0.09431671       0.32875365       0.39652868 </v>
   <v>       0.09058557       0.33336540       0.89842368 </v>
   <v>       0.09431671       0.67124635       0.39652868 </v>
   <v>       0.09058557       0.66663460       0.89842368 </v>
   <v>       0.41366786       0.16900382       0.09768991 </v>
   <v>       0.40774673       0.16639259       0.59690327 </v>
   <v>       0.41046941       0.50000000       0.10168484 </v>
   <v>       0.40864801       0.50000000       0.59971141 </v>
   <v>       0.41366786       0.83099618       0.09768991 </v>
   <v>       0.40774673       0.83360741       0.59690327 </v>
   <v>       0.00097367       0.16394202       0.13238068 </v>
   <v>       0.99512929       0.16721502       0.63004772 </v>
   <v>       0.99740578       0.50000000       0.12712429 </v>
   <v>       0.99634973       0.50000000       0.62840521 </v>
   <v>       0.00097367       0.83605798       0.13238068 </v>
   <v>       0.99512929       0.83278498       0.63004772 </v>
   <v>       0.49546573      -0.00000000       0.36928243 </v>
   <v>       0.50461178      -0.00000000       0.87047075 </v>
   <v>       0.50478901       0.33562389       0.37264282 </v>
   <v>       0.50450024       0.33392594       0.87094389 </v>
   <v>       0.50478901       0.66437611       0.37264282 </v>
   <v>       0.50450024       0.66607406       0.87094389 </v>
   <v>       0.67183536       0.16645352       0.28004532 </v>
   <v>       0.67224915       0.16646867       0.77899731 </v>
   <v>       0.67777570       0.50000000       0.28065272 </v>
   <v>       0.67238611       0.50000000       0.77950494 </v>
   <v>       0.67183536       0.83354648       0.28004532 </v>
   <v>       0.67224915       0.83353133       0.77899731 </v>
   <v>       0.82871708      -0.00000000       0.22132208 </v>
   <v>       0.82647343      -0.00000000       0.71952746 </v>
   <v>       0.83298033       0.32887540       0.22180262 </v>
   <v>       0.82643852       0.33315614       0.71975368 </v>
   <v>       0.83298033       0.67112460       0.22180262 </v>
   <v>       0.82643852       0.66684386       0.71975368 </v>
   <v>       0.83047389      -0.00000000       0.44712888 </v>
   <v>       0.83295487      -0.00000000       0.94686786 </v>
   <v>       0.83886042       0.33192735       0.44514700 </v>
   <v>       0.83321870       0.33239044       0.94648937 </v>
   <v>       0.83886042       0.66807265       0.44514700 </v>
   <v>       0.83321870       0.66760956       0.94648937 </v>
   <v>       0.67021864       0.16656261       0.05348645 </v>
   <v>       0.66669694       0.16641904       0.55140042 </v>
   <v>       0.67486181       0.50000000       0.05414348 </v>
   <v>       0.67126141       0.50000000       0.55369086 </v>
   <v>       0.67021864       0.83343739       0.05348645 </v>
   <v>       0.66669694       0.83358096       0.55140042 </v>
   <v>       0.49846361      -0.00000000       0.12341265 </v>
   <v>       0.49553358      -0.00000000       0.62510857 </v>
   <v>       0.50133916       0.33616483       0.12362386 </v>
   <v>       0.49581257       0.33293581       0.62507259 </v>
   <v>       0.50133916       0.66383517       0.12362386 </v>
   <v>       0.49581257       0.66706419       0.62507259 </v>
   <v>       0.01244741       0.14387165       0.38418440 </v>
   <v>       0.00242625       0.16701476       0.87195790 </v>
   <v>       0.00807744       0.50000000       0.37285291 </v>
   <v>       0.00296127       0.50000000       0.87191575 </v>
   <v>       0.01244741       0.85612835       0.38418440 </v>
   <v>       0.00242625       0.83298524       0.87195790 </v>
   <v>       0.17191425      -0.00000000       0.77563143 </v>
   <v>       0.17257203       0.33155436       0.27918993 </v>
   <v>       0.17268158       0.33404496       0.78100312 </v>
   <v>       0.17257203       0.66844564       0.27918993 </v>
   <v>       0.17268158       0.66595504       0.78100312 </v>
   <v>       0.33464253       0.17977468       0.21442810 </v>
   <v>       0.32478556       0.16479174       0.71379954 </v>
   <v>       0.32771985       0.50000000       0.21762235 </v>
   <v>       0.32658213       0.50000000       0.71726810 </v>
   <v>       0.33464253       0.82022532       0.21442810 </v>
   <v>       0.32478556       0.83520826       0.71379954 </v>
   <v>       0.32740381       0.16730656       0.44159713 </v>
   <v>       0.33520073       0.16693857       0.94146332 </v>
   <v>       0.33036406       0.50000000       0.44372500 </v>
   <v>       0.33298929       0.50000000       0.94471370 </v>
   <v>       0.32740381       0.83269344       0.44159713 </v>
   <v>       0.33520073       0.83306143       0.94146332 </v>
   <v>       0.17535955      -0.00000000       0.04380784 </v>
   <v>       0.14650320      -0.00000000       0.54819037 </v>
   <v>       0.16694608       0.33194240       0.05401105 </v>
   <v>       0.16485252       0.33191424       0.55425359 </v>
   <v>       0.16694608       0.66805760       0.05401105 </v>
   <v>       0.16485252       0.66808576       0.55425359 </v>
   <v>       0.09911586      -0.00000000       0.40499605 </v>
  </varray>
 </structure>
</modeling>
