<?xml version="1.0" encoding="ISO-8859-1"?>
<modeling>
 <generator>
  <i name="program" type="string">vasp </i>
  <i name="version" type="string">6.4.2  </i>
  <i name="subversion" type="string">20Jul23 (build Nov 12 2023 22:16:35) complex                          parallel </i>
  <i name="platform" type="string">LinuxNV </i>
  <i name="date" type="string">2025 03 12 </i>
  <i name="time" type="string">18:19:35 </i>
 </generator>
 <incar>
  <i type="int" name="ISTART">     0</i>
  <i type="string" name="PREC">Normal</i>
  <i type="string" name="ALGO">Fast</i>
  <i type="int" name="ISPIN">     1</i>
  <i type="int" name="ICHARG">     2</i>
  <i type="int" name="IBRION">     2</i>
  <i name="EDIFF">      0.00001000</i>
  <i name="EDIFFG">     -0.00500000</i>
  <i type="int" name="NSW">   300</i>
  <i type="int" name="ISIF">     2</i>
  <i name="ENCUT">    450.00000000</i>
  <i name="NELECT">   1056.00000000</i>
  <i type="string" name="LREAL">Auto</i>
  <i type="logical" name="LPLANE"> T  </i>
  <i type="int" name="ISMEAR">     0</i>
  <i name="SIGMA">      0.05000000</i>
  <i type="logical" name="LWAVE"> F  </i>
  <i type="logical" name="LCHARG"> F  </i>
 </incar>
 <primitive_cell>
  <structure name="primitive_cell" >
   <crystal>
    <varray name="basis" >
     <v>       0.00000000      12.28047342       0.00000000 </v>
     <v>       9.14270205       0.00000000       0.00000000 </v>
     <v>       0.00000000      -2.76826177     -11.30069772 </v>
    </varray>
    <i name="volume">   1268.80515525 </i>
    <varray name="rec_basis" >
     <v>       0.00000000       0.08143009      -0.01994742 </v>
     <v>       0.10937686      -0.00000000       0.00000000 </v>
     <v>       0.00000000       0.00000000      -0.08849011 </v>
    </varray>
   </crystal>
   <varray name="positions" >
    <v>       0.65883830       0.00000000       0.15736517 </v>
    <v>       0.65883830       0.00000000       0.65736517 </v>
    <v>       0.65883830       0.33333333       0.15736517 </v>
    <v>       0.65883830       0.33333333       0.65736517 </v>
    <v>       0.65883830       0.66666667       0.15736517 </v>
    <v>       0.65883830       0.66666667       0.65736517 </v>
    <v>       0.84116170       0.16666667       0.34263483 </v>
    <v>       0.84116170       0.16666667       0.84263483 </v>
    <v>       0.84116170       0.50000000       0.34263483 </v>
    <v>       0.84116170       0.50000000       0.84263483 </v>
    <v>       0.84116170       0.83333333       0.34263483 </v>
    <v>       0.84116170       0.83333333       0.84263483 </v>
    <v>       0.59047440       0.16666667       0.39739300 </v>
    <v>       0.59047440       0.16666667       0.89739300 </v>
    <v>       0.59047440       0.50000000       0.39739300 </v>
    <v>       0.59047440       0.50000000       0.89739300 </v>
    <v>       0.59047440       0.83333333       0.39739300 </v>
    <v>       0.59047440       0.83333333       0.89739300 </v>
    <v>       0.90952560       0.00000000       0.10260700 </v>
    <v>       0.90952560       0.00000000       0.60260700 </v>
    <v>       0.90952560       0.33333333       0.10260700 </v>
    <v>       0.90952560       0.33333333       0.60260700 </v>
    <v>       0.90952560       0.66666667       0.10260700 </v>
    <v>       0.90952560       0.66666667       0.60260700 </v>
    <v>       0.15883830       0.16666667       0.15736517 </v>
    <v>       0.15883830       0.16666667       0.65736517 </v>
    <v>       0.15883830       0.50000000       0.15736517 </v>
    <v>       0.15883830       0.50000000       0.65736517 </v>
    <v>       0.15883830       0.83333333       0.15736517 </v>
    <v>       0.15883830       0.83333333       0.65736517 </v>
    <v>       0.34116170       0.00000000       0.34263483 </v>
    <v>       0.34116170       0.00000000       0.84263483 </v>
    <v>       0.34116170       0.33333333       0.34263483 </v>
    <v>       0.34116170       0.33333333       0.84263483 </v>
    <v>       0.34116170       0.66666667       0.34263483 </v>
    <v>       0.34116170       0.66666667       0.84263483 </v>
    <v>       0.09047440       0.00000000       0.89739300 </v>
    <v>       0.09047440       0.33333333       0.39739300 </v>
    <v>       0.09047440       0.33333333       0.89739300 </v>
    <v>       0.09047440       0.66666667       0.39739300 </v>
    <v>       0.09047440       0.66666667       0.89739300 </v>
    <v>       0.40952560       0.16666667       0.10260700 </v>
    <v>       0.40952560       0.16666667       0.60260700 </v>
    <v>       0.40952560       0.50000000       0.10260700 </v>
    <v>       0.40952560       0.50000000       0.60260700 </v>
    <v>       0.40952560       0.83333333       0.10260700 </v>
    <v>       0.40952560       0.83333333       0.60260700 </v>
    <v>       0.99646913       0.16666667       0.12833205 </v>
    <v>       0.99646913       0.16666667       0.62833205 </v>
    <v>       0.99646913       0.50000000       0.12833205 </v>
    <v>       0.99646913       0.50000000       0.62833205 </v>
    <v>       0.99646913       0.83333333       0.12833205 </v>
    <v>       0.99646913       0.83333333       0.62833205 </v>
    <v>       0.50353087       0.00000000       0.37166795 </v>
    <v>       0.50353087       0.00000000       0.87166795 </v>
    <v>       0.50353087       0.33333333       0.37166795 </v>
    <v>       0.50353087       0.33333333       0.87166795 </v>
    <v>       0.50353087       0.66666667       0.37166795 </v>
    <v>       0.50353087       0.66666667       0.87166795 </v>
    <v>       0.67337106       0.16666667       0.28161508 </v>
    <v>       0.67337106       0.16666667       0.78161508 </v>
    <v>       0.67337106       0.50000000       0.28161508 </v>
    <v>       0.67337106       0.50000000       0.78161508 </v>
    <v>       0.67337106       0.83333333       0.28161508 </v>
    <v>       0.67337106       0.83333333       0.78161508 </v>
    <v>       0.82662894       0.00000000       0.21838492 </v>
    <v>       0.82662894       0.00000000       0.71838492 </v>
    <v>       0.82662894       0.33333333       0.21838492 </v>
    <v>       0.82662894       0.33333333       0.71838492 </v>
    <v>       0.82662894       0.66666667       0.21838492 </v>
    <v>       0.82662894       0.66666667       0.71838492 </v>
    <v>       0.83549502       0.00000000       0.44542296 </v>
    <v>       0.83549502       0.00000000       0.94542296 </v>
    <v>       0.83549502       0.33333333       0.44542296 </v>
    <v>       0.83549502       0.33333333       0.94542296 </v>
    <v>       0.83549502       0.66666667       0.44542296 </v>
    <v>       0.83549502       0.66666667       0.94542296 </v>
    <v>       0.66450498       0.16666667       0.05457704 </v>
    <v>       0.66450498       0.16666667       0.55457704 </v>
    <v>       0.66450498       0.50000000       0.05457704 </v>
    <v>       0.66450498       0.50000000       0.55457704 </v>
    <v>       0.66450498       0.83333333       0.05457704 </v>
    <v>       0.66450498       0.83333333       0.55457704 </v>
    <v>       0.49646913       0.00000000       0.12833205 </v>
    <v>       0.49646913       0.00000000       0.62833205 </v>
    <v>       0.49646913       0.33333333       0.12833205 </v>
    <v>       0.49646913       0.33333333       0.62833205 </v>
    <v>       0.49646913       0.66666667       0.12833205 </v>
    <v>       0.49646913       0.66666667       0.62833205 </v>
    <v>       0.00353087       0.16666667       0.37166795 </v>
    <v>       0.00353087       0.16666667       0.87166795 </v>
    <v>       0.00353087       0.50000000       0.37166795 </v>
    <v>       0.00353087       0.50000000       0.87166795 </v>
    <v>       0.00353087       0.83333333       0.37166795 </v>
    <v>       0.00353087       0.83333333       0.87166795 </v>
    <v>       0.17337106       0.00000000       0.78161508 </v>
    <v>       0.17337106       0.33333333       0.28161508 </v>
    <v>       0.17337106       0.33333333       0.78161508 </v>
    <v>       0.17337106       0.66666667       0.28161508 </v>
    <v>       0.17337106       0.66666667       0.78161508 </v>
    <v>       0.32662894       0.16666667       0.21838492 </v>
    <v>       0.32662894       0.16666667       0.71838492 </v>
    <v>       0.32662894       0.50000000       0.21838492 </v>
    <v>       0.32662894       0.50000000       0.71838492 </v>
    <v>       0.32662894       0.83333333       0.21838492 </v>
    <v>       0.32662894       0.83333333       0.71838492 </v>
    <v>       0.33549502       0.16666667       0.44542296 </v>
    <v>       0.33549502       0.16666667       0.94542296 </v>
    <v>       0.33549502       0.50000000       0.44542296 </v>
    <v>       0.33549502       0.50000000       0.94542296 </v>
    <v>       0.33549502       0.83333333       0.44542296 </v>
    <v>       0.33549502       0.83333333       0.94542296 </v>
    <v>       0.16450498       0.00000000       0.05457704 </v>
    <v>       0.16450498       0.00000000       0.55457704 </v>
    <v>       0.16450498       0.33333333       0.05457704 </v>
    <v>       0.16450498       0.33333333       0.55457704 </v>
    <v>       0.16450498       0.66666667       0.05457704 </v>
    <v>       0.16450498       0.66666667       0.55457704 </v>
    <v>       0.17337106       0.00000000       0.28161508 </v>
   </varray>
  </structure>
  <varray name="primitive_index" >
   <v type="int" >        1 </v>
   <v type="int" >        2 </v>
   <v type="int" >        3 </v>
   <v type="int" >        4 </v>
   <v type="int" >        5 </v>
   <v type="int" >        6 </v>
   <v type="int" >        7 </v>
   <v type="int" >        8 </v>
   <v type="int" >        9 </v>
   <v type="int" >       10 </v>
   <v type="int" >       11 </v>
   <v type="int" >       12 </v>
   <v type="int" >       13 </v>
   <v type="int" >       14 </v>
   <v type="int" >       15 </v>
   <v type="int" >       16 </v>
   <v type="int" >       17 </v>
   <v type="int" >       18 </v>
   <v type="int" >       19 </v>
   <v type="int" >       20 </v>
   <v type="int" >       21 </v>
   <v type="int" >       22 </v>
   <v type="int" >       23 </v>
   <v type="int" >       24 </v>
   <v type="int" >       25 </v>
   <v type="int" >       26 </v>
   <v type="int" >       27 </v>
   <v type="int" >       28 </v>
   <v type="int" >       29 </v>
   <v type="int" >       30 </v>
   <v type="int" >       31 </v>
   <v type="int" >       32 </v>
   <v type="int" >       33 </v>
   <v type="int" >       34 </v>
   <v type="int" >       35 </v>
   <v type="int" >       36 </v>
   <v type="int" >       37 </v>
   <v type="int" >       38 </v>
   <v type="int" >       39 </v>
   <v type="int" >       40 </v>
   <v type="int" >       41 </v>
   <v type="int" >       42 </v>
   <v type="int" >       43 </v>
   <v type="int" >       44 </v>
   <v type="int" >       45 </v>
   <v type="int" >       46 </v>
   <v type="int" >       47 </v>
   <v type="int" >       48 </v>
   <v type="int" >       49 </v>
   <v type="int" >       50 </v>
   <v type="int" >       51 </v>
   <v type="int" >       52 </v>
   <v type="int" >       53 </v>
   <v type="int" >       54 </v>
   <v type="int" >       55 </v>
   <v type="int" >       56 </v>
   <v type="int" >       57 </v>
   <v type="int" >       58 </v>
   <v type="int" >       59 </v>
   <v type="int" >       60 </v>
   <v type="int" >       61 </v>
   <v type="int" >       62 </v>
   <v type="int" >       63 </v>
   <v type="int" >       64 </v>
   <v type="int" >       65 </v>
   <v type="int" >       66 </v>
   <v type="int" >       67 </v>
   <v type="int" >       68 </v>
   <v type="int" >       69 </v>
   <v type="int" >       70 </v>
   <v type="int" >       71 </v>
   <v type="int" >       72 </v>
   <v type="int" >       73 </v>
   <v type="int" >       74 </v>
   <v type="int" >       75 </v>
   <v type="int" >       76 </v>
   <v type="int" >       77 </v>
   <v type="int" >       78 </v>
   <v type="int" >       79 </v>
   <v type="int" >       80 </v>
   <v type="int" >       81 </v>
   <v type="int" >       82 </v>
   <v type="int" >       83 </v>
   <v type="int" >       84 </v>
   <v type="int" >       85 </v>
   <v type="int" >       86 </v>
   <v type="int" >       87 </v>
   <v type="int" >       88 </v>
   <v type="int" >       89 </v>
   <v type="int" >       90 </v>
   <v type="int" >       91 </v>
   <v type="int" >       92 </v>
   <v type="int" >       93 </v>
   <v type="int" >       94 </v>
   <v type="int" >       95 </v>
   <v type="int" >       96 </v>
   <v type="int" >       97 </v>
   <v type="int" >       98 </v>
   <v type="int" >       99 </v>
   <v type="int" >      100 </v>
   <v type="int" >      101 </v>
   <v type="int" >      102 </v>
   <v type="int" >      103 </v>
   <v type="int" >      104 </v>
   <v type="int" >      105 </v>
   <v type="int" >      106 </v>
   <v type="int" >      107 </v>
   <v type="int" >      108 </v>
   <v type="int" >      109 </v>
   <v type="int" >      110 </v>
   <v type="int" >      111 </v>
   <v type="int" >      112 </v>
   <v type="int" >      113 </v>
   <v type="int" >      114 </v>
   <v type="int" >      115 </v>
   <v type="int" >      116 </v>
   <v type="int" >      117 </v>
   <v type="int" >      118 </v>
   <v type="int" >      119 </v>
  </varray>
 </primitive_cell>
 <kpoints>
  <generation param="Gamma">
   <v type="int" name="divisions">       2        2        2 </v>
   <v name="usershift">      0.00000000       0.00000000       0.00000000 </v>
   <v name="genvec1">      0.50000000       0.00000000       0.00000000 </v>
   <v name="genvec2">      0.00000000       0.50000000       0.00000000 </v>
   <v name="genvec3">      0.00000000       0.00000000       0.50000000 </v>
   <v name="shift">      0.00000000       0.00000000       0.00000000 </v>
  </generation>
  <varray name="kpointlist" >
   <v>       0.00000000       0.00000000       0.00000000 </v>
   <v>       0.50000000       0.00000000       0.00000000 </v>
   <v>       0.00000000       0.50000000       0.00000000 </v>
   <v>       0.50000000       0.50000000       0.00000000 </v>
   <v>       0.00000000       0.00000000       0.50000000 </v>
   <v>       0.50000000       0.00000000       0.50000000 </v>
   <v>       0.00000000       0.50000000       0.50000000 </v>
   <v>       0.50000000       0.50000000       0.50000000 </v>
  </varray>
  <varray name="weights" >
   <v>       0.12500000 </v>
   <v>       0.12500000 </v>
   <v>       0.12500000 </v>
   <v>       0.12500000 </v>
   <v>       0.12500000 </v>
   <v>       0.12500000 </v>
   <v>       0.12500000 </v>
   <v>       0.12500000 </v>
  </varray>
 </kpoints>
 <parameters>
  <separator name="general" >
   <i type="string" name="SYSTEM">unknown system</i>
   <i type="logical" name="LCOMPAT"> F  </i>
  </separator>
  <separator name="electronic" >
   <i type="string" name="PREC">normal</i>
   <i name="ENMAX">    450.00000000</i>
   <i name="ENAUG">    605.39200000</i>
   <i name="EDIFF">      0.00001000</i>
   <i type="int" name="IALGO">    68</i>
   <i type="int" name="IWAVPR">    11</i>
   <i type="int" name="NBANDS">   633</i>
   <i type="int" name="NBANDSLOW">    -1</i>
   <i type="int" name="NBANDSHIGH">    -1</i>
   <i name="NELECT">   1056.00000000</i>
   <i type="int" name="TURBO">     0</i>
   <i type="int" name="IRESTART">     0</i>
   <i type="int" name="NREBOOT">     0</i>
   <i type="int" name="NMIN">     0</i>
   <i name="EREF">      0.00000000</i>
   <separator name="electronic smearing" >
    <i type="int" name="ISMEAR">     0</i>
    <i name="SIGMA">      0.05000000</i>
    <i name="KSPACING">      0.50000000</i>
    <i type="logical" name="KGAMMA"> T  </i>
    <i type="logical" name="KBLOWUP"> T  </i>
   </separator>
   <separator name="electronic projectors" >
    <i type="logical" name="LREAL"> T  </i>
    <v name="ROPT">     -0.00050000     -0.00050000     -0.00050000</v>
    <i type="int" name="LMAXPAW">  -100</i>
    <i type="int" name="LMAXMIX">     2</i>
    <i type="logical" name="NLSPLINE"> F  </i>
   </separator>
   <separator name="electronic startup" >
    <i type="int" name="ISTART">     0</i>
    <i type="int" name="ICHARG">     2</i>
    <i type="int" name="INIWAV">     1</i>
   </separator>
   <separator name="electronic spin" >
    <i type="int" name="ISPIN">     1</i>
    <i type="logical" name="LNONCOLLINEAR"> F  </i>
    <v name="MAGMOM">      1.00000000      1.00000000      1.00000000      1.00000000      1.00000000      1.00000000      1.00000000      1.00000000      1.00000000      1.00000000      1.00000000      1.00000000      1.00000000      1.00000000      1.00000000      1.00000000      1.00000000      1.00000000      1.00000000      1.00000000
      1.00000000      1.00000000      1.00000000      1.00000000      1.00000000      1.00000000      1.00000000      1.00000000      1.00000000      1.00000000      1.00000000      1.00000000      1.00000000      1.00000000      1.00000000      1.00000000      1.00000000      1.00000000      1.00000000      1.00000000
      1.00000000      1.00000000      1.00000000      1.00000000      1.00000000      1.00000000      1.00000000      1.00000000      1.00000000      1.00000000      1.00000000      1.00000000      1.00000000      1.00000000      1.00000000      1.00000000      1.00000000      1.00000000      1.00000000      1.00000000
      1.00000000      1.00000000      1.00000000      1.00000000      1.00000000      1.00000000      1.00000000      1.00000000      1.00000000      1.00000000      1.00000000      1.00000000      1.00000000      1.00000000      1.00000000      1.00000000      1.00000000      1.00000000      1.00000000      1.00000000
      1.00000000      1.00000000      1.00000000      1.00000000      1.00000000      1.00000000      1.00000000      1.00000000      1.00000000      1.00000000      1.00000000      1.00000000      1.00000000      1.00000000      1.00000000      1.00000000      1.00000000      1.00000000      1.00000000      1.00000000
      1.00000000      1.00000000      1.00000000      1.00000000      1.00000000      1.00000000      1.00000000      1.00000000      1.00000000      1.00000000      1.00000000      1.00000000      1.00000000      1.00000000      1.00000000      1.00000000      1.00000000      1.00000000      1.00000000</v>
    <i name="NUPDOWN">     -1.00000000</i>
    <i type="logical" name="LSORBIT"> F  </i>
    <v name="SAXIS">      0.00000000      0.00000000      1.00000000</v>
    <i type="logical" name="LSPIRAL"> F  </i>
    <v name="QSPIRAL">      0.00000000      0.00000000      0.00000000</v>
    <i type="logical" name="LZEROZ"> F  </i>
   </separator>
   <separator name="electronic exchange-correlation" >
    <i type="logical" name="LASPH"> F  </i>
    <i type="logical" name="LMETAGGA"> F  </i>
   </separator>
   <separator name="electronic convergence" >
    <i type="int" name="NELM">    60</i>
    <i type="int" name="NELMDL">    -5</i>
    <i type="int" name="NELMIN">     2</i>
    <i name="ENINI">    450.00000000</i>
    <separator name="electronic convergence detail" >
     <i type="logical" name="LDIAG"> T  </i>
     <i type="logical" name="LSUBROT"> F  </i>
     <i name="WEIMIN">      0.00100000</i>
     <i name="EBREAK">      0.00000000</i>
     <i name="DEPER">      0.30000000</i>
     <i type="int" name="NRMM">     4</i>
     <i name="TIME">      0.40000000</i>
    </separator>
   </separator>
   <separator name="electronic mixer" >
    <i name="AMIX">      0.40000000</i>
    <i name="BMIX">      1.00000000</i>
    <i name="AMIN">      0.10000000</i>
    <i name="AMIX_MAG">      1.60000000</i>
    <i name="BMIX_MAG">      1.00000000</i>
    <separator name="electronic mixer details" >
     <i type="int" name="IMIX">     4</i>
     <i type="logical" name="MIXFIRST"> F  </i>
     <i type="int" name="MAXMIX">   -45</i>
     <i name="WC">    100.00000000</i>
     <i type="int" name="INIMIX">     1</i>
     <i type="int" name="MIXPRE">     1</i>
     <i type="int" name="MREMOVE">     5</i>
    </separator>
   </separator>
   <separator name="electronic dipolcorrection" >
    <i type="logical" name="LDIPOL"> F  </i>
    <i type="logical" name="LMONO"> F  </i>
    <i type="int" name="IDIPOL">     0</i>
    <i name="EPSILON">      1.00000000</i>
    <v name="DIPOL">   -100.00000000   -100.00000000   -100.00000000</v>
    <i name="EFIELD">      0.00000000</i>
   </separator>
  </separator>
  <separator name="grids" >
   <i type="int" name="NGX">    64</i>
   <i type="int" name="NGY">    48</i>
   <i type="int" name="NGZ">    60</i>
   <i type="int" name="NGXF">   128</i>
   <i type="int" name="NGYF">    96</i>
   <i type="int" name="NGZF">   120</i>
   <i type="logical" name="ADDGRID"> F  </i>
  </separator>
  <separator name="ionic" >
   <i type="int" name="NSW">   300</i>
   <i type="int" name="IBRION">     2</i>
   <i type="int" name="MDALGO">     0</i>
   <i type="int" name="ISIF">     2</i>
   <i name="PSTRESS">      0.00000000</i>
   <i name="EDIFFG">     -0.00500000</i>
   <i type="int" name="NFREE">     1</i>
   <i name="POTIM">      0.50000000</i>
   <i name="SMASS">     -3.00000000</i>
   <i name="SCALEE">      1.00000000</i>
  </separator>
  <separator name="ionic md" >
   <i name="TEBEG">      0.00010000</i>
   <i name="TEEND">      0.00010000</i>
   <i type="int" name="NBLOCK">     1</i>
   <i type="int" name="KBLOCK">   300</i>
   <i type="int" name="NPACO">   256</i>
   <i name="APACO">     10.00000000</i>
  </separator>
  <separator name="symmetry" >
   <i type="int" name="ISYM">     2</i>
   <i name="SYMPREC">      0.00001000</i>
  </separator>
  <separator name="dos" >
   <i type="int" name="LORBIT">     0</i>
   <v name="RWIGS">     -1.00000000     -1.00000000     -1.00000000</v>
   <i type="int" name="NEDOS">   301</i>
   <i name="EMIN">     10.00000000</i>
   <i name="EMAX">    -10.00000000</i>
   <i name="EFERMI">      0.00000000</i>
  </separator>
  <separator name="writing" >
   <i type="int" name="NWRITE">     2</i>
   <i type="logical" name="LWAVE"> F  </i>
   <i type="logical" name="LDOWNSAMPLE"> F  </i>
   <i type="logical" name="LCHARG"> F  </i>
   <i type="logical" name="LPARD"> F  </i>
   <i type="logical" name="LVTOT"> F  </i>
   <i type="logical" name="LVHAR"> F  </i>
   <i type="logical" name="LELF"> F  </i>
   <i type="logical" name="LOPTICS"> F  </i>
   <v name="STM">      0.00000000      0.00000000      0.00000000      0.00000000      0.00000000      0.00000000      0.00000000</v>
  </separator>
  <separator name="performance" >
   <i type="int" name="NPAR">     1</i>
   <i type="int" name="NSIM">     4</i>
   <i type="int" name="NBLK">    -1</i>
   <i type="logical" name="LPLANE"> T  </i>
   <i type="logical" name="LSCALAPACK"> T  </i>
   <i type="logical" name="LSCAAWARE"> F  </i>
   <i type="logical" name="LSCALU"> F  </i>
   <i type="logical" name="LASYNC"> F  </i>
   <i type="logical" name="LORBITALREAL"> F  </i>
  </separator>
  <separator name="miscellaneous" >
   <i type="int" name="IDIOT">     3</i>
   <i type="int" name="PHON_NSTRUCT">    -1</i>
   <i type="logical" name="LMUSIC"> F  </i>
   <v name="POMASS">     69.72300000     16.00000000     30.97400000</v>
   <v name="DARWINR">      0.00000000      0.00000000      0.00000000</v>
   <v name="DARWINV">      1.00000000      1.00000000      1.00000000</v>
   <i type="logical" name="LCORR"> T  </i>
  </separator>
  <i type="logical" name="GGA_COMPAT"> T  </i>
  <i type="logical" name="LBERRY"> F  </i>
  <i type="int" name="ICORELEVEL">     0</i>
  <i type="logical" name="LDAU"> F  </i>
  <i type="int" name="I_CONSTRAINED_M">     0</i>
  <separator name="electronic exchange-correlation" >
   <i type="string" name="GGA">--</i>
   <i type="int" name="VOSKOWN">     0</i>
   <i type="logical" name="LHFCALC"> F  </i>
   <i type="string" name="PRECFOCK"></i>
   <i type="logical" name="LSYMGRAD"> F  </i>
   <i type="logical" name="LHFONE"> F  </i>
   <i type="logical" name="LRHFCALC"> F  </i>
   <i type="logical" name="LTHOMAS"> F  </i>
   <i type="logical" name="LMODELHF"> F  </i>
   <i type="logical" name="LFOCKACE"> F  </i>
   <i name="ENCUT4O">     -1.00000000</i>
   <i type="int" name="EXXOEP">     0</i>
   <i type="int" name="FOURORBIT">     0</i>
   <i name="AEXX">      0.00000000</i>
   <i name="HFALPHA">      0.00000000</i>
   <i name="MCALPHA">      0.00000000</i>
   <i name="ALDAX">      1.00000000</i>
   <i name="AGGAX">      1.00000000</i>
   <i name="ALDAC">      1.00000000</i>
   <i name="AGGAC">      1.00000000</i>
   <i type="int" name="NKREDX">     1</i>
   <i type="int" name="NKREDY">     1</i>
   <i type="int" name="NKREDZ">     1</i>
   <i type="logical" name="SHIFTRED"> F  </i>
   <i type="logical" name="ODDONLY"> F  </i>
   <i type="logical" name="EVENONLY"> F  </i>
   <i type="int" name="LMAXFOCK">     0</i>
   <i type="int" name="NMAXFOCKAE">     0</i>
   <i type="logical" name="LFOCKAEDFT"> F  </i>
   <i name="HFSCREEN">      0.00000000</i>
   <i name="HFSCREENC">      0.00000000</i>
   <i type="int" name="NBANDSGWLOW">     0</i>
  </separator>
  <separator name="vdW DFT" >
   <i type="logical" name="LUSE_VDW"> F  </i>
   <i type="int" name="IVDW_NL">     1</i>
   <i type="logical" name="LSPIN_VDW"> F  </i>
   <i name="Zab_VDW">     -0.84910000</i>
   <i name="PARAM1">      0.12340000</i>
   <i name="PARAM2">      1.00000000</i>
   <i name="PARAM3">      0.00000000</i>
  </separator>
  <separator name="model GW" >
   <i type="int" name="MODEL_GW">     0</i>
   <i name="MODEL_EPS0">      6.39733692</i>
   <i name="MODEL_ALPHA">      1.00000000</i>
  </separator>
  <separator name="linear response parameters" >
   <i type="logical" name="LEPSILON"> F  </i>
   <i type="logical" name="LRPA"> F  </i>
   <i type="logical" name="LNABLA"> F  </i>
   <i type="logical" name="LVEL"> F  </i>
   <i name="CSHIFT">      0.10000000</i>
   <i name="OMEGAMAX">     -1.00000000</i>
   <i name="DEG_THRESHOLD">      0.00200000</i>
   <i name="RTIME">     -0.10000000</i>
   <i name="WPLASMAI">      0.00000000</i>
   <v name="DFIELD">      0.00000000      0.00000000      0.00000000</v>
   <v name="WPLASMA">      0.00000000      0.00000000      0.00000000      0.00000000      0.00000000      0.00000000      0.00000000      0.00000000      0.00000000</v>
  </separator>
  <separator name="orbital magnetization" >
   <i type="logical" name="NUCIND"> F  </i>
   <v name="MAGPOS">      0.00000000      0.00000000      0.00000000</v>
   <i type="logical" name="LNICSALL"> T  </i>
   <i type="logical" name="ORBITALMAG"> F  </i>
   <i type="logical" name="LMAGBLOCH"> F  </i>
   <i type="logical" name="LCHIMAG"> F  </i>
   <i type="logical" name="LGAUGE"> T  </i>
   <i type="int" name="MAGATOM">     0</i>
   <v name="MAGDIPOL">      0.00000000      0.00000000      0.00000000</v>
   <v name="AVECCONST">      0.00000000      0.00000000      0.00000000</v>
  </separator>
  <separator name="response functions" >
   <i type="logical" name="LALL_IN_ONE"> F  </i>
   <i type="int" name="IALL_IN_ONE">    -1</i>
   <i type="int" name="NBANDS_WAVE">    -1</i>
   <i type="logical" name="LFINITE_TEMPERATURE"> F  </i>
   <i type="logical" name="LADDER"> F  </i>
   <i type="logical" name="LRPAFORCE"> F  </i>
   <i type="logical" name="LFXC"> F  </i>
   <i type="logical" name="LHARTREE"> T  </i>
   <i type="int" name="IBSE">     0</i>
   <v type="int" name="KPOINT">    -1     0     0     0</v>
   <i type="logical" name="LTCTC"> F  </i>
   <i type="logical" name="LTCTE"> F  </i>
   <i type="logical" name="LTETE"> F  </i>
   <i type="logical" name="LTRIPLET"> F  </i>
   <i type="logical" name="LFXCEPS"> F  </i>
   <i type="logical" name="LFXHEG"> F  </i>
   <i type="int" name="NATURALO">     2</i>
   <i type="logical" name="LHOLEGF"> F  </i>
   <i type="logical" name="L2ORDER"> F  </i>
   <i type="logical" name="LDMP1"> F  </i>
   <i type="logical" name="LMP2LT"> F  </i>
   <i type="logical" name="LSMP2LT"> F  </i>
   <i type="logical" name="LGWLF"> F  </i>
   <i name="ENCUTGW">     -1.60000002</i>
   <i name="ENCUTGWSOFT">     -1.60000002</i>
   <i name="ENCUTLF">     -1.00000000</i>
   <i type="logical" name="LESF_SPLINES"> F  </i>
   <i type="int" name="LMAXMP2">    -1</i>
   <i name="SCISSOR">      0.00000000</i>
   <i type="int" name="NOMEGA">     0</i>
   <i type="int" name="NOMEGAR">     0</i>
   <i type="int" name="NBANDSGW">    -1</i>
   <i type="int" name="NBANDSO">    -1</i>
   <i type="int" name="NBANDSV">    -1</i>
   <i type="int" name="NELMGW">     1</i>
   <i type="int" name="NELMHF">     1</i>
   <i type="int" name="DIM">     3</i>
   <i type="int" name="IESPILON">     4</i>
   <i type="int" name="ANTIRES">     0</i>
   <i name="OMEGAMAX">    -30.00000000</i>
   <i name="OMEGAMIN">    -30.00000000</i>
   <i name="OMEGATL">   -200.00000000</i>
   <i type="int" name="OMEGAGRID">     0</i>
   <i name="CSHIFT">     -0.10000000</i>
   <i type="logical" name="LSELFENERGY"> F  </i>
   <i type="logical" name="LSPECTRAL"> F  </i>
   <i type="logical" name="LSPECTRALGW"> F  </i>
   <i type="logical" name="LSINGLES"> F  </i>
   <i type="logical" name="LFERMIGW"> F  </i>
   <i type="logical" name="ODDONLYGW"> F  </i>
   <i type="logical" name="EVENONLYGW"> F  </i>
   <i type="int" name="NKREDLFX">     1</i>
   <i type="int" name="NKREDLFY">     1</i>
   <i type="int" name="NKREDLFZ">     1</i>
   <i type="int" name="MAXMEM">  2800</i>
   <i type="int" name="TELESCOPE">     0</i>
   <i type="int" name="NTAUPAR">    -1</i>
   <i type="int" name="NOMEGAPAR">    -1</i>
   <i name="DAMP_NEWTON">      0.80000001</i>
   <i name="LAMBDA">      1.00000000</i>
  </separator>
  <separator name="External order field" >
   <i name="OFIELD_KAPPA">      0.00000000</i>
   <v name="OFIELD_K">      0.00000000      0.00000000      0.00000000</v>
   <i name="OFIELD_Q6_NEAR">      0.00000000</i>
   <i name="OFIELD_Q6_FAR">      0.00000000</i>
   <i name="OFIELD_A">      0.00000000</i>
  </separator>
  <separator name="optional k-points parameters" >
   <i type="int" name="KPOINTS_OPT_MODE">     1</i>
   <i type="logical" name="LKPOINTS_OPT"> F  </i>
  </separator>
 </parameters>
 <atominfo>
  <atoms>     119 </atoms>
  <types>       3 </types>
  <array name="atoms" >
   <dimension dim="1">ion</dimension>
   <field type="string">element</field>
   <field type="int">atomtype</field>
   <set>
    <rc><c>Ga</c><c>   1</c></rc>
    <rc><c>Ga</c><c>   1</c></rc>
    <rc><c>Ga</c><c>   1</c></rc>
    <rc><c>Ga</c><c>   1</c></rc>
    <rc><c>Ga</c><c>   1</c></rc>
    <rc><c>Ga</c><c>   1</c></rc>
    <rc><c>Ga</c><c>   1</c></rc>
    <rc><c>Ga</c><c>   1</c></rc>
    <rc><c>Ga</c><c>   1</c></rc>
    <rc><c>Ga</c><c>   1</c></rc>
    <rc><c>Ga</c><c>   1</c></rc>
    <rc><c>Ga</c><c>   1</c></rc>
    <rc><c>Ga</c><c>   1</c></rc>
    <rc><c>Ga</c><c>   1</c></rc>
    <rc><c>Ga</c><c>   1</c></rc>
    <rc><c>Ga</c><c>   1</c></rc>
    <rc><c>Ga</c><c>   1</c></rc>
    <rc><c>Ga</c><c>   1</c></rc>
    <rc><c>Ga</c><c>   1</c></rc>
    <rc><c>Ga</c><c>   1</c></rc>
    <rc><c>Ga</c><c>   1</c></rc>
    <rc><c>Ga</c><c>   1</c></rc>
    <rc><c>Ga</c><c>   1</c></rc>
    <rc><c>Ga</c><c>   1</c></rc>
    <rc><c>Ga</c><c>   1</c></rc>
    <rc><c>Ga</c><c>   1</c></rc>
    <rc><c>Ga</c><c>   1</c></rc>
    <rc><c>Ga</c><c>   1</c></rc>
    <rc><c>Ga</c><c>   1</c></rc>
    <rc><c>Ga</c><c>   1</c></rc>
    <rc><c>Ga</c><c>   1</c></rc>
    <rc><c>Ga</c><c>   1</c></rc>
    <rc><c>Ga</c><c>   1</c></rc>
    <rc><c>Ga</c><c>   1</c></rc>
    <rc><c>Ga</c><c>   1</c></rc>
    <rc><c>Ga</c><c>   1</c></rc>
    <rc><c>Ga</c><c>   1</c></rc>
    <rc><c>Ga</c><c>   1</c></rc>
    <rc><c>Ga</c><c>   1</c></rc>
    <rc><c>Ga</c><c>   1</c></rc>
    <rc><c>Ga</c><c>   1</c></rc>
    <rc><c>Ga</c><c>   1</c></rc>
    <rc><c>Ga</c><c>   1</c></rc>
    <rc><c>Ga</c><c>   1</c></rc>
    <rc><c>Ga</c><c>   1</c></rc>
    <rc><c>Ga</c><c>   1</c></rc>
    <rc><c>Ga</c><c>   1</c></rc>
    <rc><c>O </c><c>   2</c></rc>
    <rc><c>O </c><c>   2</c></rc>
    <rc><c>O </c><c>   2</c></rc>
    <rc><c>O </c><c>   2</c></rc>
    <rc><c>O </c><c>   2</c></rc>
    <rc><c>O </c><c>   2</c></rc>
    <rc><c>O </c><c>   2</c></rc>
    <rc><c>O </c><c>   2</c></rc>
    <rc><c>O </c><c>   2</c></rc>
    <rc><c>O </c><c>   2</c></rc>
    <rc><c>O </c><c>   2</c></rc>
    <rc><c>O </c><c>   2</c></rc>
    <rc><c>O </c><c>   2</c></rc>
    <rc><c>O </c><c>   2</c></rc>
    <rc><c>O </c><c>   2</c></rc>
    <rc><c>O </c><c>   2</c></rc>
    <rc><c>O </c><c>   2</c></rc>
    <rc><c>O </c><c>   2</c></rc>
    <rc><c>O </c><c>   2</c></rc>
    <rc><c>O </c><c>   2</c></rc>
    <rc><c>O </c><c>   2</c></rc>
    <rc><c>O </c><c>   2</c></rc>
    <rc><c>O </c><c>   2</c></rc>
    <rc><c>O </c><c>   2</c></rc>
    <rc><c>O </c><c>   2</c></rc>
    <rc><c>O </c><c>   2</c></rc>
    <rc><c>O </c><c>   2</c></rc>
    <rc><c>O </c><c>   2</c></rc>
    <rc><c>O </c><c>   2</c></rc>
    <rc><c>O </c><c>   2</c></rc>
    <rc><c>O </c><c>   2</c></rc>
    <rc><c>O </c><c>   2</c></rc>
    <rc><c>O </c><c>   2</c></rc>
    <rc><c>O </c><c>   2</c></rc>
    <rc><c>O </c><c>   2</c></rc>
    <rc><c>O </c><c>   2</c></rc>
    <rc><c>O </c><c>   2</c></rc>
    <rc><c>O </c><c>   2</c></rc>
    <rc><c>O </c><c>   2</c></rc>
    <rc><c>O </c><c>   2</c></rc>
    <rc><c>O </c><c>   2</c></rc>
    <rc><c>O </c><c>   2</c></rc>
    <rc><c>O </c><c>   2</c></rc>
    <rc><c>O </c><c>   2</c></rc>
    <rc><c>O </c><c>   2</c></rc>
    <rc><c>O </c><c>   2</c></rc>
    <rc><c>O </c><c>   2</c></rc>
    <rc><c>O </c><c>   2</c></rc>
    <rc><c>O </c><c>   2</c></rc>
    <rc><c>O </c><c>   2</c></rc>
    <rc><c>O </c><c>   2</c></rc>
    <rc><c>O </c><c>   2</c></rc>
    <rc><c>O </c><c>   2</c></rc>
    <rc><c>O </c><c>   2</c></rc>
    <rc><c>O </c><c>   2</c></rc>
    <rc><c>O </c><c>   2</c></rc>
    <rc><c>O </c><c>   2</c></rc>
    <rc><c>O </c><c>   2</c></rc>
    <rc><c>O </c><c>   2</c></rc>
    <rc><c>O </c><c>   2</c></rc>
    <rc><c>O </c><c>   2</c></rc>
    <rc><c>O </c><c>   2</c></rc>
    <rc><c>O </c><c>   2</c></rc>
    <rc><c>O </c><c>   2</c></rc>
    <rc><c>O </c><c>   2</c></rc>
    <rc><c>O </c><c>   2</c></rc>
    <rc><c>O </c><c>   2</c></rc>
    <rc><c>O </c><c>   2</c></rc>
    <rc><c>O </c><c>   2</c></rc>
    <rc><c>O </c><c>   2</c></rc>
    <rc><c>O </c><c>   2</c></rc>
    <rc><c>P </c><c>   3</c></rc>
   </set>
  </array>
  <array name="atomtypes" >
   <dimension dim="1">type</dimension>
   <field type="int">atomspertype</field>
   <field type="string">element</field>
   <field>mass</field>
   <field>valence</field>
   <field type="string">pseudopotential</field>
   <set>
    <rc><c>  47</c><c>Ga</c><c>     69.72300000</c><c>     13.00000000</c><c>  PAW_PBE Ga_d 06Jul2010                </c></rc>
    <rc><c>  71</c><c>O </c><c>     16.00000000</c><c>      6.00000000</c><c>   PAW_PBE O 08Apr2002                  </c></rc>
    <rc><c>   1</c><c>P </c><c>     30.97400000</c><c>      5.00000000</c><c>  PAW_PBE P 06Sep2000                   </c></rc>
   </set>
  </array>
 </atominfo>
 <structure name="initialpos" >
  <crystal>
   <varray name="basis" >
    <v>       0.00000000      12.28047342       0.00000000 </v>
    <v>       9.14270205       0.00000000       0.00000000 </v>
    <v>       0.00000000      -2.76826177     -11.30069772 </v>
   </varray>
   <i name="volume">   1268.80515525 </i>
   <varray name="rec_basis" >
    <v>       0.00000000       0.08143009      -0.01994742 </v>
    <v>       0.10937686      -0.00000000       0.00000000 </v>
    <v>       0.00000000       0.00000000      -0.08849011 </v>
   </varray>
  </crystal>
  <varray name="positions" >
   <v>       0.65883830       0.00000000       0.15736517 </v>
   <v>       0.65883830       0.00000000       0.65736517 </v>
   <v>       0.65883830       0.33333333       0.15736517 </v>
   <v>       0.65883830       0.33333333       0.65736517 </v>
   <v>       0.65883830       0.66666667       0.15736517 </v>
   <v>       0.65883830       0.66666667       0.65736517 </v>
   <v>       0.84116170       0.16666667       0.34263483 </v>
   <v>       0.84116170       0.16666667       0.84263483 </v>
   <v>       0.84116170       0.50000000       0.34263483 </v>
   <v>       0.84116170       0.50000000       0.84263483 </v>
   <v>       0.84116170       0.83333333       0.34263483 </v>
   <v>       0.84116170       0.83333333       0.84263483 </v>
   <v>       0.59047440       0.16666667       0.39739300 </v>
   <v>       0.59047440       0.16666667       0.89739300 </v>
   <v>       0.59047440       0.50000000       0.39739300 </v>
   <v>       0.59047440       0.50000000       0.89739300 </v>
   <v>       0.59047440       0.83333333       0.39739300 </v>
   <v>       0.59047440       0.83333333       0.89739300 </v>
   <v>       0.90952560       0.00000000       0.10260700 </v>
   <v>       0.90952560       0.00000000       0.60260700 </v>
   <v>       0.90952560       0.33333333       0.10260700 </v>
   <v>       0.90952560       0.33333333       0.60260700 </v>
   <v>       0.90952560       0.66666667       0.10260700 </v>
   <v>       0.90952560       0.66666667       0.60260700 </v>
   <v>       0.15883830       0.16666667       0.15736517 </v>
   <v>       0.15883830       0.16666667       0.65736517 </v>
   <v>       0.15883830       0.50000000       0.15736517 </v>
   <v>       0.15883830       0.50000000       0.65736517 </v>
   <v>       0.15883830       0.83333333       0.15736517 </v>
   <v>       0.15883830       0.83333333       0.65736517 </v>
   <v>       0.34116170       0.00000000       0.34263483 </v>
   <v>       0.34116170       0.00000000       0.84263483 </v>
   <v>       0.34116170       0.33333333       0.34263483 </v>
   <v>       0.34116170       0.33333333       0.84263483 </v>
   <v>       0.34116170       0.66666667       0.34263483 </v>
   <v>       0.34116170       0.66666667       0.84263483 </v>
   <v>       0.09047440       0.00000000       0.89739300 </v>
   <v>       0.09047440       0.33333333       0.39739300 </v>
   <v>       0.09047440       0.33333333       0.89739300 </v>
   <v>       0.09047440       0.66666667       0.39739300 </v>
   <v>       0.09047440       0.66666667       0.89739300 </v>
   <v>       0.40952560       0.16666667       0.10260700 </v>
   <v>       0.40952560       0.16666667       0.60260700 </v>
   <v>       0.40952560       0.50000000       0.10260700 </v>
   <v>       0.40952560       0.50000000       0.60260700 </v>
   <v>       0.40952560       0.83333333       0.10260700 </v>
   <v>       0.40952560       0.83333333       0.60260700 </v>
   <v>       0.99646913       0.16666667       0.12833205 </v>
   <v>       0.99646913       0.16666667       0.62833205 </v>
   <v>       0.99646913       0.50000000       0.12833205 </v>
   <v>       0.99646913       0.50000000       0.62833205 </v>
   <v>       0.99646913       0.83333333       0.12833205 </v>
   <v>       0.99646913       0.83333333       0.62833205 </v>
   <v>       0.50353087       0.00000000       0.37166795 </v>
   <v>       0.50353087       0.00000000       0.87166795 </v>
   <v>       0.50353087       0.33333333       0.37166795 </v>
   <v>       0.50353087       0.33333333       0.87166795 </v>
   <v>       0.50353087       0.66666667       0.37166795 </v>
   <v>       0.50353087       0.66666667       0.87166795 </v>
   <v>       0.67337106       0.16666667       0.28161508 </v>
   <v>       0.67337106       0.16666667       0.78161508 </v>
   <v>       0.67337106       0.50000000       0.28161508 </v>
   <v>       0.67337106       0.50000000       0.78161508 </v>
   <v>       0.67337106       0.83333333       0.28161508 </v>
   <v>       0.67337106       0.83333333       0.78161508 </v>
   <v>       0.82662894       0.00000000       0.21838492 </v>
   <v>       0.82662894       0.00000000       0.71838492 </v>
   <v>       0.82662894       0.33333333       0.21838492 </v>
   <v>       0.82662894       0.33333333       0.71838492 </v>
   <v>       0.82662894       0.66666667       0.21838492 </v>
   <v>       0.82662894       0.66666667       0.71838492 </v>
   <v>       0.83549502       0.00000000       0.44542296 </v>
   <v>       0.83549502       0.00000000       0.94542296 </v>
   <v>       0.83549502       0.33333333       0.44542296 </v>
   <v>       0.83549502       0.33333333       0.94542296 </v>
   <v>       0.83549502       0.66666667       0.44542296 </v>
   <v>       0.83549502       0.66666667       0.94542296 </v>
   <v>       0.66450498       0.16666667       0.05457704 </v>
   <v>       0.66450498       0.16666667       0.55457704 </v>
   <v>       0.66450498       0.50000000       0.05457704 </v>
   <v>       0.66450498       0.50000000       0.55457704 </v>
   <v>       0.66450498       0.83333333       0.05457704 </v>
   <v>       0.66450498       0.83333333       0.55457704 </v>
   <v>       0.49646913       0.00000000       0.12833205 </v>
   <v>       0.49646913       0.00000000       0.62833205 </v>
   <v>       0.49646913       0.33333333       0.12833205 </v>
   <v>       0.49646913       0.33333333       0.62833205 </v>
   <v>       0.49646913       0.66666667       0.12833205 </v>
   <v>       0.49646913       0.66666667       0.62833205 </v>
   <v>       0.00353087       0.16666667       0.37166795 </v>
   <v>       0.00353087       0.16666667       0.87166795 </v>
   <v>       0.00353087       0.50000000       0.37166795 </v>
   <v>       0.00353087       0.50000000       0.87166795 </v>
   <v>       0.00353087       0.83333333       0.37166795 </v>
   <v>       0.00353087       0.83333333       0.87166795 </v>
   <v>       0.17337106       0.00000000       0.78161508 </v>
   <v>       0.17337106       0.33333333       0.28161508 </v>
   <v>       0.17337106       0.33333333       0.78161508 </v>
   <v>       0.17337106       0.66666667       0.28161508 </v>
   <v>       0.17337106       0.66666667       0.78161508 </v>
   <v>       0.32662894       0.16666667       0.21838492 </v>
   <v>       0.32662894       0.16666667       0.71838492 </v>
   <v>       0.32662894       0.50000000       0.21838492 </v>
   <v>       0.32662894       0.50000000       0.71838492 </v>
   <v>       0.32662894       0.83333333       0.21838492 </v>
   <v>       0.32662894       0.83333333       0.71838492 </v>
   <v>       0.33549502       0.16666667       0.44542296 </v>
   <v>       0.33549502       0.16666667       0.94542296 </v>
   <v>       0.33549502       0.50000000       0.44542296 </v>
   <v>       0.33549502       0.50000000       0.94542296 </v>
   <v>       0.33549502       0.83333333       0.44542296 </v>
   <v>       0.33549502       0.83333333       0.94542296 </v>
   <v>       0.16450498       0.00000000       0.05457704 </v>
   <v>       0.16450498       0.00000000       0.55457704 </v>
   <v>       0.16450498       0.33333333       0.05457704 </v>
   <v>       0.16450498       0.33333333       0.55457704 </v>
   <v>       0.16450498       0.66666667       0.05457704 </v>
   <v>       0.16450498       0.66666667       0.55457704 </v>
   <v>       0.17337106       0.00000000       0.28161508 </v>
  </varray>
 </structure>
 <calculation>
  <scstep>
   <time name="dav">    1.75    1.75</time>
   <time name="total">    1.88    1.88</time>
   <energy>
    <i name="alphaZ">   5376.25786726 </i>
    <i name="ewald"> -86201.52052952 </i>
    <i name="hartreedc"> -33695.74815964 </i>
    <i name="XCdc">   4078.63762559 </i>
    <i name="pawpsdc"> 100093.09196360 </i>
    <i name="pawaedc">-115889.62880893 </i>
    <i name="eentropy">     -0.01710761 </i>
    <i name="bandstr">  16691.41588439 </i>
    <i name="atom"> 131866.99277783 </i>
    <i name="e_fr_energy">  22319.48151296 </i>
    <i name="e_wo_entrp">  22319.49862057 </i>
    <i name="e_0_energy">  22319.49006677 </i>
   </energy>
  </scstep>
  <scstep>
   <time name="dav">    1.71    1.71</time>
   <time name="total">    1.71    1.71</time>
   <energy>
    <i name="e_fr_energy">   5011.61645237 </i>
    <i name="e_wo_entrp">   5011.63408214 </i>
    <i name="e_0_energy">   5011.62526726 </i>
   </energy>
  </scstep>
  <scstep>
   <time name="dav">    2.10    2.10</time>
   <time name="total">    2.10    2.10</time>
   <energy>
    <i name="e_fr_energy">    -36.22192861 </i>
    <i name="e_wo_entrp">    -36.20745367 </i>
    <i name="e_0_energy">    -36.21469114 </i>
   </energy>
  </scstep>
  <scstep>
   <time name="dav">    2.04    2.04</time>
   <time name="total">    2.04    2.04</time>
   <energy>
    <i name="e_fr_energy">   -675.00209680 </i>
    <i name="e_wo_entrp">   -674.98004609 </i>
    <i name="e_0_energy">   -674.99107145 </i>
   </energy>
  </scstep>
  <scstep>
   <time name="dav">    2.33    2.33</time>
   <time name="total">    2.60    2.60</time>
   <energy>
    <i name="e_fr_energy">   -720.65916412 </i>
    <i name="e_wo_entrp">   -720.64069013 </i>
    <i name="e_0_energy">   -720.64992713 </i>
   </energy>
  </scstep>
  <scstep>
   <time name="diag">    0.24    0.24</time>
   <time name="diis">    2.48    2.48</time>
   <time name="orth">    0.03    0.03</time>
   <time name="total">    3.14    3.14</time>
   <energy>
    <i name="e_fr_energy">   -591.13328852 </i>
    <i name="e_wo_entrp">   -591.11754888 </i>
    <i name="e_0_energy">   -591.12541870 </i>
   </energy>
  </scstep>
  <scstep>
   <time name="diag">    0.24    0.24</time>
   <time name="diis">    2.68    2.67</time>
   <time name="orth">    0.03    0.03</time>
   <time name="total">    3.33    3.33</time>
   <energy>
    <i name="e_fr_energy">   -595.04520540 </i>
    <i name="e_wo_entrp">   -595.02798450 </i>
    <i name="e_0_energy">   -595.03659495 </i>
   </energy>
  </scstep>
  <scstep>
   <time name="diag">    0.24    0.24</time>
   <time name="diis">    2.44    2.44</time>
   <time name="orth">    0.03    0.03</time>
   <time name="total">    3.10    3.10</time>
   <energy>
    <i name="e_fr_energy">   -594.62741465 </i>
    <i name="e_wo_entrp">   -594.60916129 </i>
    <i name="e_0_energy">   -594.61828797 </i>
   </energy>
  </scstep>
  <scstep>
   <time name="diag">    0.24    0.24</time>
   <time name="diis">    2.89    2.89</time>
   <time name="orth">    0.03    0.03</time>
   <time name="total">    3.55    3.56</time>
   <energy>
    <i name="e_fr_energy">   -594.33005038 </i>
    <i name="e_wo_entrp">   -594.31140426 </i>
    <i name="e_0_energy">   -594.32072732 </i>
   </energy>
  </scstep>
  <scstep>
   <time name="diag">    0.24    0.24</time>
   <time name="diis">    2.54    2.54</time>
   <time name="orth">    0.03    0.03</time>
   <time name="total">    3.20    3.20</time>
   <energy>
    <i name="e_fr_energy">   -594.39208680 </i>
    <i name="e_wo_entrp">   -594.37357969 </i>
    <i name="e_0_energy">   -594.38283324 </i>
   </energy>
  </scstep>
  <scstep>
   <time name="diag">    0.24    0.24</time>
   <time name="diis">    2.62    2.62</time>
   <time name="orth">    0.03    0.03</time>
   <time name="total">    3.29    3.29</time>
   <energy>
    <i name="e_fr_energy">   -594.39377887 </i>
    <i name="e_wo_entrp">   -594.37541299 </i>
    <i name="e_0_energy">   -594.38459593 </i>
   </energy>
  </scstep>
  <scstep>
   <time name="diag">    0.24    0.24</time>
   <time name="diis">    2.96    2.96</time>
   <time name="orth">    0.03    0.03</time>
   <time name="total">    3.63    3.63</time>
   <energy>
    <i name="e_fr_energy">   -594.39761441 </i>
    <i name="e_wo_entrp">   -594.37926426 </i>
    <i name="e_0_energy">   -594.38843934 </i>
   </energy>
  </scstep>
  <scstep>
   <time name="diag">    0.24    0.24</time>
   <time name="diis">    2.95    2.95</time>
   <time name="orth">    0.03    0.03</time>
   <time name="total">    3.62    3.62</time>
   <energy>
    <i name="e_fr_energy">   -594.39886692 </i>
    <i name="e_wo_entrp">   -594.38054197 </i>
    <i name="e_0_energy">   -594.38970444 </i>
   </energy>
  </scstep>
  <scstep>
   <time name="diag">    0.24    0.24</time>
   <time name="diis">    2.58    2.58</time>
   <time name="orth">    0.03    0.03</time>
   <time name="total">    3.25    3.25</time>
   <energy>
    <i name="e_fr_energy">   -594.39976391 </i>
    <i name="e_wo_entrp">   -594.38143847 </i>
    <i name="e_0_energy">   -594.39060119 </i>
   </energy>
  </scstep>
  <scstep>
   <time name="diag">    0.24    0.24</time>
   <time name="diis">    2.47    2.47</time>
   <time name="orth">    0.03    0.03</time>
   <time name="total">    3.15    3.15</time>
   <energy>
    <i name="e_fr_energy">   -594.40001050 </i>
    <i name="e_wo_entrp">   -594.38168430 </i>
    <i name="e_0_energy">   -594.39084740 </i>
   </energy>
  </scstep>
  <scstep>
   <time name="diag">    0.24    0.24</time>
   <time name="diis">    2.12    2.12</time>
   <time name="orth">    0.03    0.03</time>
   <time name="total">    2.80    2.80</time>
   <energy>
    <i name="e_fr_energy">   -594.40016949 </i>
    <i name="e_wo_entrp">   -594.38184448 </i>
    <i name="e_0_energy">   -594.39100698 </i>
   </energy>
  </scstep>
  <scstep>
   <time name="diag">    0.24    0.24</time>
   <time name="diis">    1.96    1.96</time>
   <time name="orth">    0.03    0.03</time>
   <time name="total">    2.63    2.64</time>
   <energy>
    <i name="e_fr_energy">   -594.40023234 </i>
    <i name="e_wo_entrp">   -594.38191028 </i>
    <i name="e_0_energy">   -594.39107131 </i>
   </energy>
  </scstep>
  <scstep>
   <time name="diag">    0.24    0.24</time>
   <time name="diis">    1.81    1.81</time>
   <time name="orth">    0.03    0.03</time>
   <time name="total">    2.49    2.49</time>
   <energy>
    <i name="e_fr_energy">   -594.40026868 </i>
    <i name="e_wo_entrp">   -594.38194746 </i>
    <i name="e_0_energy">   -594.39110807 </i>
   </energy>
  </scstep>
  <scstep>
   <time name="diag">    0.24    0.24</time>
   <time name="diis">    1.65    1.65</time>
   <time name="orth">    0.03    0.03</time>
   <time name="total">    2.33    2.33</time>
   <energy>
    <i name="e_fr_energy">   -594.40028346 </i>
    <i name="e_wo_entrp">   -594.38196190 </i>
    <i name="e_0_energy">   -594.39112268 </i>
   </energy>
  </scstep>
  <scstep>
   <time name="diag">    0.24    0.24</time>
   <time name="diis">    1.40    1.40</time>
   <time name="orth">    0.03    0.03</time>
   <time name="total">    2.08    2.08</time>
   <energy>
    <i name="e_fr_energy">   -594.40029354 </i>
    <i name="e_wo_entrp">   -594.38197219 </i>
    <i name="e_0_energy">   -594.39113286 </i>
   </energy>
  </scstep>
  <scstep>
   <time name="diag">    0.24    0.24</time>
   <time name="diis">    1.17    1.17</time>
   <time name="orth">    0.03    0.03</time>
   <time name="total">    1.55    1.55</time>
   <energy>
    <i name="alphaZ">   5376.25786726 </i>
    <i name="ewald"> -86201.52052952 </i>
    <i name="hartreedc"> -34203.06290140 </i>
    <i name="XCdc">   4194.79225241 </i>
    <i name="pawpsdc"> 120946.78816417 </i>
    <i name="pawaedc">-137029.65592891 </i>
    <i name="eentropy">     -0.01832195 </i>
    <i name="bandstr">  -5544.97367766 </i>
    <i name="atom"> 131866.99277783 </i>
    <i name="e_fr_energy">   -594.40029777 </i>
    <i name="e_wo_entrp">   -594.38197582 </i>
    <i name="e_0_energy">   -594.39113680 </i>
   </energy>
  </scstep>
  <structure>
   <crystal>
    <varray name="basis" >
     <v>       0.00000000      12.28047342       0.00000000 </v>
     <v>       9.14270205       0.00000000       0.00000000 </v>
     <v>       0.00000000      -2.76826177     -11.30069772 </v>
    </varray>
    <i name="volume">   1268.80515525 </i>
    <varray name="rec_basis" >
     <v>       0.00000000       0.08143009      -0.01994742 </v>
     <v>       0.10937686      -0.00000000       0.00000000 </v>
     <v>       0.00000000       0.00000000      -0.08849011 </v>
    </varray>
   </crystal>
   <varray name="positions" >
    <v>       0.65883830       0.00000000       0.15736517 </v>
    <v>       0.65883830       0.00000000       0.65736517 </v>
    <v>       0.65883830       0.33333333       0.15736517 </v>
    <v>       0.65883830       0.33333333       0.65736517 </v>
    <v>       0.65883830       0.66666667       0.15736517 </v>
    <v>       0.65883830       0.66666667       0.65736517 </v>
    <v>       0.84116170       0.16666667       0.34263483 </v>
    <v>       0.84116170       0.16666667       0.84263483 </v>
    <v>       0.84116170       0.50000000       0.34263483 </v>
    <v>       0.84116170       0.50000000       0.84263483 </v>
    <v>       0.84116170       0.83333333       0.34263483 </v>
    <v>       0.84116170       0.83333333       0.84263483 </v>
    <v>       0.59047440       0.16666667       0.39739300 </v>
    <v>       0.59047440       0.16666667       0.89739300 </v>
    <v>       0.59047440       0.50000000       0.39739300 </v>
    <v>       0.59047440       0.50000000       0.89739300 </v>
    <v>       0.59047440       0.83333333       0.39739300 </v>
    <v>       0.59047440       0.83333333       0.89739300 </v>
    <v>       0.90952560       0.00000000       0.10260700 </v>
    <v>       0.90952560       0.00000000       0.60260700 </v>
    <v>       0.90952560       0.33333333       0.10260700 </v>
    <v>       0.90952560       0.33333333       0.60260700 </v>
    <v>       0.90952560       0.66666667       0.10260700 </v>
    <v>       0.90952560       0.66666667       0.60260700 </v>
    <v>       0.15883830       0.16666667       0.15736517 </v>
    <v>       0.15883830       0.16666667       0.65736517 </v>
    <v>       0.15883830       0.50000000       0.15736517 </v>
    <v>       0.15883830       0.50000000       0.65736517 </v>
    <v>       0.15883830       0.83333333       0.15736517 </v>
    <v>       0.15883830       0.83333333       0.65736517 </v>
    <v>       0.34116170       0.00000000       0.34263483 </v>
    <v>       0.34116170       0.00000000       0.84263483 </v>
    <v>       0.34116170       0.33333333       0.34263483 </v>
    <v>       0.34116170       0.33333333       0.84263483 </v>
    <v>       0.34116170       0.66666667       0.34263483 </v>
    <v>       0.34116170       0.66666667       0.84263483 </v>
    <v>       0.09047440       0.00000000       0.89739300 </v>
    <v>       0.09047440       0.33333333       0.39739300 </v>
    <v>       0.09047440       0.33333333       0.89739300 </v>
    <v>       0.09047440       0.66666667       0.39739300 </v>
    <v>       0.09047440       0.66666667       0.89739300 </v>
    <v>       0.40952560       0.16666667       0.10260700 </v>
    <v>       0.40952560       0.16666667       0.60260700 </v>
    <v>       0.40952560       0.50000000       0.10260700 </v>
    <v>       0.40952560       0.50000000       0.60260700 </v>
    <v>       0.40952560       0.83333333       0.10260700 </v>
    <v>       0.40952560       0.83333333       0.60260700 </v>
    <v>       0.99646913       0.16666667       0.12833205 </v>
    <v>       0.99646913       0.16666667       0.62833205 </v>
    <v>       0.99646913       0.50000000       0.12833205 </v>
    <v>       0.99646913       0.50000000       0.62833205 </v>
    <v>       0.99646913       0.83333333       0.12833205 </v>
    <v>       0.99646913       0.83333333       0.62833205 </v>
    <v>       0.50353087       0.00000000       0.37166795 </v>
    <v>       0.50353087       0.00000000       0.87166795 </v>
    <v>       0.50353087       0.33333333       0.37166795 </v>
    <v>       0.50353087       0.33333333       0.87166795 </v>
    <v>       0.50353087       0.66666667       0.37166795 </v>
    <v>       0.50353087       0.66666667       0.87166795 </v>
    <v>       0.67337106       0.16666667       0.28161508 </v>
    <v>       0.67337106       0.16666667       0.78161508 </v>
    <v>       0.67337106       0.50000000       0.28161508 </v>
    <v>       0.67337106       0.50000000       0.78161508 </v>
    <v>       0.67337106       0.83333333       0.28161508 </v>
    <v>       0.67337106       0.83333333       0.78161508 </v>
    <v>       0.82662894       0.00000000       0.21838492 </v>
    <v>       0.82662894       0.00000000       0.71838492 </v>
    <v>       0.82662894       0.33333333       0.21838492 </v>
    <v>       0.82662894       0.33333333       0.71838492 </v>
    <v>       0.82662894       0.66666667       0.21838492 </v>
    <v>       0.82662894       0.66666667       0.71838492 </v>
    <v>       0.83549502       0.00000000       0.44542296 </v>
    <v>       0.83549502       0.00000000       0.94542296 </v>
    <v>       0.83549502       0.33333333       0.44542296 </v>
    <v>       0.83549502       0.33333333       0.94542296 </v>
    <v>       0.83549502       0.66666667       0.44542296 </v>
    <v>       0.83549502       0.66666667       0.94542296 </v>
    <v>       0.66450498       0.16666667       0.05457704 </v>
    <v>       0.66450498       0.16666667       0.55457704 </v>
    <v>       0.66450498       0.50000000       0.05457704 </v>
    <v>       0.66450498       0.50000000       0.55457704 </v>
    <v>       0.66450498       0.83333333       0.05457704 </v>
    <v>       0.66450498       0.83333333       0.55457704 </v>
    <v>       0.49646913       0.00000000       0.12833205 </v>
    <v>       0.49646913       0.00000000       0.62833205 </v>
    <v>       0.49646913       0.33333333       0.12833205 </v>
    <v>       0.49646913       0.33333333       0.62833205 </v>
    <v>       0.49646913       0.66666667       0.12833205 </v>
    <v>       0.49646913       0.66666667       0.62833205 </v>
    <v>       0.00353087       0.16666667       0.37166795 </v>
    <v>       0.00353087       0.16666667       0.87166795 </v>
    <v>       0.00353087       0.50000000       0.37166795 </v>
    <v>       0.00353087       0.50000000       0.87166795 </v>
    <v>       0.00353087       0.83333333       0.37166795 </v>
    <v>       0.00353087       0.83333333       0.87166795 </v>
    <v>       0.17337106       0.00000000       0.78161508 </v>
    <v>       0.17337106       0.33333333       0.28161508 </v>
    <v>       0.17337106       0.33333333       0.78161508 </v>
    <v>       0.17337106       0.66666667       0.28161508 </v>
    <v>       0.17337106       0.66666667       0.78161508 </v>
    <v>       0.32662894       0.16666667       0.21838492 </v>
    <v>       0.32662894       0.16666667       0.71838492 </v>
    <v>       0.32662894       0.50000000       0.21838492 </v>
    <v>       0.32662894       0.50000000       0.71838492 </v>
    <v>       0.32662894       0.83333333       0.21838492 </v>
    <v>       0.32662894       0.83333333       0.71838492 </v>
    <v>       0.33549502       0.16666667       0.44542296 </v>
    <v>       0.33549502       0.16666667       0.94542296 </v>
    <v>       0.33549502       0.50000000       0.44542296 </v>
    <v>       0.33549502       0.50000000       0.94542296 </v>
    <v>       0.33549502       0.83333333       0.44542296 </v>
    <v>       0.33549502       0.83333333       0.94542296 </v>
    <v>       0.16450498       0.00000000       0.05457704 </v>
    <v>       0.16450498       0.00000000       0.55457704 </v>
    <v>       0.16450498       0.33333333       0.05457704 </v>
    <v>       0.16450498       0.33333333       0.55457704 </v>
    <v>       0.16450498       0.66666667       0.05457704 </v>
    <v>       0.16450498       0.66666667       0.55457704 </v>
    <v>       0.17337106       0.00000000       0.28161508 </v>
   </varray>
  </structure>
  <varray name="forces" >
   <v>       0.00000000       0.36102107      -0.16467717 </v>
   <v>       0.00000000       0.10395568       0.06471749 </v>
   <v>       0.01208735       0.24349154      -0.10734635 </v>
   <v>       0.01050061       0.09386484       0.06387630 </v>
   <v>      -0.01208735       0.24349154      -0.10734635 </v>
   <v>      -0.01050061       0.09386484       0.06387630 </v>
   <v>      -0.25484653       2.51562225      -0.57538100 </v>
   <v>       0.00807754       0.07716985      -0.07102075 </v>
   <v>       0.00000000       0.35216246      -0.16249019 </v>
   <v>       0.00000000      -0.02013014      -0.07539934 </v>
   <v>       0.25484653       2.51562225      -0.57538100 </v>
   <v>      -0.00807754       0.07716985      -0.07102075 </v>
   <v>      -0.00803869       0.23930813       0.01439004 </v>
   <v>       0.02370535       0.29332862      -0.09551705 </v>
   <v>       0.00000000       0.28835380      -0.01091407 </v>
   <v>       0.00000000       0.31851525      -0.10354497 </v>
   <v>       0.00803869       0.23930813       0.01439004 </v>
   <v>      -0.02370535       0.29332862      -0.09551705 </v>
   <v>       0.00000000       0.36970457      -0.96647291 </v>
   <v>       0.00000000       0.62551822       0.78928395 </v>
   <v>      -0.36408623      -0.07113719      -0.33468680 </v>
   <v>      -0.25041620       0.02302770       0.35020640 </v>
   <v>       0.36408623      -0.07113719      -0.33468680 </v>
   <v>       0.25041620       0.02302770       0.35020640 </v>
   <v>       1.10361699       0.00284092       0.82301922 </v>
   <v>      -1.83410842       0.24463620       1.84666967 </v>
   <v>       0.00000000      -0.00915204      -0.53606452 </v>
   <v>       0.00000000       0.13394124       0.41402791 </v>
   <v>      -1.10361699       0.00284092       0.82301922 </v>
   <v>       1.83410842       0.24463620       1.84666967 </v>
   <v>       0.00000000       2.35312178      -1.12795670 </v>
   <v>       0.00000000      -0.41648692       0.32685404 </v>
   <v>      -0.59219534      -0.49888913       0.19484586 </v>
   <v>      -0.09876854      -0.16228728       0.13081959 </v>
   <v>       0.59219534      -0.49888913       0.19484586 </v>
   <v>       0.09876854      -0.16228728       0.13081959 </v>
   <v>       0.00000000       0.73322271      -0.42833456 </v>
   <v>      -2.53027150      -0.94759298       0.48886620 </v>
   <v>      -0.03669966       0.32591113      -0.11986904 </v>
   <v>       2.53027150      -0.94759298       0.48886620 </v>
   <v>       0.03669966       0.32591113      -0.11986904 </v>
   <v>       0.11074963      -0.78338849      -0.46253216 </v>
   <v>      -0.06026403      -0.81848027       0.57505651 </v>
   <v>       0.00000000      -0.40730196      -0.05424944 </v>
   <v>       0.00000000      -0.41223062       0.16367096 </v>
   <v>      -0.11074963      -0.78338849      -0.46253216 </v>
   <v>       0.06026403      -0.81848027       0.57505651 </v>
   <v>       0.68880212      -0.96505819       1.05702671 </v>
   <v>       0.27716660      -0.12499554      -0.44514888 </v>
   <v>       0.00000000       0.48731915      -0.05633325 </v>
   <v>       0.00000000       0.41628018      -0.18601462 </v>
   <v>      -0.68880212      -0.96505819       1.05702671 </v>
   <v>      -0.27716660      -0.12499554      -0.44514888 </v>
   <v>       0.00000000      -0.51606596       0.08960667 </v>
   <v>       0.00000000      -0.49399163       0.14350449 </v>
   <v>       0.08018533      -0.44012276       0.10468662 </v>
   <v>      -0.00749210      -0.47196053       0.13466279 </v>
   <v>      -0.08018533      -0.44012276       0.10468662 </v>
   <v>       0.00749210      -0.47196053       0.13466279 </v>
   <v>       0.00522592       0.05110517       0.33267818 </v>
   <v>      -0.02009185       0.02815380       0.35852407 </v>
   <v>       0.00000000       0.00452469       0.36891980 </v>
   <v>       0.00000000       0.04154448       0.35931298 </v>
   <v>      -0.00522592       0.05110517       0.33267818 </v>
   <v>       0.02009185       0.02815380       0.35852407 </v>
   <v>       0.00000000      -0.44504673       0.22606115 </v>
   <v>       0.00000000      -0.13209155      -0.26651879 </v>
   <v>       0.23369920      -0.40974209       0.03888770 </v>
   <v>       0.00220902      -0.14213823      -0.29777166 </v>
   <v>      -0.23369920      -0.40974209       0.03888770 </v>
   <v>      -0.00220902      -0.14213823      -0.29777166 </v>
   <v>       0.00000000      -0.87156810       0.00830072 </v>
   <v>       0.00000000      -0.31516218       0.14560505 </v>
   <v>       0.35869205      -0.69772524       0.01024435 </v>
   <v>      -0.00431597      -0.29404403       0.31327239 </v>
   <v>      -0.35869205      -0.69772524       0.01024435 </v>
   <v>       0.00431597      -0.29404403       0.31327239 </v>
   <v>       0.00869816       0.21856294      -0.17045938 </v>
   <v>      -0.02480355       0.20242028      -0.33008445 </v>
   <v>       0.00000000       0.15974942      -0.19554993 </v>
   <v>       0.00000000       0.19007771      -0.30631967 </v>
   <v>      -0.00869816       0.21856294      -0.17045938 </v>
   <v>       0.02480355       0.20242028      -0.33008445 </v>
   <v>       0.00000000       0.42979815      -0.01964510 </v>
   <v>       0.00000000       0.43450319      -0.17631164 </v>
   <v>       0.03522566       0.64209371      -0.06220405 </v>
   <v>      -0.01210300       0.56816414      -0.22712837 </v>
   <v>      -0.03522566       0.64209371      -0.06220405 </v>
   <v>       0.01210300       0.56816414      -0.22712837 </v>
   <v>       1.25215877      -1.11511521       0.08432303 </v>
   <v>       0.01482580      -0.55885750       0.19647937 </v>
   <v>       0.00000000      -0.20905749       0.02827640 </v>
   <v>       0.00000000      -0.58425278       0.14975265 </v>
   <v>      -1.25215877      -1.11511521       0.08432303 </v>
   <v>      -0.01482580      -0.55885750       0.19647937 </v>
   <v>       0.00000000      -0.10896841      -0.67320932 </v>
   <v>       1.43602305       0.27184630      -0.05536670 </v>
   <v>      -0.04831176       0.11944536       0.33835158 </v>
   <v>      -1.43602305       0.27184630      -0.05536670 </v>
   <v>       0.04831176       0.11944536       0.33835158 </v>
   <v>       1.87870292       2.58220097       0.81331922 </v>
   <v>       0.26676488       0.37025239      -0.59168884 </v>
   <v>       0.00000000       0.03317658      -0.27639026 </v>
   <v>       0.00000000      -0.02356408      -0.35476577 </v>
   <v>      -1.87870292       2.58220097       0.81331922 </v>
   <v>      -0.26676488       0.37025239      -0.59168884 </v>
   <v>       1.13873485       0.71291780      -1.02873223 </v>
   <v>      -0.02267685      -0.13715066       0.10535093 </v>
   <v>       0.00000000      -0.16459270       0.21013005 </v>
   <v>       0.00000000      -0.18821034       0.19723153 </v>
   <v>      -1.13873485       0.71291780      -1.02873223 </v>
   <v>       0.02267685      -0.13715066       0.10535093 </v>
   <v>       0.00000000       0.67032384       3.25705796 </v>
   <v>       0.00000000       0.02451668      -1.80012541 </v>
   <v>      -0.08816930       0.19674894      -0.27280537 </v>
   <v>       0.55875202       0.38578556      -0.37236839 </v>
   <v>       0.08816930       0.19674894      -0.27280537 </v>
   <v>      -0.55875202       0.38578556      -0.37236839 </v>
   <v>       0.00000000      -6.75388367      -4.51191672 </v>
  </varray>
  <varray name="stress" >
   <v>     358.40247088       0.00000000       0.00000000 </v>
   <v>       0.00000000     371.25125677      -2.47953566 </v>
   <v>       0.00000000      -2.47953439     376.86892627 </v>
  </varray>
  <energy>
   <i name="e_fr_energy">   -594.40029777 </i>
   <i name="e_wo_entrp">   -594.38197582 </i>
   <i name="e_0_energy">   -594.39113680 </i>
  </energy>
  <time name="totalsc">   67.06   67.08</time>
 </calculation>
 <calculation>
  <scstep>
   <time name="dav">    1.88    1.88</time>
   <time name="total">    2.27    2.27</time>
   <energy>
    <i name="alphaZ">   5376.25786726 </i>
    <i name="ewald"> -86266.77549177 </i>
    <i name="hartreedc"> -34138.43205326 </i>
    <i name="XCdc">   4194.06017171 </i>
    <i name="pawpsdc"> 120946.76503531 </i>
    <i name="pawaedc">-137029.63280255 </i>
    <i name="eentropy">     -0.01635388 </i>
    <i name="bandstr">  -5534.06759933 </i>
    <i name="atom"> 131866.99277783 </i>
    <i name="e_fr_energy">   -584.84844869 </i>
    <i name="e_wo_entrp">   -584.83209481 </i>
    <i name="e_0_energy">   -584.84027175 </i>
   </energy>
  </scstep>
  <scstep>
   <time name="diag">    0.24    0.24</time>
   <time name="diis">    2.58    2.58</time>
   <time name="orth">    0.03    0.03</time>
   <time name="total">    3.24    3.24</time>
   <energy>
    <i name="e_fr_energy">   -594.55948817 </i>
    <i name="e_wo_entrp">   -594.54223129 </i>
    <i name="e_0_energy">   -594.55085973 </i>
   </energy>
  </scstep>
  <scstep>
   <time name="diag">    0.24    0.24</time>
   <time name="diis">    2.93    2.93</time>
   <time name="orth">    0.03    0.03</time>
   <time name="total">    3.59    3.59</time>
   <energy>
    <i name="e_fr_energy">   -596.67178112 </i>
    <i name="e_wo_entrp">   -596.65393925 </i>
    <i name="e_0_energy">   -596.66286019 </i>
   </energy>
  </scstep>
  <scstep>
   <time name="diag">    0.24    0.24</time>
   <time name="diis">    2.82    2.82</time>
   <time name="orth">    0.03    0.03</time>
   <time name="total">    3.48    3.48</time>
   <energy>
    <i name="e_fr_energy">   -596.71952722 </i>
    <i name="e_wo_entrp">   -596.70131363 </i>
    <i name="e_0_energy">   -596.71042043 </i>
   </energy>
  </scstep>
  <scstep>
   <time name="diag">    0.24    0.24</time>
   <time name="diis">    2.98    2.98</time>
   <time name="orth">    0.03    0.03</time>
   <time name="total">    3.64    3.64</time>
   <energy>
    <i name="e_fr_energy">   -596.68216338 </i>
    <i name="e_wo_entrp">   -596.66386195 </i>
    <i name="e_0_energy">   -596.67301267 </i>
   </energy>
  </scstep>
  <scstep>
   <time name="diag">    0.24    0.24</time>
   <time name="diis">    2.75    2.74</time>
   <time name="orth">    0.03    0.03</time>
   <time name="total">    3.41    3.41</time>
   <energy>
    <i name="e_fr_energy">   -596.68683900 </i>
    <i name="e_wo_entrp">   -596.66852462 </i>
    <i name="e_0_energy">   -596.67768181 </i>
   </energy>
  </scstep>
  <scstep>
   <time name="diag">    0.24    0.24</time>
   <time name="diis">    2.70    2.70</time>
   <time name="orth">    0.03    0.03</time>
   <time name="total">    3.36    3.37</time>
   <energy>
    <i name="e_fr_energy">   -596.68463768 </i>
    <i name="e_wo_entrp">   -596.66628406 </i>
    <i name="e_0_energy">   -596.67546087 </i>
   </energy>
  </scstep>
  <scstep>
   <time name="diag">    0.24    0.24</time>
   <time name="diis">    2.86    2.86</time>
   <time name="orth">    0.03    0.03</time>
   <time name="total">    3.53    3.53</time>
   <energy>
    <i name="e_fr_energy">   -596.68548110 </i>
    <i name="e_wo_entrp">   -596.66711646 </i>
    <i name="e_0_energy">   -596.67629878 </i>
   </energy>
  </scstep>
  <scstep>
   <time name="diag">    0.24    0.24</time>
   <time name="diis">    2.91    2.90</time>
   <time name="orth">    0.03    0.03</time>
   <time name="total">    3.57    3.57</time>
   <energy>
    <i name="e_fr_energy">   -596.68595428 </i>
    <i name="e_wo_entrp">   -596.66758851 </i>
    <i name="e_0_energy">   -596.67677139 </i>
   </energy>
  </scstep>
  <scstep>
   <time name="diag">    0.24    0.24</time>
   <time name="diis">    2.55    2.55</time>
   <time name="orth">    0.03    0.03</time>
   <time name="total">    3.22    3.22</time>
   <energy>
    <i name="e_fr_energy">   -596.68611813 </i>
    <i name="e_wo_entrp">   -596.66774812 </i>
    <i name="e_0_energy">   -596.67693312 </i>
   </energy>
  </scstep>
  <scstep>
   <time name="diag">    0.24    0.24</time>
   <time name="diis">    2.20    2.20</time>
   <time name="orth">    0.03    0.03</time>
   <time name="total">    2.87    2.87</time>
   <energy>
    <i name="e_fr_energy">   -596.68619089 </i>
    <i name="e_wo_entrp">   -596.66782287 </i>
    <i name="e_0_energy">   -596.67700688 </i>
   </energy>
  </scstep>
  <scstep>
   <time name="diag">    0.24    0.24</time>
   <time name="diis">    1.78    1.78</time>
   <time name="orth">    0.03    0.03</time>
   <time name="total">    2.46    2.46</time>
   <energy>
    <i name="e_fr_energy">   -596.68622385 </i>
    <i name="e_wo_entrp">   -596.66785573 </i>
    <i name="e_0_energy">   -596.67703979 </i>
   </energy>
  </scstep>
  <scstep>
   <time name="diag">    0.24    0.24</time>
   <time name="diis">    1.58    1.58</time>
   <time name="orth">    0.03    0.03</time>
   <time name="total">    2.26    2.26</time>
   <energy>
    <i name="e_fr_energy">   -596.68623916 </i>
    <i name="e_wo_entrp">   -596.66787097 </i>
    <i name="e_0_energy">   -596.67705507 </i>
   </energy>
  </scstep>
  <scstep>
   <time name="diag">    0.24    0.24</time>
   <time name="diis">    1.29    1.29</time>
   <time name="orth">    0.03    0.03</time>
   <time name="total">    1.67    1.67</time>
   <energy>
    <i name="alphaZ">   5376.25786726 </i>
    <i name="ewald"> -86266.77549177 </i>
    <i name="hartreedc"> -34161.68905395 </i>
    <i name="XCdc">   4194.89185206 </i>
    <i name="pawpsdc"> 120604.09756645 </i>
    <i name="pawaedc">-136688.87032906 </i>
    <i name="eentropy">     -0.01836839 </i>
    <i name="bandstr">  -5521.57306682 </i>
    <i name="atom"> 131866.99277783 </i>
    <i name="e_fr_energy">   -596.68624641 </i>
    <i name="e_wo_entrp">   -596.66787801 </i>
    <i name="e_0_energy">   -596.67706221 </i>
   </energy>
  </scstep>
  <structure>
   <crystal>
    <varray name="basis" >
     <v>       0.00000000      12.28047342       0.00000000 </v>
     <v>       9.14270205       0.00000000       0.00000000 </v>
     <v>       0.00000000      -2.76826177     -11.30069772 </v>
    </varray>
    <i name="volume">   1268.80515525 </i>
    <varray name="rec_basis" >
     <v>       0.00000000       0.08143009      -0.01994742 </v>
     <v>       0.10937686      -0.00000000       0.00000000 </v>
     <v>       0.00000000       0.00000000      -0.08849011 </v>
    </varray>
   </crystal>
   <varray name="positions" >
    <v>       0.66041501       0.00000000       0.15806818 </v>
    <v>       0.65918440       0.00000000       0.65708889 </v>
    <v>       0.65989813       0.33339711       0.15782343 </v>
    <v>       0.65914557       0.33338874       0.65709248 </v>
    <v>       0.65989813       0.66660289       0.15782343 </v>
    <v>       0.65914557       0.66661126       0.65709248 </v>
    <v>       0.85159778       0.16532194       0.34509113 </v>
    <v>       0.84153320       0.16670929       0.84293802 </v>
    <v>       0.84270150       0.50000000       0.34332850 </v>
    <v>       0.84115518       0.50000000       0.84295671 </v>
    <v>       0.85159778       0.83467806       0.34509113 </v>
    <v>       0.84153320       0.83329071       0.84293802 </v>
    <v>       0.59140065       0.16662425       0.39733157 </v>
    <v>       0.59171863       0.16679175       0.89780076 </v>
    <v>       0.59161767       0.50000000       0.39743959 </v>
    <v>       0.59182530       0.50000000       0.89783503 </v>
    <v>       0.59140065       0.83337575       0.39733157 </v>
    <v>       0.59171863       0.83320825       0.89780076 </v>
    <v>       0.91190800       0.00000000       0.10673287 </v>
    <v>       0.91122335       0.00000000       0.59923755 </v>
    <v>       0.90956822       0.33141219       0.10403578 </v>
    <v>       0.90927905       0.33201198       0.60111197 </v>
    <v>       0.90956822       0.66858781       0.10403578 </v>
    <v>       0.90927905       0.66798802       0.60111197 </v>
    <v>       0.15805746       0.17249004       0.15385170 </v>
    <v>       0.15802225       0.15698876       0.64948174 </v>
    <v>       0.15931821       0.50000000       0.15965363 </v>
    <v>       0.15896605       0.50000000       0.65559769 </v>
    <v>       0.15805746       0.82750996       0.15385170 </v>
    <v>       0.15802225       0.84301124       0.64948174 </v>
    <v>       0.35149116       0.00000000       0.34745007 </v>
    <v>       0.33921103       0.00000000       0.84123949 </v>
    <v>       0.33901436       0.33020854       0.34180303 </v>
    <v>       0.34039828       0.33281217       0.84207636 </v>
    <v>       0.33901436       0.66979146       0.34180303 </v>
    <v>       0.34039828       0.66718783       0.84207636 </v>
    <v>       0.09376699       0.00000000       0.89922156 </v>
    <v>       0.08628143       0.31998203       0.39530603 </v>
    <v>       0.09187006       0.33313968       0.89790472 </v>
    <v>       0.08628143       0.68001797       0.39530603 </v>
    <v>       0.09187006       0.66686032       0.89790472 </v>
    <v>       0.40689324       0.16725105       0.10458155 </v>
    <v>       0.40575689       0.16634868       0.60015208 </v>
    <v>       0.40797776       0.50000000       0.10283859 </v>
    <v>       0.40774869       0.50000000       0.60190829 </v>
    <v>       0.40689324       0.83274895       0.10458155 </v>
    <v>       0.40575689       0.83365132       0.60015208 </v>
    <v>       0.99166080       0.17030122       0.12381960 </v>
    <v>       0.99640647       0.16812917       0.63023238 </v>
    <v>       0.99843773       0.50000000       0.12857253 </v>
    <v>       0.99828345       0.50000000       0.62912614 </v>
    <v>       0.99166080       0.82969878       0.12381960 </v>
    <v>       0.99640647       0.83187083       0.63023238 </v>
    <v>       0.50141732       0.00000000       0.37128542 </v>
    <v>       0.50145217       0.00000000       0.87105533 </v>
    <v>       0.50170115       0.33375644       0.37122105 </v>
    <v>       0.50154723       0.33329380       0.87109308 </v>
    <v>       0.50170115       0.66624356       0.37122105 </v>
    <v>       0.50154723       0.66670620       0.87109308 </v>
    <v>       0.67325168       0.16669424       0.28019488 </v>
    <v>       0.67313665       0.16656065       0.78008454 </v>
    <v>       0.67303382       0.50000000       0.28004016 </v>
    <v>       0.67318850       0.50000000       0.78008117 </v>
    <v>       0.67325168       0.83330576       0.28019488 </v>
    <v>       0.67313665       0.83343935       0.78008454 </v>
    <v>       0.82466307       0.00000000       0.21741987 </v>
    <v>       0.82636650       0.00000000       0.71952269 </v>
    <v>       0.82498188       0.33456648       0.21821891 </v>
    <v>       0.82635711       0.33334499       0.71965611 </v>
    <v>       0.82498188       0.66543352       0.21821891 </v>
    <v>       0.82635711       0.66665501       0.71965611 </v>
    <v>       0.83206316       0.00000000       0.44538752 </v>
    <v>       0.83411682       0.00000000       0.94480137 </v>
    <v>       0.83274422       0.33522602       0.44537923 </v>
    <v>       0.83403843       0.33331056       0.94408560 </v>
    <v>       0.83274422       0.66477398       0.44537923 </v>
    <v>       0.83403843       0.66668944       0.94408560 </v>
    <v>       0.66552762       0.16671256       0.05530473 </v>
    <v>       0.66561781       0.16653579       0.55598617 </v>
    <v>       0.66532072       0.50000000       0.05541184 </v>
    <v>       0.66554646       0.50000000       0.55588472 </v>
    <v>       0.66552762       0.83328744       0.05530473 </v>
    <v>       0.66561781       0.83346421       0.55598617 </v>
    <v>       0.49817646       0.00000000       0.12841591 </v>
    <v>       0.49834570       0.00000000       0.62908472 </v>
    <v>       0.49905139       0.33351921       0.12859759 </v>
    <v>       0.49891968       0.33326947       0.62930166 </v>
    <v>       0.49905139       0.66648079       0.12859759 </v>
    <v>       0.49891968       0.66673053       0.62930166 </v>
    <v>      -0.00093090       0.17327384       0.37130798 </v>
[...]
       <r>   -10.0159     0.0000   142.0000 </r>
       <r>    -9.9056     0.0000   142.0000 </r>
       <r>    -9.7953     0.0000   142.0000 </r>
       <r>    -9.6850     0.0000   142.0000 </r>
       <r>    -9.5747     0.0000   142.0000 </r>
       <r>    -9.4645     0.2149   142.0237 </r>
       <r>    -9.3542    56.2877   148.2318 </r>
       <r>    -9.2439   237.4080   174.4160 </r>
       <r>    -9.1336   408.1029   219.4265 </r>
       <r>    -9.0233   464.6973   270.6789 </r>
       <r>    -8.9130   505.5828   326.4406 </r>
       <r>    -8.8027   449.8111   376.0512 </r>
       <r>    -8.6924   332.7142   412.7469 </r>
       <r>    -8.5821   352.7271   451.6499 </r>
       <r>    -8.4718   351.2273   490.3874 </r>
       <r>    -8.3615   287.1787   522.0609 </r>
       <r>    -8.2512   223.8726   546.7523 </r>
       <r>    -8.1409   188.2220   567.5117 </r>
       <r>    -8.0307   137.8517   582.7156 </r>
       <r>    -7.9204    94.1458   593.0991 </r>
       <r>    -7.8101    76.1241   601.4950 </r>
       <r>    -7.6998    64.7914   608.6410 </r>
       <r>    -7.5895    28.6206   611.7976 </r>
       <r>    -7.4792     1.8348   612.0000 </r>
       <r>    -7.3689     0.0002   612.0000 </r>
       <r>    -7.2586     0.0000   612.0000 </r>
       <r>    -7.1483     0.0000   612.0000 </r>
       <r>    -7.0380     0.0000   612.0000 </r>
       <r>    -6.9277     0.0000   612.0000 </r>
       <r>    -6.8174     0.0000   612.0000 </r>
       <r>    -6.7072     0.0000   612.0000 </r>
       <r>    -6.5969     0.0000   612.0000 </r>
       <r>    -6.4866     0.0000   612.0000 </r>
       <r>    -6.3763     0.0000   612.0000 </r>
       <r>    -6.2660     0.0000   612.0000 </r>
       <r>    -6.1557     0.0000   612.0000 </r>
       <r>    -6.0454     0.0000   612.0000 </r>
       <r>    -5.9351     0.0000   612.0000 </r>
       <r>    -5.8248     0.0000   612.0000 </r>
       <r>    -5.7145     0.0000   612.0000 </r>
       <r>    -5.6042     0.0000   612.0000 </r>
       <r>    -5.4939     0.0000   612.0000 </r>
       <r>    -5.3836     0.0000   612.0000 </r>
       <r>    -5.2734     0.0000   612.0000 </r>
       <r>    -5.1631     0.0000   612.0000 </r>
       <r>    -5.0528     0.0000   612.0000 </r>
       <r>    -4.9425     0.0000   612.0000 </r>
       <r>    -4.8322     0.0000   612.0000 </r>
       <r>    -4.7219     0.0000   612.0000 </r>
       <r>    -4.6116     0.0000   612.0000 </r>
       <r>    -4.5013     0.0000   612.0000 </r>
       <r>    -4.3910     0.0000   612.0000 </r>
       <r>    -4.2807     0.0213   612.0023 </r>
       <r>    -4.1704     9.5499   613.0556 </r>
       <r>    -4.0601     8.5492   613.9985 </r>
       <r>    -3.9499     0.0133   614.0000 </r>
       <r>    -3.8396     0.0000   614.0000 </r>
       <r>    -3.7293     0.0000   614.0000 </r>
       <r>    -3.6190     0.0023   614.0002 </r>
       <r>    -3.5087     1.8740   614.2069 </r>
       <r>    -3.3984     4.3397   614.6856 </r>
       <r>    -3.2881     7.1380   615.4728 </r>
       <r>    -3.1778     9.1446   616.4814 </r>
       <r>    -3.0675    28.5736   619.6328 </r>
       <r>    -2.9572    31.3342   623.0888 </r>
       <r>    -2.8469    21.6628   625.4780 </r>
       <r>    -2.7366    32.1980   629.0292 </r>
       <r>    -2.6263    38.2972   633.2531 </r>
       <r>    -2.5161    48.0991   638.5580 </r>
       <r>    -2.4058    44.7324   643.4916 </r>
       <r>    -2.2955    43.4246   648.2810 </r>
       <r>    -2.1852    49.6698   653.7592 </r>
       <r>    -2.0749    37.1231   657.8536 </r>
       <r>    -1.9646    28.7266   661.0219 </r>
       <r>    -1.8543    41.1757   665.5632 </r>
       <r>    -1.7440    44.4176   670.4622 </r>
       <r>    -1.6337    44.0966   675.3257 </r>
       <r>    -1.5234    33.5331   679.0241 </r>
       <r>    -1.4131    30.4826   682.3861 </r>
       <r>    -1.3028    34.8733   686.2323 </r>
       <r>    -1.1926    33.2797   689.9028 </r>
       <r>    -1.0823    33.6203   693.6109 </r>
       <r>    -0.9720    30.9395   697.0232 </r>
       <r>    -0.8617    40.0081   701.4358 </r>
       <r>    -0.7514    40.4146   705.8932 </r>
       <r>    -0.6411    45.0476   710.8616 </r>
       <r>    -0.5308    37.5482   715.0029 </r>
       <r>    -0.4205    58.9245   721.5018 </r>
       <r>    -0.3102    36.0982   725.4831 </r>
       <r>    -0.1999    44.0099   730.3371 </r>
       <r>    -0.0896    49.9856   735.8501 </r>
       <r>     0.0207    63.6961   742.8752 </r>
       <r>     0.1310    61.4801   749.6560 </r>
       <r>     0.2412    54.2979   755.6446 </r>
       <r>     0.3515    63.0106   762.5942 </r>
       <r>     0.4618    63.4517   769.5924 </r>
       <r>     0.5721    63.0336   776.5445 </r>
       <r>     0.6824    66.3021   783.8571 </r>
       <r>     0.7927    68.0895   791.3668 </r>
       <r>     0.9030    71.2748   799.2279 </r>
       <r>     1.0133    69.5656   806.9004 </r>
       <r>     1.1236    76.0381   815.2868 </r>
       <r>     1.2339    60.9943   822.0140 </r>
       <r>     1.3442    73.6631   830.1384 </r>
       <r>     1.4545    64.7261   837.2772 </r>
       <r>     1.5647    71.9179   845.2092 </r>
       <r>     1.6750    67.3753   852.6401 </r>
       <r>     1.7853    72.9661   860.6877 </r>
       <r>     1.8956    64.6337   867.8163 </r>
       <r>     2.0059    65.2930   875.0176 </r>
       <r>     2.1162    78.0068   883.6211 </r>
       <r>     2.2265    77.6874   892.1894 </r>
       <r>     2.3368    83.7909   901.4309 </r>
       <r>     2.4471    85.2815   910.8367 </r>
       <r>     2.5574    91.6612   920.9462 </r>
       <r>     2.6677    84.2576   930.2392 </r>
       <r>     2.7780    98.9532   941.1529 </r>
       <r>     2.8883   106.2567   952.8722 </r>
       <r>     2.9985   115.0604   965.5624 </r>
       <r>     3.1088   116.0813   978.3653 </r>
       <r>     3.2191    99.0420   989.2888 </r>
       <r>     3.3294    85.6429   998.7345 </r>
       <r>     3.4397    81.1304  1007.6826 </r>
       <r>     3.5500    79.3173  1016.4306 </r>
       <r>     3.6603    58.7444  1022.9097 </r>
       <r>     3.7706    30.2605  1026.2471 </r>
       <r>     3.8809    17.4185  1028.1683 </r>
       <r>     3.9912    18.8311  1030.2452 </r>
       <r>     4.1015    28.8697  1033.4293 </r>
       <r>     4.2118    24.2203  1036.1006 </r>
       <r>     4.3220    15.0641  1037.7620 </r>
       <r>     4.4323    12.1617  1039.1034 </r>
       <r>     4.5426     8.0900  1039.9956 </r>
       <r>     4.6529     0.0396  1040.0000 </r>
       <r>     4.7632     0.0000  1040.0000 </r>
       <r>     4.8735     0.0000  1040.0000 </r>
       <r>     4.9838     0.0000  1040.0000 </r>
       <r>     5.0941     0.0037  1040.0004 </r>
       <r>     5.2044     3.1587  1040.3488 </r>
       <r>     5.3147    19.3014  1042.4776 </r>
       <r>     5.4250     4.7970  1043.0066 </r>
       <r>     5.5353     6.6802  1043.7434 </r>
       <r>     5.6456     2.8801  1044.0611 </r>
       <r>     5.7558     1.6961  1044.2481 </r>
       <r>     5.8661     0.8754  1044.3447 </r>
       <r>     5.9764     4.2708  1044.8157 </r>
       <r>     6.0867     8.3701  1045.7389 </r>
       <r>     6.1970     7.1541  1046.5279 </r>
       <r>     6.3073     4.9859  1047.0778 </r>
       <r>     6.4176     5.6600  1047.7021 </r>
       <r>     6.5279     5.6950  1048.3302 </r>
       <r>     6.6382    10.9942  1049.5427 </r>
       <r>     6.7485     4.1363  1049.9989 </r>
       <r>     6.8588     0.0097  1050.0000 </r>
       <r>     6.9691     0.4288  1050.0473 </r>
       <r>     7.0793     2.5084  1050.3240 </r>
       <r>     7.1896     3.7762  1050.7404 </r>
       <r>     7.2999     0.1548  1050.7575 </r>
       <r>     7.4102     2.2824  1051.0092 </r>
       <r>     7.5205     5.9000  1051.6600 </r>
       <r>     7.6308     1.6724  1051.8444 </r>
       <r>     7.7411     7.6406  1052.6871 </r>
       <r>     7.8514     1.4758  1052.8499 </r>
       <r>     7.9617     5.7482  1053.4839 </r>
       <r>     8.0720     5.4233  1054.0820 </r>
       <r>     8.1823     8.9777  1055.0722 </r>
       <r>     8.2926     2.3628  1055.3328 </r>
       <r>     8.4029     6.1612  1056.0123 </r>
       <r>     8.5131    10.9919  1057.2246 </r>
       <r>     8.6234     6.0412  1057.8909 </r>
       <r>     8.7337     8.2417  1058.7999 </r>
       <r>     8.8440    13.2463  1060.2609 </r>
       <r>     8.9543    15.0085  1061.9162 </r>
       <r>     9.0646    13.1978  1063.3718 </r>
       <r>     9.1749    20.7544  1065.6608 </r>
       <r>     9.2852    31.5700  1069.1428 </r>
       <r>     9.3955    19.6616  1071.3113 </r>
       <r>     9.5058    31.8211  1074.8209 </r>
       <r>     9.6161    25.2491  1077.6057 </r>
       <r>     9.7264    31.4501  1081.0744 </r>
       <r>     9.8366    35.5705  1084.9975 </r>
       <r>     9.9469    31.7481  1088.4991 </r>
       <r>    10.0572    34.1661  1092.2673 </r>
       <r>    10.1675    32.8527  1095.8907 </r>
       <r>    10.2778    31.9110  1099.4102 </r>
       <r>    10.3881    38.2247  1103.6261 </r>
       <r>    10.4984    36.1930  1107.6179 </r>
       <r>    10.6087    34.4199  1111.4141 </r>
       <r>    10.7190    39.5647  1115.7778 </r>
       <r>    10.8293    36.7557  1119.8317 </r>
       <r>    10.9396    28.9907  1123.0291 </r>
       <r>    11.0499    38.2058  1127.2429 </r>
       <r>    11.1601    42.3666  1131.9156 </r>
       <r>    11.2704    31.8367  1135.4269 </r>
       <r>    11.3807    38.2451  1139.6451 </r>
       <r>    11.4910    38.6542  1143.9083 </r>
       <r>    11.6013    31.4280  1147.3746 </r>
       <r>    11.7116    23.1883  1149.9321 </r>
       <r>    11.8219    36.1900  1153.9235 </r>
       <r>    11.9322    31.4501  1157.3922 </r>
       <r>    12.0425    33.7546  1161.1151 </r>
       <r>    12.1528    32.9781  1164.7523 </r>
       <r>    12.2631    35.9588  1168.7183 </r>
       <r>    12.3734    47.5311  1173.9606 </r>
       <r>    12.4837    44.6301  1178.8829 </r>
       <r>    12.5939    33.7905  1182.6097 </r>
       <r>    12.7042    28.8789  1185.7948 </r>
       <r>    12.8145    37.8028  1189.9642 </r>
       <r>    12.9248    32.6678  1193.5672 </r>
       <r>    13.0351    42.5784  1198.2632 </r>
       <r>    13.1454    38.6618  1202.5273 </r>
       <r>    13.2557    35.6586  1206.4602 </r>
       <r>    13.3660    30.7419  1209.8508 </r>
       <r>    13.4763    45.4073  1214.8588 </r>
       <r>    13.5866    39.0268  1219.1632 </r>
       <r>    13.6969    36.7656  1223.2181 </r>
       <r>    13.8072    33.9426  1226.9617 </r>
       <r>    13.9174    31.1258  1230.3947 </r>
       <r>    14.0277    42.5343  1235.0859 </r>
       <r>    14.1380    33.1675  1238.7440 </r>
       <r>    14.2483    33.2148  1242.4073 </r>
       <r>    14.3586    32.5596  1245.9983 </r>
       <r>    14.4689    50.3098  1251.5471 </r>
       <r>    14.5792    34.5320  1255.3557 </r>
       <r>    14.6895    44.9543  1260.3138 </r>
       <r>    14.7998    39.3978  1264.6591 </r>
       <r>    14.9101    12.0694  1265.9902 </r>
       <r>    15.0204     0.0884  1266.0000 </r>
       <r>    15.1307     0.0000  1266.0000 </r>
       <r>    15.2410     0.0000  1266.0000 </r>
       <r>    15.3512     0.0000  1266.0000 </r>
       <r>    15.4615     0.0000  1266.0000 </r>
       <r>    15.5718     0.0000  1266.0000 </r>
       <r>    15.6821     0.0000  1266.0000 </r>
       <r>    15.7924     0.0000  1266.0000 </r>
       <r>    15.9027     0.0000  1266.0000 </r>
       <r>    16.0130     0.0000  1266.0000 </r>
       <r>    16.1233     0.0000  1266.0000 </r>
       <r>    16.2336     0.0000  1266.0000 </r>
       <r>    16.3439     0.0000  1266.0000 </r>
      </set>
     </set>
    </array>
   </total>
  </dos>
 </calculation>
 <structure name="finalpos" >
  <crystal>
   <varray name="basis" >
    <v>       0.00000000      12.28047342       0.00000000 </v>
    <v>       9.14270205       0.00000000       0.00000000 </v>
    <v>       0.00000000      -2.76826177     -11.30069772 </v>
   </varray>
   <i name="volume">   1268.80515525 </i>
   <varray name="rec_basis" >
    <v>       0.00000000       0.08143009      -0.01994742 </v>
    <v>       0.10937686      -0.00000000       0.00000000 </v>
    <v>       0.00000000       0.00000000      -0.08849011 </v>
   </varray>
  </crystal>
  <varray name="positions" >
   <v>       0.65866321      -0.00000000       0.15830761 </v>
   <v>       0.66459437      -0.00000000       0.65221373 </v>
   <v>       0.65879654       0.33294819       0.15650607 </v>
   <v>       0.66844310       0.33005085       0.65790021 </v>
   <v>       0.65879654       0.66705181       0.15650607 </v>
   <v>       0.66844310       0.66994915       0.65790021 </v>
   <v>       0.84160342       0.16776582       0.34311175 </v>
   <v>       0.85271868       0.16607397       0.83839463 </v>
   <v>       0.84056743       0.50000000       0.34442256 </v>
   <v>       0.81870292       0.50000000       0.89667210 </v>
   <v>       0.84160342       0.83223418       0.34311175 </v>
   <v>       0.85271868       0.83392603       0.83839463 </v>
   <v>       0.58611024       0.16391173       0.39357797 </v>
   <v>       0.60160047       0.16403552       0.89629734 </v>
   <v>       0.59747864       0.50000000       0.40123703 </v>
   <v>       0.58018847       0.50000000       0.89189487 </v>
   <v>       0.58611024       0.83608827       0.39357797 </v>
   <v>       0.60160047       0.83596448       0.89629734 </v>
   <v>       0.91710945      -0.00000000       0.10522516 </v>
   <v>       0.91642024      -0.00000000       0.59310708 </v>
   <v>       0.89675080       0.36164910       0.09220271 </v>
   <v>       0.91108956       0.33324057       0.59982730 </v>
   <v>       0.89675080       0.63835090       0.09220271 </v>
   <v>       0.91108956       0.66675943       0.59982730 </v>
   <v>       0.14957735       0.16360237       0.15713638 </v>
   <v>       0.16381246       0.16233861       0.64604492 </v>
   <v>       0.16787309       0.50000000       0.16061857 </v>
   <v>       0.16388180       0.50000000       0.65259727 </v>
   <v>       0.14957735       0.83639763       0.15713638 </v>
   <v>       0.16381246       0.83766139       0.64604492 </v>
   <v>       0.32626880      -0.00000000       0.34505144 </v>
   <v>       0.34156760      -0.00000000       0.84405024 </v>
   <v>       0.34166881       0.33214140       0.34517881 </v>
   <v>       0.33851864       0.32984519       0.84060339 </v>
   <v>       0.34166881       0.66785860       0.34517881 </v>
   <v>       0.33851864       0.67015481       0.84060339 </v>
   <v>       0.08942091      -0.00000000       0.89191110 </v>
   <v>       0.08638513       0.32623447       0.39420332 </v>
   <v>       0.09663547       0.36892891       0.89948077 </v>
   <v>       0.08638513       0.67376553       0.39420332 </v>
   <v>       0.09663547       0.63107109       0.89948077 </v>
   <v>       0.40482188       0.16704700       0.10316028 </v>
   <v>       0.41559318       0.16817512       0.60683816 </v>
   <v>       0.40951511       0.50000000       0.10219110 </v>
   <v>       0.41565060       0.50000000       0.60406183 </v>
   <v>       0.40482188       0.83295300       0.10316028 </v>
   <v>       0.41559318       0.83182488       0.60683816 </v>
   <v>       0.98126571       0.18668276       0.11211977 </v>
   <v>       0.00209412       0.16780061       0.62651063 </v>
   <v>       0.01770201       0.50000000       0.15567735 </v>
   <v>       0.00162200       0.50000000       0.62948780 </v>
   <v>       0.98126571       0.81331724       0.11211977 </v>
   <v>       0.00209412       0.83219939       0.62651063 </v>
   <v>       0.49509213      -0.00000000       0.37005120 </v>
   <v>       0.50520430      -0.00000000       0.87477674 </v>
   <v>       0.50539422       0.33647164       0.37367547 </v>
   <v>       0.50290598       0.32509826       0.87174436 </v>
   <v>       0.50539422       0.66352836       0.37367547 </v>
   <v>       0.50290598       0.67490174       0.87174436 </v>
   <v>       0.67078673       0.16505555       0.27932890 </v>
   <v>       0.67070782       0.15782012       0.76946033 </v>
   <v>       0.66949082       0.50000000       0.27700228 </v>
   <v>       0.67405945       0.50000000       0.78167544 </v>
   <v>       0.67078673       0.83494445       0.27932890 </v>
   <v>       0.67070782       0.84217988       0.76946033 </v>
   <v>       0.82729906      -0.00000000       0.21690785 </v>
   <v>       0.83633057      -0.00000000       0.71550071 </v>
   <v>       0.82395132       0.33523984       0.22090439 </v>
   <v>       0.82771491       0.31300385       0.71118152 </v>
   <v>       0.82395132       0.66476016       0.22090439 </v>
   <v>       0.82771491       0.68699615       0.71118152 </v>
   <v>       0.82259390      -0.00000000       0.44332448 </v>
   <v>       0.84488740      -0.00000000       0.94202759 </v>
   <v>       0.82038657       0.33698769       0.44644174 </v>
   <v>       0.80042474       0.29603512       0.93950152 </v>
   <v>       0.82038657       0.66301231       0.44644174 </v>
   <v>       0.80042474       0.70396488       0.93950152 </v>
   <v>       0.66414007       0.16408160       0.05751296 </v>
   <v>       0.66583547       0.16461598       0.54807018 </v>
   <v>       0.65441866       0.50000000       0.05103329 </v>
   <v>       0.67301063       0.50000000       0.55827657 </v>
   <v>       0.66414007       0.83591840       0.05751296 </v>
   <v>       0.66583547       0.83538402       0.54807018 </v>
   <v>       0.49462578      -0.00000000       0.12655079 </v>
   <v>       0.50029572      -0.00000000       0.62559818 </v>
   <v>       0.49711643       0.33160680       0.12752124 </v>
   <v>       0.50544616       0.33435501       0.63058169 </v>
   <v>       0.49711643       0.66839320       0.12752124 </v>
   <v>       0.50544616       0.66564499       0.63058169 </v>
   <v>      -0.00666437       0.17580888       0.38457629 </v>
   <v>       0.01419087       0.18134738       0.87310724 </v>
   <v>       0.00230993       0.50000000       0.38492502 </v>
   <v>      -0.04245194       0.50000000       0.86788332 </v>
   <v>      -0.00666437       0.82419112       0.38457629 </v>
   <v>       0.01419087       0.81865262       0.87310724 </v>
   <v>       0.17574025      -0.00000000       0.78085535 </v>
   <v>       0.17913963       0.34153184       0.29069803 </v>
   <v>       0.17566965       0.32510930       0.76938671 </v>
   <v>       0.17913963       0.65846816       0.29069803 </v>
   <v>       0.17566965       0.67489070       0.76938671 </v>
   <v>       0.33366848       0.17284039       0.22500542 </v>
   <v>       0.33523042       0.16648344       0.72250515 </v>
   <v>       0.33281851       0.50000000       0.22399226 </v>
   <v>       0.33224171       0.50000000       0.71909112 </v>
   <v>       0.33366848       0.82715961       0.22500542 </v>
   <v>       0.33523042       0.83351656       0.72250515 </v>
   <v>       0.34405709       0.17253995       0.45179415 </v>
   <v>       0.33058449       0.16676033       0.94572406 </v>
   <v>       0.34170151       0.50000000       0.44833003 </v>
   <v>       0.34117515       0.50000000       0.94239168 </v>
   <v>       0.34405709       0.82746005       0.45179415 </v>
   <v>       0.33058449       0.83323967       0.94572406 </v>
   <v>       0.16908810      -0.00000000       0.04580779 </v>
   <v>       0.18407729      -0.00000000       0.55892322 </v>
   <v>       0.17321206       0.32586337       0.06298663 </v>
   <v>       0.17513546       0.33505515       0.54848426 </v>
   <v>       0.17321206       0.67413663       0.06298663 </v>
   <v>       0.17513546       0.66494485       0.54848426 </v>
   <v>       0.13525045      -0.00000000       0.30038198 </v>
  </varray>
 </structure>
</modeling>
