       N       E                     dE             d eps       ncg     rms          ort
DAV:   1    -0.211094911993E+05   -0.21109E+05   -0.54680E+05  5000   0.754E+03
DAV:   2    -0.655331029662E+05   -0.44424E+05   -0.42891E+05  5000   0.124E+03
DAV:   3    -0.706268965184E+05   -0.50938E+04   -0.46158E+04  5000   0.379E+02
DAV:   4    -0.714273230871E+05   -0.80043E+03   -0.69790E+03  5000   0.122E+02
DAV:   5    -0.391295466026E+05    0.32298E+05   -0.77244E+02  5000   0.596E+01
SDA:   6     0.307320778442E+05    0.69862E+05   -0.77244E+02  5000   0.101E+06 0.000E+00
CGA:   7     0.895668099377E+04   -0.21775E+05   -0.24786E+05  5000   0.401E+05-0.176E+05
CGA:   8     0.412924557094E+04   -0.48274E+04   -0.47432E+04  5000   0.169E+05 0.323E+04
CGA:   9     0.277891064839E+04   -0.13503E+04   -0.20354E+04  5000   0.166E+05 0.120E+04
CGA:  10     0.135239752475E+04   -0.14265E+04   -0.20718E+04  5000   0.515E+04 0.125E+04
CGA:  11     0.272822239562E+03   -0.10796E+04   -0.10757E+04  5000   0.228E+04 0.631E+03
CGA:  12    -0.344083433867E+03   -0.61691E+03   -0.60598E+03  5000   0.104E+04 0.140E+03
CGA:  13    -0.656307614950E+03   -0.31222E+03   -0.30840E+03  5000   0.514E+03 0.169E+02
CGA:  14    -0.818812285180E+03   -0.16250E+03   -0.16767E+03  5000   0.308E+03-0.386E+02
CGA:  15    -0.888954567781E+03   -0.70142E+02   -0.70877E+02  5000   0.147E+03-0.129E+02
CGA:  16    -0.923708256627E+03   -0.34754E+02   -0.34949E+02  5000   0.796E+02-0.324E+01
CGA:  17    -0.943127328604E+03   -0.19419E+02   -0.19435E+02  5000   0.433E+02-0.465E+00
CGA:  18    -0.954143744409E+03   -0.11016E+02   -0.11010E+02  5000   0.290E+02 0.173E+00
CGA:  19    -0.959929086015E+03   -0.57853E+01   -0.54684E+01  5000   0.224E+02-0.299E+01
CGA:  20    -0.962045184090E+03   -0.21161E+01   -0.17220E+01  5000   0.276E+02 0.263E+01
CGA:  21    -0.964326373473E+03   -0.22812E+01   -0.26949E+01  5000   0.213E+02-0.379E+01
CGA:  22    -0.965200808125E+03   -0.87443E+00   -0.91264E+00  5000   0.149E+02-0.195E+01
CGA:  23    -0.965906694242E+03   -0.70589E+00   -0.65078E+00  5000   0.156E+02-0.485E+00
CGA:  24    -0.966457410724E+03   -0.55072E+00   -0.63976E+00  5000   0.200E+02-0.255E+01
CGA:  25    -0.966801687784E+03   -0.34428E+00   -0.47571E+00  5000   0.164E+02-0.516E+01
CGA:  26    -0.966947542010E+03   -0.14585E+00   -0.37868E+00  5000   0.160E+02-0.590E+01
CGA:  27    -0.967202019881E+03   -0.25448E+00   -0.35059E+00  5000   0.143E+02-0.186E+01
CGA:  28    -0.967632040087E+03   -0.43002E+00   -0.48654E+00  5000   0.825E+01-0.115E+01
CGA:  29    -0.967898660257E+03   -0.26662E+00   -0.33652E+00  5000   0.697E+01-0.128E+01
CGA:  30    -0.968205906942E+03   -0.30725E+00   -0.30943E+00  5000   0.688E+01 0.253E-02
CGA:  31    -0.968522369628E+03   -0.31646E+00   -0.33363E+00  5000   0.633E+01-0.252E+00
CGA:  32    -0.968843483728E+03   -0.32111E+00   -0.33708E+00  5000   0.501E+01-0.108E+00
CGA:  33    -0.969080843640E+03   -0.23736E+00   -0.24026E+00  5000   0.358E+01-0.108E-01
CGA:  34    -0.969303059683E+03   -0.22222E+00   -0.22390E+00  5000   0.348E+01-0.107E-01
CGA:  35    -0.969518935518E+03   -0.21588E+00   -0.23892E+00  5000   0.320E+01-0.968E-01
CGA:  36    -0.969780387495E+03   -0.26145E+00   -0.27052E+00  5000   0.183E+01 0.649E-01
SDA:  37    -0.969934619621E+03   -0.15423E+00   -0.15297E+00  5000   0.118E+01-0.204E-01
CGA:  38    -0.970190821525E+03   -0.25620E+00   -0.26582E+00  5000   0.185E+01-0.858E-01
CGA:  39    -0.970448485259E+03   -0.25766E+00   -0.25502E+00  5000   0.619E+00 0.678E-01
CGA:  40    -0.970543854189E+03   -0.95369E-01   -0.94708E-01  5000   0.464E+00 0.190E-01
CGA:  41    -0.970617773458E+03   -0.73919E-01   -0.76138E-01  5000   0.198E+00-0.488E-01
CGA:  42    -0.970659279100E+03   -0.41506E-01   -0.40775E-01  5000   0.104E+00 0.671E-02
CGA:  43    -0.970676792325E+03   -0.17513E-01   -0.17019E-01  5000   0.500E-01 0.127E-01
CGA:  44    -0.970690695153E+03   -0.13903E-01   -0.14043E-01  5000   0.275E-01-0.108E-02
CGA:  45    -0.970697287705E+03   -0.65926E-02   -0.64438E-02  5000   0.214E-01 0.133E-02
CGA:  4