 running    4 mpi-ranks, on    1 nodes
 distrk:  each k-point on    1 cores,    4 groups
 distr:  one band on    1 cores,    1 groups
 OpenACC runtime initialized ...    4 GPUs detected
 vasp.6.4.2 20Jul23 (build Nov 12 2023 22:16:35) complex                         
 POSCAR found type information on POSCAR GaO P 
 POSCAR found :  3 types and     120 ions
 scaLAPACK will be used selectively (only on CPU)
 LDA part: xc-table for Pade appr. of Perdew
 POSCAR, INCAR and KPOINTS ok, starting setup
 FFT: planning ... GRIDC
 FFT: planning ... GRID_SOFT
 FFT: planning ... GRID
 WAVECAR not read
 initial charge from wavefunction
 entering main loop
       N       E                     dE             d eps       ncg     rms          ort
DAV:   1    -0.216606783157E+05   -0.21661E+05   -0.54431E+05  5064   0.749E+03
DAV:   2    -0.660543381376E+05   -0.44394E+05   -0.43012E+05  5064   0.122E+03
DAV:   3    -0.707643897748E+05   -0.47101E+04   -0.42312E+04  5064   0.360E+02
DAV:   4    -0.713670898726E+05   -0.60270E+03   -0.51989E+03  5064   0.108E+02
DAV:   5    -0.382584846333E+05    0.33109E+05   -0.77217E+02  5064   0.581E+01
 gam= 0.000 g(H,U,f)=  0.720E+05 0.257E+05 0.183E+04 ort(H,U,f) = 0.000E+00 0.000E+00 0.000E+00
SDA:   6     0.225998709234E+05    0.60858E+05   -0.77217E+02  5064   0.995E+05 0.000E+00
 gam= 0.000 trial= 0.400  step= 0.311 mean= 0.400
 gam= 0.290 g(H,U,f)=  0.177E+05 0.104E+05 0.683E+03 ort(H,U,f) = 0.472E+04-0.299E+04-0.596E+02
CGA:   7     0.547700178583E+04   -0.17123E+05   -0.15471E+05  5064   0.288E+05 0.166E+04
 gam= 0.290 trial= 0.396  step= 0.232 mean= 0.396
 gam= 0.297 g(H,U,f)=  0.604E+04 0.214E+04 0.381E+03 ort(H,U,f) =-0.682E+03-0.996E+03-0.616E+03
CGA:   8     0.153129277105E+04   -0.39457E+04   -0.33947E+04  5064   0.856E+04-0.229E+04
 gam= 0.297 trial= 0.387  step= 0.254 mean= 0.387
 gam= 0.647 g(H,U,f)=  0.316E+04 0.226E+04 0.121E+03 ort(H,U,f) = 0.561E+03 0.691E+03 0.148E+03
CGA:   9     0.638264422975E+03   -0.89303E+03   -0.99872E+03  5064   0.554E+04 0.140E+04
 gam= 0.647 trial= 0.381  step= 0.178 mean= 0.381
 gam= 1.089 g(H,U,f)=  0.221E+04 0.360E+04 0.220E+03 ort(H,U,f) = 0.473E+03 0.248E+03 0.657E+02
CGA:  10     0.253261134460E+03   -0.38500E+03   -0.57219E+03  5064   0.603E+04 0.786E+03
 gam= 1.089 trial= 0.371  step= 0.194 mean= 0.371
 gam= 0.736 g(H,U,f)=  0.177E+04 0.255E+04 0.122E+03 ort(H,U,f) =-0.302E+03 0.781E+03 0.380E+02
CGA:  11    -0.116219135588E+03   -0.36948E+03   -0.66679E+03  5064   0.444E+04 0.517E+03
 gam= 0.736 trial= 0.362  step= 0.205 mean= 0.362
 gam= 0.315 g(H,U,f)=  0.119E+04 0.209E+03 0.373E+01 ort(H,U,f) =-0.164E+03 0.248E+03 0.404E+01
CGA:  12    -0.420941976801E+03   -0.30472E+03   -0.49293E+03  5064   0.140E+04 0.887E+02
 gam= 0.315 trial= 0.354  step= 0.377 mean= 0.354
 gam= 0.334 g(H,U,f)=  0.420E+03 0.463E+02 0.325E+00 ort(H,U,f) = 0.275E+02 0.818E+02 0.205E+01
CGA:  13    -0.692909242873E+03   -0.27197E+03   -0.26942E+03  5064   0.467E+03 0.111E+03
 gam= 0.334 trial= 0.355  step= 0.570 mean= 0.355
 gam= 0.517 g(H,U,f)=  0.211E+03 0.287E+02 0.157E+01 ort(H,U,f) =-0.277E+02 0.347E+02 0.232E+01
CGA:  14    -0.838063948520E+03   -0.14515E+03   -0.14379E+03  5064   0.241E+03 0.935E+01
 gam= 0.517 trial= 0.366  step= 0.574 mean= 0.366
 gam= 0.511 g(H,U,f)=  0.106E+03 0.173E+02 0.178E+00 ort(H,U,f) =-0.352E+02 0.243E+02 0.457E+00
CGA:  15    -0.908106612084E+03   -0.70043E+02   -0.70670E+02  5064   0.123E+03-0.104E+02
 gam= 0.511 trial= 0.376  step= 0.635 mean= 0.376
 gam= 0.549 g(H,U,f)=  0.597E+02 0.783E+01 0.510E-01 ort(H,U,f) =-0.202E+02 0.149E+02 0.321E-01
CGA:  16    -0.944872534036E+03   -0.36766E+02   -0.37461E+02  5064   0.676E+02-0.528E+01
 gam= 0.549 trial= 0.389  step= 0.544 mean= 0.389
 gam= 0.475 g(H,U,f)=  0.286E+02 0.349E+01 0.132E-01 ort(H,U,f) =-0.595E+01 0.379E+01 0.181E-01
CGA:  17    -0.962254338724E+03   -0.17382E+02   -0.17601E+02  5064   0.321E+02-0.215E+01
 gam= 0.475 trial= 0.397  step= 0.610 mean= 0.397
 gam= 0.545 g(H,U,f)=  0.154E+02 0.207E+01 0.216E-01 ort(H,U,f) =-0.219E+01 0.108E+01 0.809E-01
CGA:  18    -0.971633297151E+03   -0.93790E+01   -0.94750E+01  5064   0.175E+02-0.104E+01
 gam= 0.545 trial= 0.408  step= 0.560 mean= 0.408
 gam= 0.453 g(H,U,f)=  0.674E+01 0.118E+01 0.377E-02 ort(H,U,f) =-0.112E+01 0.786E+00 0.335E-02
CGA:  19    -0.976342723487E+03   -0.47094E+01   -0.47383E+01  5064   0.793E+01-0.333E+00
 gam= 0.453 trial= 0.415  step= 0.588 mean= 0.415
 gam= 0.530 g(H,U,f)=  0.370E+01 0.493E+00 0.673E-02 ort(H,U,f) =-0.540E+00 0.484E+00 0.123E-01
CGA:  20    -0.978625046132E+03   -0.22823E+01   -0.22877E+01  5064   0.420E+01-0.442E-01
 gam= 0.530 trial= 0.424  step= 0.592 mean= 0.424
 gam= 0.466 g(H,U,f)=  0.170E+01 0.251E+00 0.559E-02 ort(H,U,f) =-0.222E+00 0.214E+00 0.166E-01
CGA:  21    -0.979862921172E+03   -0.12379E+01   -0.12374E+01  5064   0.196E+01 0.934E-02
 gam= 0.466 trial= 0.432  step= 0.588 mean= 0.432
 gam= 0.511 g(H,U,f)=  0.887E+00 0.112E+00 0.184E-02 ort(H,U,f) =-0.140E+00 0.137E+00 0.851E-02
CGA:  22    -0.980440329407E+03   -0.57741E+00   -0.57709E+00  5064   0.100E+01 0.505E-02
 gam= 0.511 trial= 0.440  step= 0.578 mean= 0.440
 gam= 0.502 g(H,U,f)=  0.450E+00 0.523E-01 0.258E-03 ort(H,U,f) =-0.494E-01 0.511E-01-0.204E-03
CGA:  23    -0.980730465355E+03   -0.29014E+00   -0.29006E+00  5064   0.503E+00 0.152E-02
 gam= 0.502 trial= 0.447  step= 0.545 mean= 0.447
 gam= 0.508 g(H,U,f)=  0.225E+00 0.297E-01 0.672E-03 ort(H,U,f) =-0.197E-01 0.230E-01-0.187E-02
CGA:  24    -0.980867591716E+03   -0.13713E+00   -0.13706E+00  5064   0.255E+00 0.142E-02
 gam= 0.508 trial= 0.452  step= 0.535 mean= 0.452
 gam= 0.474 g(H,U,f)=  0.104E+00 0.164E-01 0.856E-03 ort(H,U,f) =-0.130E-01 0.136E-01-0.370E-03
CGA:  25    -0.980936101703E+03   -0.68510E-01   -0.68500E-01  5064   0.121E+00 0.222E-03
 gam= 0.474 trial= 0.456  step= 0.561 mean= 0.456
 gam= 0.502 g(H,U,f)=  0.511E-01 0.916E-02 0.582E-03 ort(H,U,f) =-0.105E-01 0.966E-02 0.574E-03
CGA:  26    -0.980970039187E+03   -0.33937E-01   -0.33955E-01  5064   0.608E-01-0.292E-03
 gam= 0.502 trial= 0.461  step= 0.596 mean= 0.461
 gam= 0.504 g(H,U,f)=  0.268E-01 0.358E-02 0.238E-03 ort(H,U,f) =-0.599E-02 0.525E-02 0.543E-03
CGA:  27    -0.980988109779E+03   -0.18071E-01   -0.18086E-01  5064   0.306E-01-0.201E-03
 gam= 0.504 trial= 0.468  step= 0.585 mean= 0.468
 gam= 0.491 g(H,U,f)=  0.133E-01 0.164E-02 0.584E-04 ort(H,U,f) =-0.200E-02 0.172E-02 0.240E-03
CGA:  28    -0.980997035471E+03   -0.89257E-02   -0.89280E-02  5064   0.150E-01-0.332E-04
 gam= 0.491 trial= 0.474  step= 0.602 mean= 0.474
 gam= 0.500 g(H,U,f)=  0.667E-02 0.841E-03 0.559E-05 ort(H,U,f) =-0.642E-03 0.605E-03 0.468E-04
CGA:  29    -0.981001551622E+03   -0.45162E-02   -0.45157E-02  5064   0.751E-02 0.102E-04
 gam= 0.500 trial= 0.480  step= 0.600 mean= 0.480
 gam= 0.492 g(H,U,f)=  0.327E-02 0.427E-03 0.191E-05 ort(H,U,f) =-0.193E-03 0.199E-03-0.117E-04
CGA:  30    -0.981003807790E+03   -0.22562E-02   -0.22565E-02  5064   0.370E-02-0.522E-05
 gam= 0.492 trial= 0.486  step= 0.614 mean= 0.486
 gam= 0.510 g(H,U,f)=  0.160E-02 0.278E-03 0.557E-05 ort(H,U,f) =-0.104E-03 0.107E-03-0.110E-04
CGA:  31    -0.981004941810E+03   -0.11340E-02   -0.11345E-02  5064   0.189E-02-0.787E-05
 gam= 0.510 trial= 0.493  step= 0.628 mean= 0.493
 gam= 0.519 g(H,U,f)=  0.823E-03 0.151E-03 0.574E-05 ort(H,U,f) =-0.107E-03 0.119E-03-0.639E-06
CGA:  32    -0.981005534268E+03   -0.59246E-03   -0.59169E-03  5064   0.980E-03 0.112E-04
 gam= 0.519 trial= 0.499  step= 0.619 mean= 0.499
 gam= 0.521 g(H,U,f)=  0.437E-03 0.695E-04 0.343E-05 ort(H,U,f) =-0.601E-04 0.770E-04 0.402E-05
CGA:  33    -0.981005840678E+03   -0.30641E-03   -0.30515E-03  5064   0.510E-03 0.210E-04
 gam= 0.521 trial= 0.505  step= 0.612 mean= 0.505
 gam= 0.530 g(H,U,f)=  0.239E-03 0.302E-04 0.129E-05 ort(H,U,f) =-0.234E-04 0.344E-04 0.332E-05
CGA:  34    -0.981006000871E+03   -0.16019E-03   -0.15942E-03  5064   0.270E-03 0.144E-04
 gam= 0.530 trial= 0.511  step= 0.605 mean= 0.511
 gam= 0.511 g(H,U,f)=  0.124E-03 0.134E-04 0.262E-06 ort(H,U,f) =-0.898E-05 0.102E-04 0.130E-05
CGA:  35    -0.981006085017E+03   -0.84146E-04   -0.84029E-04  5064   0.138E-03 0.253E-05
 gam= 0.511 trial= 0.515  step= 0.605 mean= 0.515
 gam= 0.514 g(H,U,f)=  0.631E-04 0.774E-05 0.275E-07 ort(H,U,f) =-0.656E-05 0.293E-05 0.937E-07
CGA:  36    -0.981006127008E+03   -0.41990E-04   -0.42150E-04  5064   0.709E-04-0.354E-05
 gam= 0.514 trial= 0.520  step= 0.619 mean= 0.520
 gam= 0.000 g(H,U,f)=  0.316E-04 0.424E-05 0.570E-07 ort(H,U,f) =-0.461E-05 0.191E-05-0.178E-06
SDA:  37    -0.981006148257E+03   -0.21249E-04   -0.21392E-04  5064   0.359E-04-0.287E-05
 gam= 0.000 trial= 0.525  step= 0.850 mean= 0.525
 gam= 0.343 g(H,U,f)=  0.104E-04 0.194E-05 0.259E-07 ort(H,U,f) =-0.110E-05 0.219E-05 0.383E-07
CGA:  38    -0.981006163709E+03   -0.15452E-04   -0.15269E-04  5064   0.123E-04 0.113E-05
 gam= 0.343 trial= 0.541  step= 0.814 mean= 0.541
 gam= 0.616 g(H,U,f)=  0.705E-05 0.546E-06 0.710E-08 ort(H,U,f) =-0.259E-05 0.143E-05 0.204E-07
CGA:  39    -0.981006168728E+03   -0.50196E-05   -0.51761E-05  5064   0.760E-05-0.115E-05
 gam= 0.616 trial= 0.555  step= 0.523 mean= 0.555
 final diagonalization
   1 F= -.98100617E+03 E0= -.98099858E+03  d E =-.151810E-01
 writing wavefunctions
Warning: ieee_invalid is signaling
Warning: ieee_divide_by_zero is signaling
Warning: ieee_underflow is signaling
Warning: ieee_inexact is signaling
FORTRAN STOP
Warning: ieee_invalid is signaling
Warning: ieee_divide_by_zero is signaling
Warning: ieee_underflow is signaling
Warning: ieee_inexact is signaling
FORTRAN STOP
Warning: ieee_invalid is signaling
Warning: ieee_divide_by_zero is signaling
Warning: ieee_underflow is signaling
Warning: ieee_inexact is signaling
FORTRAN STOP
Warning: ieee_invalid is signaling
Warning: ieee_divide_by_zero is signaling
Warning: ieee_underflow is signaling
Warning: ieee_inexact is signaling
FORTRAN STOP
