 vasp.6.4.2 20Jul23 (build Nov 12 2023 22:16:35) complex                         
 executed on              LinuxNV date 2025.03.11  11:28:03
 running    4 mpi-ranks, on    1 nodes
 distrk:  each k-point on    1 cores,    4 groups
 distr:  one band on NCORE=   1 cores,    1 groups
 OpenACC runtime initialized ...    4 GPUs detected


--------------------------------------------------------------------------------------------------------


 INCAR:
   PREC = Normal
   ENCUT = 450
   NELM = 500
   IBRION = -1
   ISPIN = 1
   NSW = 0
   ISIF = 2
   EDIFF = 1E-5
   EDIFFG = -5E-3
   ISTART = 0
   ICHARG = 0
   ISMEAR = 0
   SIGMA = 0.05
   LWAVE = .T.
   LCHARG = .T.
   LREAL = Auto
   LPLANE = .TRUE.
   NPAR = 1
   KPAR = 4
   NCORE = 1
   ALGO = All
   LHFCALC = .TRUE.
   HSE06 = .TRUE.
   HFSCREEN = 0.18
   TIME = 0.4
   AEXX = 0.35
   LMAXFOCK = 4
   PRECFOCK = Fast

 POTCAR:    PAW_PBE Ga_d 06Jul2010                
 POTCAR:     PAW_PBE O 08Apr2002                  
 POTCAR:    PAW_PBE P 06Sep2000                   
 POTCAR:    PAW_PBE Ga_d 06Jul2010                
   SHA256 =  a60ddf36e14f00ea098d9e3914b3745f1b7105e68786148f49ae384e44b4226c Ga_d/POTCAR           
   COPYR  = (c) Copyright 06Jul2010 Georg Kresse                                                    
   COPYR  = This file is part of the software VASP. Any use, copying, and all other rights are regul
   COPYR  = If you do not have a valid VASP license, you may not use, copy or distribute this file. 
   VRHFIN =Ga: s2p1                                                                                 
   LEXCH  = PE                                                                                      
   EATOM  =  2148.8298 eV,  157.9345 Ry                                                             
                                                                                                    
   TITEL  = PAW_PBE Ga_d 06Jul2010                                                                  
   LULTRA =        F    use ultrasoft PP ?                                                          
   IUNSCR =        1    unscreen: 0-lin 1-nonlin 2-no                                               
   RPACOR =    1.700    partial core radius                                                         
   POMASS =   69.723; ZVAL   =   13.000    mass and valenz                                          
   RCORE  =    2.300    outmost cutoff radius                                                       
   RWIGS  =    2.300; RWIGS  =    1.217    wigner-seitz radius (au A)                               
   ENMAX  =  282.691; ENMIN  =  212.018 eV                                                          
   ICORE  =        3    local potential                                                             
   LCOR   =        T    correct aug charges                                                         
   LPAW   =        T    paw PP                                                                      
   EAUG   =  490.690                                                                                
   DEXC   =    0.000                                                                                
   RMAX   =    2.341    core radius for proj-oper                                                   
   RAUG   =    1.300    factor for augmentation sphere                                              
   RDEP   =    2.413    radius for radial grids                                                     
   RDEPT  =    1.856    core radius for aug-charge                                                  
                                                                                                    
   Atomic configuration                                                                             
    9 entries                                                                                       
     n  l   j            E        occ.                                                              
     1  0  0.50    -10228.7831   2.0000                                                             
     2  0  0.50     -1262.1604   2.0000                                                             
     2  1  1.50     -1098.6333   6.0000                                                             
     3  0  0.50      -148.1110   2.0000                                                             
     3  1  1.50       -98.8436   6.0000                                                             
     3  2  2.50       -19.1549  10.0000                                                             
     4  0  0.50        -8.9483   2.0000                                                             
     4  1  0.50        -2.5791   1.0000                                                             
     4  3  2.50        -2.7416   0.0000                                                             
   Description                                                                                      
     l       E           TYP  RCUT    TYP  RCUT                                                     
     2    -19.1549037     23  2.300                                                                 
     2     -5.4423304     23  2.300                                                                 
     0     -8.9483111     23  2.300                                                                 
     0     68.0291300     23  2.300                                                                 
     1     -2.5790802     23  2.100                                                                 
     1     81.6349560     23  2.300                                                                 
     3      6.8029130     23  2.300                                                                 
  local pseudopotential read in
  partial core-charges read in
  partial kinetic energy density read in
  atomic valenz-charges read in
  non local Contribution for L=            2  read in
    real space projection operators read in
  non local Contribution for L=            2  read in
    real space projection operators read in
  non local Contribution for L=            0  read in
    real space projection operators read in
  non local Contribution for L=            0  read in
    real space projection operators read in
  non local Contribution for L=            1  read in
    real space projection operators read in
  non local Contribution for L=            1  read in
    real space projection operators read in
    PAW grid and wavefunctions read in
 
   number of l-projection  operators is LMAX  =            6
   number of lm-projection operators is LMMAX =           18
 
 POTCAR:     PAW_PBE O 08Apr2002                  
   SHA256 =  818f92134a0a090dccd8ba1447fa70422a3b330e708bb4f08108d8ae51209ddf O/POTCAR              
   COPYR  = (c) Copyright 08Apr2002 Georg Kresse                                                    
   COPYR  = This file is part of the software VASP. Any use, copying, and all other rights are regul
   COPYR  = If you do not have a valid VASP license, you may not use, copy or distribute this file. 
   VRHFIN =O: s2p4                                                                                  
   LEXCH  = PE                                                                                      
   EATOM  =   432.3788 eV,   31.7789 Ry                                                             
                                                                                                    
   TITEL  = PAW_PBE O 08Apr2002                                                                     
   LULTRA =        F    use ultrasoft PP ?                                                          
   IUNSCR =        1    unscreen: 0-lin 1-nonlin 2-no                                               
   RPACOR =    1.200    partial core radius                                                         
   POMASS =   16.000; ZVAL   =    6.000    mass and valenz                                          
   RCORE  =    1.520    outmost cutoff radius                                                       
   RWIGS  =    1.550; RWIGS  =    0.820    wigner-seitz radius (au A)                               
   ENMAX  =  400.000; ENMIN  =  300.000 eV                                                          
   ICORE  =        2    local potential                                                             
   LCOR   =        T    correct aug charges                                                         
   LPAW   =        T    paw PP                                                                      
   EAUG   =  605.392                                                                                
   DEXC   =    0.000                                                                                
   RMAX   =    1.553    core radius for proj-oper                                                   
   RAUG   =    1.300    factor for augmentation sphere                                              
   RDEP   =    1.550    radius for radial grids                                                     
   RDEPT  =    1.329    core radius for aug-charge                                                  
                                                                                                    
   Atomic configuration                                                                             
    4 entries                                                                                       
     n  l   j            E        occ.                                                              
     1  0  0.50      -514.6923   2.0000                                                             
     2  0  0.50       -23.9615   2.0000                                                             
     2  1  0.50        -9.0305   4.0000                                                             
     3  2  1.50        -9.5241   0.0000                                                             
   Description                                                                                      
     l       E           TYP  RCUT    TYP  RCUT                                                     
     0    -23.9615318     23  1.200                                                                 
     0     -9.5240782     23  1.200                                                                 
     1     -9.0304911     23  1.520                                                                 
     1      8.1634956     23  1.520                                                                 
     2     -9.5240782      7  1.500                                                                 
  local pseudopotential read in
  partial core-charges read in
  partial kinetic energy density read in
  kinetic energy density of atom read in
  atomic valenz-charges read in
  non local Contribution for L=            0  read in
    real space projection operators read in
  non local Contribution for L=            0  read in
    real space projection operators read in
  non local Contribution for L=            1  read in
    real space projection operators read in
  non local Contribution for L=            1  read in
    real space projection operators read in
    PAW grid and wavefunctions read in
 
   number of l-projection  operators is LMAX  =            4
   number of lm-projection operators is LMMAX =            8
 
 POTCAR:    PAW_PBE P 06Sep2000                   
   SHA256 =  df60c54a93efe35c9e85ae94c010c75e9f6960a95d5595d7cdba4096d109af88 P/POTCAR              
   COPYR  = (c) Copyright 06Sep2000 Georg Kresse                                                    
   COPYR  = This file is part of the software VASP. Any use, copying, and all other rights are regul
   COPYR  = If you do not have a valid VASP license, you may not use, copy or distribute this file. 
   VRHFIN =P : s2p3                                                                                 
   LEXCH  = PE                                                                                      
   EATOM  =   176.0430 eV,   12.9388 Ry                                                             
                                                                                                    
   TITEL  = PAW_PBE P 06Sep2000                                                                     
   LULTRA =        F    use ultrasoft PP ?                                                          
   IUNSCR =        1    unscreen: 0-lin 1-nonlin 2-no                                               
   RPACOR =    1.500    partial core radius                                                         
   POMASS =   30.974; ZVAL   =    5.000    mass and valenz                                          
   RCORE  =    1.900    outmost cutoff radius                                                       
   RWIGS  =    2.330; RWIGS  =    1.233    wigner-seitz radius (au A)                               
   ENMAX  =  255.040; ENMIN  =  191.280 eV                                                          
   ICORE  =        2    local potential                                                             
   LCOR   =        T    correct aug charges                                                         
   LPAW   =        T    paw PP                                                                      
   EAUG   =  342.924                                                                                
   DEXC   =    0.000                                                                                
   RMAX   =    1.935    core radius for proj-oper                                                   
   RAUG   =    1.300    factor for augmentation sphere                                              
   RDEP   =    1.931    radius for radial grids                                                     
   RDEPT  =    1.794    core radius for aug-charge                                                  
                                                                                                    
   Atomic configuration                                                                             
    6 entries                                                                                       
     n  l   j            E        occ.                                                              
     1  0  0.50     -2084.0982   2.0000                                                             
     2  0  0.50      -173.9859   2.0000                                                             
     2  1  1.50      -124.4865   6.0000                                                             
     3  0  0.50       -13.9692   2.0000                                                             
     3  1  0.50        -5.5067   3.0000                                                             
     3  2  1.50        -5.4423   0.0000                                                             
   Description                                                                                      
     l       E           TYP  RCUT    TYP  RCUT                                                     
     0    -13.9691527     23  1.900                                                                 
     0    -11.7794650     23  1.900                                                                 
     1     -5.5066937     23  1.900                                                                 
     1     -0.2556953     23  1.900                                                                 
     2     -5.4423304     23  1.900                                                                 
  local pseudopotential read in
  partial core-charges read in
  partial kinetic energy density read in
  atomic valenz-charges read in
  non local Contribution for L=            0  read in
    real space projection operators read in
  non local Contribution for L=            0  read in
    real space projection operators read in
  non local Contribution for L=            1  read in
    real space projection operators read in
  non local Contribution for L=            1  read in
    real space projection operators read in
    PAW grid and wavefunctions read in
 
   number of l-projection  operators is LMAX  =            4
   number of lm-projection operators is LMMAX =            8
 
 Optimization of the real space projectors (new method)

 maximal supplied QI-value         = 16.25
 optimisation between [QCUT,QGAM] = [ 10.73, 21.61] = [ 32.22,130.83] Ry 
 Optimized for a Real-space Cutoff    1.42 Angstroem

   l    n(q)    QCUT    max X(q) W(low)/X(q) W(high)/X(q)  e(spline) 
   2      8    10.726     7.143    0.22E-03    0.16E-03    0.73E-07
   2      8    10.726     5.586    0.40E-03    0.26E-03    0.10E-06
   0      9    10.726    12.382    0.25E-04    0.21E-05    0.37E-07
   0      9    10.726     6.622    0.42E-04    0.48E-05    0.77E-07
   1      9    10.726     7.935    0.27E-03    0.13E-04    0.16E-06
   1      9    10.726     2.425    0.23E-03    0.15E-04    0.14E-06
 Optimization of the real space projectors (new method)

 maximal supplied QI-value         = 24.76
 optimisation between [QCUT,QGAM] = [ 10.64, 21.54] = [ 31.73,129.89] Ry 
 Optimized for a Real-space Cutoff    1.23 Angstroem

   l    n(q)    QCUT    max X(q) W(low)/X(q) W(high)/X(q)  e(spline) 
   0      8    10.645    20.381    0.38E-03    0.60E-03    0.15E-06
   0      8    10.645    15.268    0.40E-03    0.65E-03    0.17E-06
   1      7    10.645     5.964    0.30E-03    0.63E-03    0.18E-06
   1      7    10.645     5.382    0.24E-03    0.53E-03    0.16E-06
 Optimization of the real space projectors (new method)

 maximal supplied QI-value         = 19.84
 optimisation between [QCUT,QGAM] = [ 10.71, 21.63] = [ 32.15,130.99] Ry 
 Optimized for a Real-space Cutoff    1.19 Angstroem

   l    n(q)    QCUT    max X(q) W(low)/X(q) W(high)/X(q)  e(spline) 
   0      8    10.715   160.924    0.37E-03    0.37E-04    0.63E-07
   0      8    10.715   130.086    0.37E-03    0.36E-04    0.63E-07
   1      7    10.715    74.434    0.19E-03    0.56E-03    0.65E-07
   1      7    10.715    49.120    0.19E-03    0.55E-03    0.63E-07
  PAW_PBE Ga_d 06Jul2010                :
 energy of atom  1       EATOM=-2148.8298
 kinetic energy error for atom=    0.0038 (will be added to EATOM!!)
   PAW_PBE O 08Apr2002                  :
 energy of atom  2       EATOM= -432.3788
 kinetic energy error for atom=    0.0389 (will be added to EATOM!!)
  PAW_PBE P 06Sep2000                   :
 energy of atom  3       EATOM= -176.0430
 kinetic energy error for atom=    0.0019 (will be added to EATOM!!)
 
 
 POSCAR: Ga48 O72
  positions in direct lattice
  velocities in cartesian coordinates
 exchange correlation table for  LEXCH =        8
   RHO(1)=    0.500       N(1)  =     2000
   RHO(2)=  100.500       N(2)  =     4000
 


--------------------------------------------------------------------------------------------------------


 ion  position               nearest neighbor table
   1  0.659  0.000  0.156-  85 1.94  83 1.95  79 1.95  67 2.01  61 2.08  65 2.08
   2  0.659  0.000  0.656-  86 1.94  84 1.95  80 1.95  68 2.02  62 2.08  66 2.08
   3  0.659  0.334  0.156-  87 1.94  81 1.94  79 1.95  69 2.00  63 2.08  61 2.08
   4  0.658  0.333  0.656-  88 1.94  82 1.95  80 1.95  70 2.03  64 2.07  62 2.07
   5  0.659  0.666  0.156-  89 1.94  81 1.94  83 1.95  71 2.00  63 2.08  65 2.08
   6  0.658  0.667  0.656-  90 1.94  82 1.95  84 1.95  72 2.03  64 2.07  66 2.07
   7  0.837  0.168  0.343-  91 1.92  75 1.95  73 1.95  61 1.99  69 2.08  67 2.09
   8  0.840  0.167  0.842-  92 1.94  74 1.95  76 1.95  62 2.02  70 2.06  68 2.08
   9  0.840  0.500  0.343-  93 1.94  77 1.96  75 1.96  63 2.02  71 2.07  69 2.07
  10  0.840  0.500  0.843-  94 1.94  78 1.95  76 1.95  64 2.01  72 2.08  70 2.08
  11  0.837  0.832  0.343-  95 1.92  77 1.95  73 1.95  65 1.99  71 2.08  67 2.09
  12  0.840  0.833  0.842-  96 1.94  74 1.95  78 1.95  66 2.02  72 2.06  68 2.08
  13  0.590  0.167  0.398-  80 1.84  55 1.84  57 1.84  61 1.87
  14  0.592  0.167  0.898-  58 1.84  79 1.84  56 1.84  62 1.87
  15  0.591  0.500  0.398-  82 1.84  59 1.85  57 1.85  63 1.87
  16  0.595  0.500  0.899-  81 1.83  60 1.84  58 1.84  64 1.87
  17  0.590  0.833  0.398-  84 1.84  55 1.84  59 1.84  65 1.87
  18  0.592  0.833  0.898-  60 1.84  83 1.84  56 1.84  66 1.87
  19  0.906  0.000  0.100-  74 1.83  53 1.85  49 1.85  67 1.87
  20  0.910  0.000  0.602-  73 1.84  54 1.85  50 1.85  68 1.87
  21  0.908  0.333  0.103-  76 1.84  51 1.85  49 1.85  69 1.87
  22  0.908  0.334  0.602-  75 1.84  52 1.85  50 1.85  70 1.87
  23  0.908  0.667  0.103-  78 1.84  51 1.85  53 1.85  71 1.87
  24  0.908  0.666  0.602-  77 1.84  52 1.85  54 1.85  72 1.87
  25  0.159  0.166  0.153- 116 1.93  49 1.96 115 1.96  97 2.01 103 2.04  99 2.11
  26  0.161  0.178  0.663-  50 1.96 117 1.96 100 1.99 104 2.10  98 2.12 120 2.29
  27  0.157  0.500  0.159-  51 1.94 116 1.96 118 1.96 105 2.03 101 2.07  99 2.07
  28  0.159  0.500  0.659- 117 1.92 119 1.92  52 1.95 106 2.04 102 2.07 100 2.07
  29  0.159  0.834  0.153- 118 1.93  53 1.96 115 1.96  97 2.01 107 2.04 101 2.11
  30  0.161  0.822  0.663-  54 1.96 119 1.96 102 1.99 108 2.10  98 2.12 120 2.29
  31  0.341  0.000  0.340-  55 1.94 109 1.97 113 1.97 103 2.05 107 2.05  97 2.06
  32  0.342  0.000  0.848-  56 1.94 110 1.96 114 1.96  98 2.02 104 2.08 108 2.08
  33  0.340  0.335  0.343-  57 1.95 111 1.95 109 1.96  99 2.02 105 2.06 103 2.08
  34  0.345  0.335  0.848-  58 1.94 112 1.94 110 1.96 104 1.99 100 2.07 106 2.07
  35  0.340  0.665  0.343-  59 1.95 111 1.95 113 1.96 101 2.02 105 2.06 107 2.08
  36  0.345  0.665  0.848-  60 1.94 112 1.94 114 1.96 108 1.99 102 2.07 106 2.07
  37  0.076  0.000  0.372-  91 1.84  95 1.84  97 1.87 120 2.19
  38  0.090  0.000  0.896- 115 1.83  96 1.85  92 1.85  98 1.86
  39  0.090  0.333  0.399- 117 1.84  93 1.85  91 1.85  99 1.88
  40  0.089  0.333  0.899- 116 1.84  94 1.84  92 1.84 100 1.87
  41  0.090  0.667  0.399- 119 1.84  93 1.85  95 1.85 101 1.88
  42  0.089  0.667  0.899- 118 1.84  94 1.84  96 1.84 102 1.87
  43  0.410  0.167  0.104- 110 1.83  85 1.84  87 1.84 103 1.87
  44  0.409  0.166  0.606-  86 1.85  88 1.85 109 1.87 104 1.88 120 2.91
  45  0.409  0.500  0.105- 112 1.84  89 1.84  87 1.84 105 1.87
  46  0.408  0.500  0.604- 111 1.84  90 1.85  88 1.85 106 1.87
  47  0.410  0.833  0.104- 114 1.83  85 1.84  89 1.84 107 1.87
  48  0.409  0.834  0.606-  86 1.85  90 1.85 113 1.87 108 1.88 120 2.91
  49  0.995  0.166  0.124-  21 1.85  19 1.85  25 1.96
  50  0.997  0.167  0.626-  20 1.85  22 1.85  26 1.96
  51  0.995  0.500  0.127-  21 1.85  23 1.85  27 1.94
  52  0.995  0.500  0.629-  22 1.85  24 1.85  28 1.95
  53  0.995  0.834  0.124-  23 1.85  19 1.85  29 1.96
  54  0.997  0.833  0.626-  20 1.85  24 1.85  30 1.96
  55  0.503  0.000  0.372-  13 1.84  17 1.84  31 1.94
  56  0.505  0.000  0.876-  14 1.84  18 1.84  32 1.94
  57  0.503  0.334  0.373-  13 1.84  15 1.85  33 1.95
  58  0.507  0.335  0.877-  16 1.84  14 1.84  34 1.94
  59  0.503  0.666  0.373-  17 1.84  15 1.85  35 1.95
  60  0.507  0.665  0.877-  16 1.84  18 1.84  36 1.94
  61  0.671  0.167  0.280-  13 1.87   7 1.99   1 2.08   3 2.08
  62  0.672  0.167  0.780-  14 1.87   8 2.02   4 2.07   2 2.08
  63  0.672  0.500  0.281-  15 1.87   9 2.02   3 2.08   5 2.08
  64  0.673  0.500  0.780-  16 1.87  10 2.01   4 2.07   6 2.07
  65  0.671  0.833  0.280-  17 1.87  11 1.99   1 2.08   5 2.08
  66  0.672  0.833  0.780-  18 1.87  12 2.02   6 2.07   2 2.08
  67  0.826  0.000  0.218-  19 1.87   1 2.01  11 2.09   7 2.09
  68  0.828  0.000  0.718-  20 1.87   2 2.02  12 2.08   8 2.08
  69  0.825  0.334  0.219-  21 1.87   3 2.00   9 2.07   7 2.08
  70  0.827  0.333  0.719-  22 1.87   4 2.03   8 2.06  10 2.08
  71  0.825  0.666  0.219-  23 1.87   5 2.00   9 2.07  11 2.08
  72  0.827  0.667  0.719-  24 1.87   6 2.03  12 2.06  10 2.08
  73  0.832  0.000  0.445-  20 1.84  11 1.95   7 1.95
  74  0.830  0.000  0.943-  19 1.83  12 1.95   8 1.95
  75  0.830  0.334  0.446-  22 1.84   7 1.95   9 1.96
  76  0.832  0.333  0.946-  21 1.84  10 1.95   8 1.95
  77  0.830  0.666  0.446-  24 1.84  11 1.95   9 1.96
  78  0.832  0.667  0.946-  23 1.84  10 1.95  12 1.95
  79  0.669  0.167  0.055-  14 1.84   1 1.95   3 1.95
  80  0.668  0.167  0.554-  13 1.84   2 1.95   4 1.95
  81  0.670  0.500  0.055-  16 1.83   5 1.94   3 1.94
  82  0.668  0.500  0.554-  15 1.84   6 1.95   4 1.95
  83  0.669  0.833  0.055-  18 1.84   1 1.95   5 1.95
  84  0.668  0.833  0.554-  17 1.84   2 1.95   6 1.95
  85  0.497  0.000  0.129-  43 1.84  47 1.84   1 1.94
  86  0.498  0.000  0.629-  44 1.85  48 1.85   2 1.94
  87  0.497  0.334  0.129-  45 1.84  43 1.84   3 1.94
  88  0.496  0.334  0.627-  46 1.85  44 1.85   4 1.94
  89  0.497  0.666  0.129-  45 1.84  47 1.84   5 1.94
  90  0.496  0.666  0.627-  46 1.85  48 1.85   6 1.94
  91  0.996  0.172  0.363-  37 1.84  39 1.85   7 1.92
  92  0.003  0.167  0.871-  40 1.84  38 1.85   8 1.94
  93  0.002  0.500  0.373-  39 1.85  41 1.85   9 1.94
  94  0.003  0.500  0.873-  40 1.84  42 1.84  10 1.94
  95  0.996  0.828  0.363-  37 1.84  41 1.85  11 1.92
  96  0.003  0.833  0.871-  42 1.84  38 1.85  12 1.94
  97  0.171  0.000  0.268-  37 1.87  29 2.01  25 2.01  31 2.06
  98  0.175  0.000  0.783-  38 1.86  32 2.02  26 2.12  30 2.12
  99  0.172  0.332  0.281-  39 1.88  33 2.02  27 2.07  25 2.11
 100  0.173  0.335  0.783-  40 1.87  26 1.99  28 2.07  34 2.07
 101  0.172  0.668  0.281-  41 1.88  35 2.02  27 2.07  29 2.11
 102  0.173  0.665  0.783-  42 1.87  30 1.99  28 2.07  36 2.07
 103  0.328  0.168  0.220-  43 1.87  25 2.04  31 2.05  33 2.08
 104  0.336  0.174  0.730-  44 1.88  34 1.99  32 2.08  26 2.10
 105  0.326  0.500  0.220-  45 1.87  27 2.03  35 2.06  33 2.06
 106  0.329  0.500  0.723-  46 1.87  28 2.04  36 2.07  34 2.07
 107  0.328  0.832  0.220-  47 1.87  29 2.04  31 2.05  35 2.08
 108  0.336  0.826  0.730-  48 1.88  36 1.99  32 2.08  30 2.10
 109  0.336  0.166  0.446-  44 1.87  33 1.96  31 1.97
 110  0.332  0.168  0.949-  43 1.83  32 1.96  34 1.96
 111  0.332  0.500  0.447-  46 1.84  35 1.95  33 1.95
 112  0.333  0.500  0.948-  45 1.84  36 1.94  34 1.94
 113  0.336  0.834  0.446-  48 1.87  35 1.96  31 1.97
 114  0.332  0.832  0.949-  47 1.83  32 1.96  36 1.96
 115  0.169  0.000  0.050-  38 1.83  29 1.96  25 1.96
 116  0.167  0.335  0.055-  40 1.84  25 1.93  27 1.96
 117  0.168  0.341  0.555-  39 1.84  28 1.92  26 1.96
 118  0.167  0.665  0.055-  42 1.84  29 1.93  27 1.96
 119  0.168  0.659  0.555-  41 1.84  28 1.92  30 1.96
 120  0.201  0.000  0.542-  37 2.19  30 2.29  26 2.29  44 2.91  48 2.91
 
  LATTYP: Found a simple monoclinic cell.
 ALAT       =    11.6348202465
 B/A-ratio  =     0.7858051831
 C/A-ratio  =     1.0554931797
 COS(beta)  =    -0.2379290539
  
  Lattice vectors:
  
 A1 = (   0.0000000000,  -2.7682617730, -11.3006977184)
 A2 = (  -9.1427020537,   0.0000000000,   0.0000000000)
 A3 = (   0.0000000000,  12.2804734172,   0.0000000000)


Analysis of symmetry for initial positions (statically):
=====================================================================
 Subroutine PRICEL returns:
 Original cell was already a primitive cell.
 

 Routine SETGRP: Setting up the symmetry group for a 
 simple monoclinic supercell.


 Subroutine GETGRP returns: Found  2 space group operations
 (whereof  2 operations were pure point group operations)
 out of a pool of  4 trial point group operations.


The static configuration has the point symmetry C_1h.


Analysis of symmetry for dynamics (positions and initial velocities):
=====================================================================
 Subroutine PRICEL returns:
 Original cell was already a primitive cell.
 

 Routine SETGRP: Setting up the symmetry group for a 
 simple monoclinic supercell.


 Subroutine GETGRP returns: Found  2 space group operations
 (whereof  2 operations were pure point group operations)
 out of a pool of  4 trial point group operations.


The dynamic configuration has the point symmetry C_1h.


 Subroutine INISYM returns: Found  2 space group operations
 (whereof  2 operations are pure point group operations),
 and found     1 'primitive' translations


----------------------------------------------------------------------------------------

                                     Primitive cell                                     

  volume of cell :    1268.8052

  direct lattice vectors                    reciprocal lattice vectors
     0.000000000 12.280473417  0.000000000     0.000000000  0.081430085 -0.019947423
     9.142702054  0.000000000  0.000000000     0.109376855 -0.000000000  0.000000000
     0.000000000 -2.768261773-11.300697718     0.000000000  0.000000000 -0.088490111

  length of vectors
    12.280473417  9.142702054 11.634820246     0.083837691  0.109376855  0.088490111

  position of ions in fractional coordinates (direct lattice)
     0.658915992  0.000000000  0.155971415
     0.659418794  0.000000000  0.656021338
     0.658740305  0.333926915  0.156288651
     0.658154332  0.333376328  0.656170845
     0.658740305  0.666073085  0.156288651
     0.658154332  0.666623672  0.656170845
     0.836756255  0.167990491  0.342708789
     0.839997285  0.167229535  0.842175955
     0.840091264  0.500000000  0.342705328
     0.840316312  0.500000000  0.843031019
     0.836756255  0.832009509  0.342708789
     0.839997285  0.832770465  0.842175955
     0.589845555  0.167159049  0.397792861
     0.592091107  0.166556088  0.898011360
     0.590756978  0.500000000  0.397893376
     0.594767158  0.500000000  0.899071136
     0.589845555  0.832840951  0.397792861
     0.592091107  0.833443912  0.898011360
     0.906075606  0.000000000  0.099567576
     0.909524062  0.000000000  0.601649151
     0.907765203  0.332926196  0.102647921
     0.907675381  0.333596215  0.601797285
     0.907765203  0.667073804  0.102647921
     0.907675381  0.666403785  0.601797285
     0.158749592  0.166332399  0.152504280
     0.160980516  0.177939686  0.663191632
     0.157266798  0.500000000  0.158959891
     0.158796046  0.500000000  0.658908396
     0.158749592  0.833667601  0.152504280
     0.160980516  0.822060314  0.663191632
     0.341216794  0.000000000  0.339833259
     0.342396865  0.000000000  0.847565352
     0.339949311  0.334549267  0.343371813
     0.345139049  0.334545844  0.847610664
     0.339949311  0.665450733  0.343371813
     0.345139049  0.665454156  0.847610664
     0.075829160  0.000000000  0.372298539
     0.089603429  0.000000000  0.895558773
     0.089943842  0.333051210  0.399105392
     0.089476375  0.333474828  0.898758413
     0.089943842  0.666948790  0.399105392
     0.089476375  0.666525172  0.898758413
     0.410428832  0.166857328  0.104254965
     0.409162438  0.165927971  0.606251626
     0.409233329  0.500000000  0.104717034
     0.407878736  0.500000000  0.603831097
     0.410428832  0.833142672  0.104254965
     0.409162438  0.834072029  0.606251626
     0.995220236  0.165840211  0.123807730
     0.996601153  0.167323003  0.625911004
     0.995136908  0.500000000  0.127444878
     0.995299109  0.500000000  0.628897303
     0.995220236  0.834159789  0.123807730
     0.996601153  0.832676997  0.625911004
     0.503412267  0.000000000  0.372333250
     0.504980675  0.000000000  0.875919085
     0.502658590  0.333776767  0.372709790
     0.507149255  0.334714559  0.876723571
     0.502658590  0.666223233  0.372709790
     0.507149255  0.665285441  0.876723571
     0.670973425  0.166647213  0.280274006
     0.672120856  0.166812800  0.779751458
     0.671597132  0.500000000  0.280649284
     0.672880736  0.500000000  0.779776627
     0.670973425  0.833352787  0.280274006
     0.672120856  0.833187200  0.779751458
     0.826386320  0.000000000  0.218457746
     0.827518509  0.000000000  0.718416482
     0.825483310  0.334367590  0.218756375
     0.826836243  0.333124362  0.719307638
     0.825483310  0.665632410  0.218756375
     0.826836243  0.666875638  0.719307638
     0.832023807  0.000000000  0.445298202
     0.829953202  0.000000000  0.943438316
     0.830135800  0.334125861  0.445776883
     0.831569584  0.333331058  0.945522237
     0.830135800  0.665874139  0.445776883
     0.831569584  0.666668942  0.945522237
     0.668592451  0.166751711  0.054706062
     0.667646644  0.166875488  0.553792123
     0.670109929  0.500000000  0.055383018
     0.667616550  0.500000000  0.554246292
     0.668592451  0.833248289  0.054706062
     0.667646644  0.833124512  0.553792123
     0.497111326  0.000000000  0.128892269
     0.497593881  0.000000000  0.629003142
     0.496853640  0.333975008  0.128770376
     0.495888708  0.333571741  0.626993363
     0.496853640  0.666024992  0.128770376
     0.495888708  0.666428259  0.626993363
     0.996444451  0.171867800  0.363459246
     0.002545891  0.166919259  0.870828129
     0.002327551  0.500000000  0.372610686
     0.002655647  0.500000000  0.873129372
     0.996444451  0.828132200  0.363459246
     0.002545891  0.833080741  0.870828129
     0.170689732  0.000000000  0.268115776
     0.174628977  0.000000000  0.782811669
     0.171848922  0.331969763  0.281462159
     0.172862555  0.335235008  0.783164739
     0.171848922  0.668030237  0.281462159
     0.172862555  0.664764992  0.783164739
     0.327654615  0.167670427  0.219873057
     0.335770261  0.173683110  0.730315761
     0.326136819  0.500000000  0.220086766
     0.328645008  0.500000000  0.722775151
     0.327654615  0.832329573  0.219873057
     0.335770261  0.826316890  0.730315761
     0.335741658  0.165718873  0.446021011
     0.332346814  0.167690774  0.949184975
     0.332357115  0.500000000  0.446504394
     0.332695031  0.500000000  0.948304560
     0.335741658  0.834281127  0.446021011
     0.332346814  0.832309226  0.949184975
     0.168944226  0.000000000  0.049804904
     0.167108925  0.334842615  0.054636490
     0.168041086  0.340593293  0.554828439
     0.167108925  0.665157385  0.054636490
     0.168041086  0.659406707  0.554828439
     0.201311320  0.000000000  0.541680004

  ion indices of the primitive-cell ions
   primitive index   ion index
                 1           1
                 2           2
                 3           3
                 4           4
                 5           5
                 6           6
                 7           7
                 8           8
                 9           9
                10          10
                11          11
                12          12
                13          13
                14          14
                15          15
                16          16
                17          17
                18          18
                19          19
                20          20
                21          21
                22          22
                23          23
                24          24
                25          25
                26          26
                27          27
                28          28
                29          29
                30          30
                31          31
                32          32
                33          33
                34          34
                35          35
                36          36
                37          37
                38          38
                39          39
                40          40
                41          41
                42          42
                43          43
                44          44
                45          45
                46          46
                47          47
                48          48
                49          49
                50          50
                51          51
                52          52
                53          53
                54          54
                55          55
                56          56
                57          57
                58          58
                59          59
                60          60
                61          61
                62          62
                63          63
                64          64
                65          65
                66          66
                67          67
                68          68
                69          69
                70          70
                71          71
                72          72
                73          73
                74          74
                75          75
                76          76
                77          77
                78          78
                79          79
                80          80
                81          81
                82          82
                83          83
                84          84
                85          85
                86          86
                87          87
                88          88
                89          89
                90          90
                91          91
                92          92
                93          93
                94          94
                95          95
                96          96
                97          97
                98          98
                99          99
               100         100
               101         101
               102         102
               103         103
               104         104
               105         105
               106         106
               107         107
               108         108
               109         109
               110         110
               111         111
               112         112
               113         113
               114         114
               115         115
               116         116
               117         117
               118         118
               119         119
               120         120

----------------------------------------------------------------------------------------

 
 
 KPOINTS: Automatic mesh                          

Automatic generation of k-mesh.
 Grid dimensions read from file:
 generate k-points for:    2    2    2

 Generating k-lattice:

  Cartesian coordinates                     Fractional coordinates (reciprocal lattice)
     0.000000000  0.040715043 -0.009973711     0.500000000  0.000000000  0.000000000
     0.054688428 -0.000000000  0.000000000     0.000000000  0.500000000  0.000000000
     0.000000000  0.000000000 -0.044245056     0.000000000  0.000000000  0.500000000

  Length of vectors
     0.041918846  0.054688428  0.044245056

  Shift w.r.t. Gamma in fractional coordinates (k-lattice)
     0.000000000  0.000000000  0.000000000

 
 Subroutine IBZKPT returns following result:
 ===========================================
 
 Found      8 irreducible k-points:
 
 Following reciprocal coordinates:
            Coordinates               Weight
  0.000000  0.000000  0.000000      1.000000
  0.500000  0.000000  0.000000      1.000000
  0.000000  0.500000  0.000000      1.000000
  0.500000  0.500000  0.000000      1.000000
  0.000000  0.000000  0.500000      1.000000
  0.500000  0.000000  0.500000      1.000000
  0.000000  0.500000  0.500000      1.000000
  0.500000  0.500000  0.500000      1.000000
 
 Following cartesian coordinates:
            Coordinates               Weight
  0.000000  0.000000 -0.000000      1.000000
  0.000000  0.040715 -0.009974      1.000000
  0.054688  0.000000 -0.000000      1.000000
  0.054688  0.040715 -0.009974      1.000000
  0.000000  0.000000 -0.044245      1.000000
  0.000000  0.040715 -0.054219      1.000000
  0.054688  0.000000 -0.044245      1.000000
  0.054688  0.040715 -0.054219      1.000000
 
 
 Subroutine IBZKPT_HF returns following result:
 ==============================================
 
 Found      8 k-points in 1st BZ
 the following      8 k-points will be used (e.g. in the exchange kernel)
 Following reciprocal coordinates:   # in IRBZ
  0.000000  0.000000  0.000000    0.12500000   1 t-inv F
  0.500000  0.000000  0.000000    0.12500000   2 t-inv F
  0.000000  0.500000  0.000000    0.12500000   3 t-inv F
  0.500000  0.500000  0.000000    0.12500000   4 t-inv F
  0.000000  0.000000  0.500000    0.12500000   5 t-inv F
  0.500000  0.000000  0.500000    0.12500000   6 t-inv F
  0.000000  0.500000  0.500000    0.12500000   7 t-inv F
  0.500000  0.500000  0.500000    0.12500000   8 t-inv F


--------------------------------------------------------------------------------------------------------




 Dimension of arrays:
   k-points           NKPTS =      8   k-points in BZ     NKDIM =      8   number of bands    NBANDS=    633
   number of dos      NEDOS =    301   number of ions     NIONS =    120
   non local maximal  LDIM  =      6   non local SUM 2l+1 LMDIM =     18
   total plane-waves  NPLWV = 184320
   max r-space proj   IRMAX =   1800   max aug-charges    IRDMAX=   5704
   dimension x,y,z NGX =    64 NGY =   48 NGZ =   60
   dimension x,y,z NGXF=   128 NGYF=   96 NGZF=  120
   support grid    NGXF=   128 NGYF=   96 NGZF=  120
   ions per type =              48  71   1
   NGX,Y,Z   is equivalent  to a cutoff of   8.66,  8.73,  8.57 a.u.
   NGXF,Y,Z  is equivalent  to a cutoff of  17.33, 17.46, 17.15 a.u.

 SYSTEM =  unknown system                          
 POSCAR =  Ga48 O72                                

 Startparameter for this run:
   NWRITE =      2    write-flag & timer
   PREC   = normal    normal or accurate (medium, high low for compatibility)
   ISTART =      0    job   : 0-new  1-cont  2-samecut
   ICHARG =      0    charge: 1-file 2-atom 10-const
   ISPIN  =      1    spin polarized calculation?
   LNONCOLLINEAR =      F non collinear calculations
   LSORBIT =      F    spin-orbit coupling
   INIWAV =      1    electr: 0-lowe 1-rand  2-diag
   LASPH  =      F    aspherical Exc in radial PAW
 Electronic Relaxation 1
   ENCUT  =  450.0 eV  33.07 Ry    5.75 a.u.  21.24 15.81 20.12*2*pi/ulx,y,z
   ENINI  =  450.0     initial cutoff
   ENAUG  =  605.4 eV  augmentation charge cutoff
   NELM   =    500;   NELMIN=  2; NELMDL= -5     # of ELM steps 
   EDIFF  = 0.1E-04   stopping-criterion for ELM
   LREAL  =      T    real-space projection
   NLSPLINE    = F    spline interpolate recip. space projectors
   LCOMPAT=      F    compatible to vasp.4.4
   GGA_COMPAT  = T    GGA compatible to vasp.4.4-vasp.4.6
   LMAXPAW     = -100 max onsite density
   LMAXMIX     =    2 max onsite mixed and CHGCAR
   VOSKOWN=      0    Vosko Wilk Nusair interpolation
   ROPT   =   -0.00050  -0.00050  -0.00050
 Ionic relaxation
   EDIFFG = -.5E-02   stopping-criterion for IOM
   NSW    =      0    number of steps for IOM
   NBLOCK =      1;   KBLOCK =      1    inner block; outer block 
   IBRION =     -1    ionic relax: 0-MD 1-quasi-New 2-CG
   NFREE  =      0    steps in history (QN), initial steepest desc. (CG)
   ISIF   =      2    stress and relaxation
   IWAVPR =     10    prediction:  0-non 1-charg 2-wave 3-comb
   ISYM   =      3    0-nonsym 1-usesym 2-fastsym
   LCORR  =      T    Harris-Foulkes like correction to forces

   POTIM  = 0.5000    time-step for ionic-motion
   TEIN   =    0.0    initial temperature
   TEBEG  =    0.0;   TEEND  =   0.0 temperature during run
   SMASS  =  -3.00    Nose mass-parameter (am)
   estimated Nose-frequenzy (Omega)   =  0.10E-29 period in steps = 0.13E+47 mass=  -0.345E-26a.u.
   SCALEE = 1.0000    scale energy and forces
   NPACO  =    256;   APACO  = 10.0  distance and # of slots for P.C.
   PSTRESS=    0.0 pullay stress

  Mass of Ions in am
   POMASS =  69.72 16.00 30.97
  Ionic Valenz
   ZVAL   =  13.00  6.00  5.00
  Atomic Wigner-Seitz radii
   RWIGS  =  -1.00 -1.00 -1.00
  virtual crystal weights 
   VCA    =   1.00  1.00  1.00
   NELECT =    1055.0000    total number of electrons
   NUPDOWN=      -1.0000    fix difference up-down

 DOS related values:
   EMIN   =  10.00;   EMAX   =-10.00  energy-range for DOS
   EFERMI =   0.00;   METHOD = LEGACY      
   ISMEAR =     0;   SIGMA  =   0.05  broadening in eV -4-tet -1-fermi 0-gaus

 Electronic relaxation 2 (details)
   IALGO  =     58    algorithm
   LDIAG  =      T    sub-space diagonalisation (order eigenvalues)
   LSUBROT=      F    optimize rotation matrix (better conditioning)
   TURBO    =      0    0=normal 1=particle mesh
   IRESTART =      0    0=no restart 2=restart with 2 vectors
   NREBOOT  =      0    no. of reboots
   NMIN     =      0    reboot dimension
   EREF     =   0.00    reference energy to select bands
   IMIX   =      4    mixing-type and parameters
     AMIX     =   0.40;   BMIX     =  1.00
     AMIX_MAG =   1.60;   BMIX_MAG =  1.00
     AMIN     =   0.10
     WC   =   100.;   INIMIX=   1;  MIXPRE=   1;  MAXMIX= -45

 Intra band minimization:
   WEIMIN = 0.0000     energy-eigenvalue tresh-hold
   EBREAK =  0.39E-08  absolut break condition
   DEPER  =   0.30     relativ break condition  

   TIME   =   0.40     timestep for ELM

  volume/ion in A,a.u.               =      10.57        71.35
  Fermi-wavevector in a.u.,A,eV,Ry     =   1.539433  2.909106 32.243803  2.369853
  Thomas-Fermi vector in A             =   2.645661
 
 Write flags
   LWAVE        =      T    write WAVECAR
   LDOWNSAMPLE  =      F    k-point downsampling of WAVECAR
   LCHARG       =      T    write CHGCAR
   LVTOT        =      F    write LOCPOT, total local potential
   LVHAR        =      F    write LOCPOT, Hartree potential only
   LELF         =      F    write electronic localiz. function (ELF)
   LORBIT       =      0    0 simple, 1 ext, 2 COOP (PROOUT), +10 PAW based schemes


 Dipole corrections
   LMONO  =      F    monopole corrections only (constant potential shift)
   LDIPOL =      F    correct potential (dipole corrections)
   IDIPOL =      0    1-x, 2-y, 3-z, 4-all directions 
   EPSILON=  1.0000000 bulk dielectric constant

 Exchange correlation treatment:
   GGA     =    --    GGA type
   LEXCH   =     8    internal setting for exchange type
   LIBXC   =     F    Libxc                    
   VOSKOWN =     0    Vosko Wilk Nusair interpolation
   EXXOEP  =     0    0=HF, 1=EXX-LHF (local Hartree Fock) 2=EXX OEP
   LHFCALC =     T    Hartree Fock is set to
   LSYMGRAD=     F    symmetrize gradient (conserves proper symmetry)
   PRECFOCK=fast      Normal, Fast or Accurate (Low or Medium for compatibility)
   LRHFCALC=     F    long range Hartree Fock
   LRSCOR  =     F    long range correlation only (use DFT for short range part)
   LTHOMAS =     F    Thomas Fermi screening in HF
   LMODELHF=     F    short range full HF, long range fraction AEXX
   FOCKCORR=     1    mode to apply convergence corrections
   LFOCKACE=     T    use Adeptively-Compressed-Exchange operator
   ENCUT4O =  -1.0   cutoff for four orbital integrals eV
   LMAXFOCK=     4    L truncation for augmentation on plane wave grid
   LMAXFOCKAE=  -1    L truncation for all-electron charge restoration on plane wave grid
   NMAXFOCKAE=   1    number of basis functions for all-electron charge restoration
   LFOCKAEDFT=     F  apply the AE augmentation even for DFT
   NKREDX  =     1    reduce k-point grid by
   NKREDY  =     1    reduce k-point grid by
   NKREDZ  =     1    reduce k-point grid by
   SHIFTRED=     F    shift reduced grid of Gamma
   HFKIDENT=     F    idential grid for each k-point
   ODDONLY =     F    use only odd q-grid points
   EVENONLY=     F    use only even q-grid points
   HFALPHA =   -1.0000 decay constant for conv. correction
   MCALPHA =    0.0000 extent of test-charge in conv. correction in multipole expansion
   AEXX    =    0.3500 exact exchange contribution
   HFSCREEN=    0.1800 screening length (either q_TF or 0.3 A-1)
   HFSCREENC=   0.1800 screening length for correlation (either q_TF or 0.3 A-1)
   HFRCUT  =    0.0000 spherical cutoff for potential kernel
   ALDAX   =    0.6500 LDA exchange part
   AGGAX   =    0.6500 GGA exchange part
   ALDAC   =    1.0000 LDA correlation
   AGGAC   =    1.0000 GGA correlation
   ENCUTFOCK=  -1.0 apply spherical cutoff to Coloumb kernel
   NBANDSGWLOW=     1    first orbital included in HF term
   NBLOCK_FOCK=    64    blocking factor in FOCK_ACC

 Linear response parameters
   LEPSILON=     F    determine dielectric tensor
   LRPA    =     F    only Hartree local field effects (RPA)
   LNABLA  =     F    use nabla operator in PAW spheres
   LVEL    =     F    velocity operator in full k-point grid
   CSHIFT  =0.1000    complex shift for real part using Kramers Kronig
   OMEGAMAX=  -1.0    maximum frequency
   DEG_THRESHOLD= 0.2000000E-02 threshold for treating states as degnerate
   RTIME   =   -0.100 relaxation time in fs
  (WPLASMAI=    0.000 imaginary part of plasma frequency in eV, 0.658/RTIME)
   DFIELD  = 0.0000000 0.0000000 0.0000000 field for delta impulse in time
 
  Optional k-point grid parameters
   LKPOINTS_OPT  =     F    use optional k-point grid
   KPOINTS_OPT_MODE=     1    mode for optional k-point grid
 
 Orbital magnetization related:
   ORBITALMAG=     F  switch on orbital magnetization
   LCHIMAG   =     F  perturbation theory with respect to B field
   DQ        =  0.001000  dq finite difference perturbation B field
   LLRAUG    =     F  two centre corrections for induced B field
   LBONE     =     F  B-component reconstruction in AE one-centre
   LVGVCALC  =     T  calculate vGv susceptibility
   LVGVAPPL  =     F  apply vGv susceptibility instead of pGv for G=0

 Random number generation:
   RANDOM_GENERATOR = DEFAULT
   PCG_SEED         = not used


--------------------------------------------------------------------------------------------------------


 Static calculation
 charge density and potential will be updated during run
 non-spin polarized calculation
 Conjugate gradient for all bands (Freysoldt, et al. PRB 79, 241103 (2009))
 preconditioned conjugated gradient                                        
 perform sub-space diagonalisation
    before iterative eigenvector-optimisation
 modified Broyden-mixing scheme, WC =      100.0
 initial mixing is a Kerker type mixing with AMIX =  0.4000 and BMIX =      1.0000
 Hartree-type preconditioning will be used
 using additional bands           105
 real space projection scheme for non local part
 use partial core corrections
 no Harris-corrections to forces 
 use gradient corrections 
 use of overlap-Matrix (Vanderbilt PP)
 Gauss-broadening in eV      SIGMA  =   0.05


--------------------------------------------------------------------------------------------------------


  energy-cutoff  :      450.00
  volume of cell :     1268.81
      direct lattice vectors                 reciprocal lattice vectors
     0.000000000 12.280473417  0.000000000     0.000000000  0.081430085 -0.019947423
     9.142702054  0.000000000  0.000000000     0.109376855 -0.000000000  0.000000000
     0.000000000 -2.768261773-11.300697718     0.000000000  0.000000000 -0.088490111

  length of vectors
    12.280473417  9.142702054 11.634820246     0.083837691  0.109376855  0.088490111


 
 k-points in units of 2pi/SCALE and weight: Automatic mesh                          
   0.00000000  0.00000000 -0.00000000       0.125
   0.00000000  0.04071504 -0.00997371       0.125
   0.05468843  0.00000000 -0.00000000       0.125
   0.05468843  0.04071504 -0.00997371       0.125
   0.00000000  0.00000000 -0.04424506       0.125
   0.00000000  0.04071504 -0.05421877       0.125
   0.05468843  0.00000000 -0.04424506       0.125
   0.05468843  0.04071504 -0.05421877       0.125
 
 k-points in reciprocal lattice and weights: Automatic mesh                          
   0.00000000  0.00000000  0.00000000       0.125
   0.50000000  0.00000000  0.00000000       0.125
   0.00000000  0.50000000  0.00000000       0.125
   0.50000000  0.50000000  0.00000000       0.125
   0.00000000  0.00000000  0.50000000       0.125
   0.50000000  0.00000000  0.50000000       0.125
   0.00000000  0.50000000  0.50000000       0.125
   0.50000000  0.50000000  0.50000000       0.125
 
 position of ions in fractional coordinates (direct lattice) 
   0.65891599  0.00000000  0.15597142
   0.65941879  0.00000000  0.65602134
   0.65874031  0.33392692  0.15628865
   0.65815433  0.33337633  0.65617085
   0.65874031  0.66607308  0.15628865
   0.65815433  0.66662367  0.65617085
   0.83675626  0.16799049  0.34270879
   0.83999728  0.16722953  0.84217595
   0.84009126  0.50000000  0.34270533
   0.84031631  0.50000000  0.84303102
   0.83675626  0.83200951  0.34270879
   0.83999728  0.83277047  0.84217595
   0.58984556  0.16715905  0.39779286
   0.59209111  0.16655609  0.89801136
   0.59075698  0.50000000  0.39789338
   0.59476716  0.50000000  0.89907114
   0.58984556  0.83284095  0.39779286
   0.59209111  0.83344391  0.89801136
   0.90607561  0.00000000  0.09956758
   0.90952406  0.00000000  0.60164915
   0.90776520  0.33292620  0.10264792
   0.90767538  0.33359622  0.60179729
   0.90776520  0.66707380  0.10264792
   0.90767538  0.66640378  0.60179729
   0.15874959  0.16633240  0.15250428
   0.16098052  0.17793969  0.66319163
   0.15726680  0.50000000  0.15895989
   0.15879605  0.50000000  0.65890840
   0.15874959  0.83366760  0.15250428
   0.16098052  0.82206031  0.66319163
   0.34121679  0.00000000  0.33983326
   0.34239687  0.00000000  0.84756535
   0.33994931  0.33454927  0.34337181
   0.34513905  0.33454584  0.84761066
   0.33994931  0.66545073  0.34337181
   0.34513905  0.66545416  0.84761066
   0.07582916  0.00000000  0.37229854
   0.08960343  0.00000000  0.89555877
   0.08994384  0.33305121  0.39910539
   0.08947637  0.33347483  0.89875841
   0.08994384  0.66694879  0.39910539
   0.08947637  0.66652517  0.89875841
   0.41042883  0.16685733  0.10425497
   0.40916244  0.16592797  0.60625163
   0.40923333  0.50000000  0.10471703
   0.40787874  0.50000000  0.60383110
   0.41042883  0.83314267  0.10425497
   0.40916244  0.83407203  0.60625163
   0.99522024  0.16584021  0.12380773
   0.99660115  0.16732300  0.62591100
   0.99513691  0.50000000  0.12744488
   0.99529911  0.50000000  0.62889730
   0.99522024  0.83415979  0.12380773
   0.99660115  0.83267700  0.62591100
   0.50341227  0.00000000  0.37233325
   0.50498067  0.00000000  0.87591909
   0.50265859  0.33377677  0.37270979
   0.50714925  0.33471456  0.87672357
   0.50265859  0.66622323  0.37270979
   0.50714925  0.66528544  0.87672357
   0.67097342  0.16664721  0.28027401
   0.67212086  0.16681280  0.77975146
   0.67159713  0.50000000  0.28064928
   0.67288074  0.50000000  0.77977663
   0.67097342  0.83335279  0.28027401
   0.67212086  0.83318720  0.77975146
   0.82638632  0.00000000  0.21845775
   0.82751851  0.00000000  0.71841648
   0.82548331  0.33436759  0.21875638
   0.82683624  0.33312436  0.71930764
   0.82548331  0.66563241  0.21875638
   0.82683624  0.66687564  0.71930764
   0.83202381  0.00000000  0.44529820
   0.82995320  0.00000000  0.94343832
   0.83013580  0.33412586  0.44577688
   0.83156958  0.33333106  0.94552224
   0.83013580  0.66587414  0.44577688
   0.83156958  0.66666894  0.94552224
   0.66859245  0.16675171  0.05470606
   0.66764664  0.16687549  0.55379212
   0.67010993  0.50000000  0.05538302
   0.66761655  0.50000000  0.55424629
   0.66859245  0.83324829  0.05470606
   0.66764664  0.83312451  0.55379212
   0.49711133  0.00000000  0.12889227
   0.49759388  0.00000000  0.62900314
   0.49685364  0.33397501  0.12877038
   0.49588871  0.33357174  0.62699336
   0.49685364  0.66602499  0.12877038
   0.49588871  0.66642826  0.62699336
   0.99644445  0.17186780  0.36345925
   0.00254589  0.16691926  0.87082813
   0.00232755  0.50000000  0.37261069
   0.00265565  0.50000000  0.87312937
   0.99644445  0.82813220  0.36345925
   0.00254589  0.83308074  0.87082813
   0.17068973  0.00000000  0.26811578
   0.17462898  0.00000000  0.78281167
   0.17184892  0.33196976  0.28146216
   0.17286256  0.33523501  0.78316474
   0.17184892  0.66803024  0.28146216
   0.17286256  0.66476499  0.78316474
   0.32765462  0.16767043  0.21987306
   0.33577026  0.17368311  0.73031576
   0.32613682  0.50000000  0.22008677
   0.32864501  0.50000000  0.72277515
   0.32765462  0.83232957  0.21987306
   0.33577026  0.82631689  0.73031576
   0.33574166  0.16571887  0.44602101
   0.33234681  0.16769077  0.94918498
   0.33235711  0.50000000  0.44650439
   0.33269503  0.50000000  0.94830456
   0.33574166  0.83428113  0.44602101
   0.33234681  0.83230923  0.94918498
   0.16894423  0.00000000  0.04980490
   0.16710892  0.33484262  0.05463649
   0.16804109  0.34059329  0.55482844
   0.16710892  0.66515738  0.05463649
   0.16804109  0.65940671  0.55482844
   0.20131132  0.00000000  0.54168000
 
 position of ions in cartesian coordinates  (Angst):
   0.00000000  7.66003061 -1.76258582
   0.00000000  6.28193618 -7.41349884
   3.05299429  7.65699491 -1.76617080
   3.04796044  6.26599411 -7.41518837
   6.08970776  7.65699491 -1.76617080
   6.09474162  6.26599411 -7.41518837
   1.53588701  9.32705531 -3.87284844
   1.52892981  7.98420083 -9.51717589
   4.57135103  9.36802037 -3.87280932
   4.57135103  7.98575159 -9.52683871
   7.60681504  9.32705531 -3.87284844
   7.61377224  7.98420083 -9.51717589
   1.52828538  6.14238789 -4.49533688
   1.52277269  4.78522859-10.14815492
   4.57135103  6.15330234 -4.49647277
   4.57135103  4.81515801-10.16013113
   7.61441667  6.14238789 -4.49533688
   7.61992937  4.78522859-10.14815492
   0.00000000 10.85140828 -1.12518308
   0.00000000  9.50386372 -6.79905518
   3.04384502 10.86363013 -1.15999312
   3.04997080  9.48075096 -6.80072921
   6.09885704 10.86363013 -1.15999312
   6.09273125  9.48075096 -6.80072921
   1.52072756  1.52734838 -1.72340477
   1.62684953  0.14102890 -7.49452816
   4.57135103  1.49126814 -1.79635768
   4.57135103  0.12605970 -7.44612461
   7.62197449  1.52734838 -1.72340477
   7.51585252  0.14102890 -7.49452816
   0.00000000  3.24955635 -3.84035293
   0.00000000  1.85851284 -9.57807984
   3.05868427  3.22419541 -3.88034106
   3.05865298  1.89206272 -9.57859190
   6.08401778  3.22419541 -3.88034106
   6.08404907  1.89206272 -9.57859190
   0.00000000 -0.09940183 -4.20723325
   0.00000000 -1.37876858-10.12043898
   3.04498798 -0.00027524 -4.51016939
   3.04886100 -1.38918632-10.15659715
   6.09771407 -0.00027524 -4.51016939
   6.09384106 -1.38918632-10.15659715
   1.52552684  4.75165532 -1.17815385
   1.51703000  3.34644525 -6.85106636
   4.57135103  4.73569486 -1.18337555
   4.57135103  3.33738143 -6.82371270
   7.61717522  4.75165532 -1.17815385
   7.62567206  3.34644525 -6.85106636
   1.51622764 11.87904344 -1.39911373
   1.52978437 10.50604847 -7.07323105
   4.57135103 11.86795156 -1.44021605
   4.57135103 10.48179189 -7.10697831
   7.62647441 11.87904344 -1.39911373
   7.61291769 10.50604847 -7.07323105
   0.00000000  5.15142506 -4.20762551
   0.00000000  3.77662843 -9.89849681
   3.05162153  5.14112718 -4.21188067
   3.06019548  3.80103259 -9.90758805
   6.09108052  5.14112718 -4.21188067
   6.08250657  3.80103259 -9.90758805
   1.52360582  7.46399949 -3.16729181
   1.52511973  6.09540615 -8.81173553
   4.57135103  7.47062005 -3.17153272
   4.57135103  6.10466816 -8.81201995
   7.61909624  7.46399949 -3.16729181
   7.61758233  6.09540615 -8.81173553
   0.00000000  9.54366700 -2.46872496
   0.00000000  8.17355417 -8.11860750
   3.05702325  9.53175093 -2.47209967
   3.04565679  8.16270867 -8.12867818
   6.08567880  9.53175093 -2.47209967
   6.09704527  8.16270867 -8.12867818
   0.00000000  8.98494426 -5.03218038
   0.00000000  7.58053401-10.66151122
   3.05481319  8.96043353 -5.03758981
   3.04754655  7.59461511-10.68506098
   6.08788886  8.96043353 -5.03758981
   6.09515550  7.59461511-10.68506098
   1.52456121  8.05919112 -0.61821667
   1.52569286  6.66597530 -6.25823738
   4.57135103  8.07595248 -0.62586674
   4.57135103  6.66434847 -6.26336981
   7.61814084  8.05919112 -0.61821667
   7.61700919  6.66597530 -6.25823738
   0.00000000  5.74795488 -1.45657258
   0.00000000  4.36944308 -7.10817438
   3.05343399  5.74512781 -1.45519509
   3.04974704  4.35406633 -7.08546247
   6.08926806  5.74512781 -1.45519509
   6.09295502  4.35406633 -7.08546247
   1.57133609 11.23065925 -4.10734307
   1.52609305 -2.37941547 -9.84096545
   4.57135103 -1.00290049 -4.21076072
   4.57135103 -2.38443806 -9.86697110
   7.57136596 11.23065925 -4.10734307
   7.61660900 -2.37941547 -9.84096545
   0.00000000  1.35393606 -3.02989534
   0.00000000 -0.02250110 -8.84631805
   3.03510063  1.33122518 -3.18071877
   3.06495380 -0.04517099 -8.85030798
   6.10760142  1.33122518 -3.18071877
   6.07774826 -0.04517099 -8.85030798
   1.53296076  3.41508761 -2.48471896
   1.58793293  2.10171256 -8.25307766
   4.57135103  3.39585676 -2.48713401
   4.57135103  2.03508546 -8.16786350
   7.60974130  3.41508761 -2.48471896
   7.55476913  2.10171256 -8.25307766
   1.51511828  2.88836359 -5.04034862
   1.53314678  1.45378373-10.72645249
   4.57135103  2.84546167 -5.04581119
   4.57135103  1.46049722-10.71650318
   7.62758377  2.88836359 -5.04034862
   7.60955527  1.45378373-10.72645249
   0.00000000  1.93684206 -0.56283016
   3.06136626  1.90092860 -0.61743046
   3.11394300  0.52771373 -6.26994847
   6.08133579  1.90092860 -0.61743046
   6.02875906  0.52771373 -6.26994847
   0.00000000  0.97268627 -6.12136199
 


--------------------------------------------------------------------------------------------------------


 k-point   1 :   0.0000 0.0000 0.0000  plane waves:   27533
 k-point   2 :   0.5000 0.0000 0.0000  plane waves:   27522
 k-point   3 :   0.0000 0.5000 0.0000  plane waves:   27488
 k-point   4 :   0.5000 0.5000 0.0000  plane waves:   27488
 k-point   5 :   0.0000 0.0000 0.5000  plane waves:   27482
 k-point   6 :   0.5000 0.0000 0.5000  plane waves:   27476
 k-point   7 :   0.0000 0.5000 0.5000  plane waves:   27468
 k-point   8 :   0.5000 0.5000 0.5000  plane waves:   27564

 maximum and minimum number of plane-waves per node :     27564    27468

 maximum number of plane-waves:     27564
 maximum index in each direction: 
   IXMAX=   21   IYMAX=   15   IZMAX=   20
   IXMIN=  -21   IYMIN=  -16   IZMIN=  -20


 serial   3D FFT for wavefunctions
 parallel 3D FFT for charge:
    minimum data exchange during FFTs selected (reduces bandwidth)


 FFT grid for exact exchange (Hartree Fock) 
  NGX = 48; NGY = 36; NGZ = 48

 
 Radii for the augmentation spheres in the non-local exchange
 for species   1 augmentation radius   1.392 (default was   1.031)
       energy cutoff for augmentation   1800.0
 for species   2 augmentation radius   0.974 (default was   0.722)
       energy cutoff for augmentation   1800.0
 for species   3 augmentation radius   1.294 (default was   0.959)
       energy cutoff for augmentation   1800.0
 Maximum index for augmentation-charges in exchange           749
  SETUP_FOCK is finished

 total amount of memory used by VASP MPI-rank0  7269109. kBytes
=======================================================================

   base      :      30000. kBytes
   nonlr-proj:      33004. kBytes
   fftplans  :      51012. kBytes
   grid      :     102973. kBytes
   one-center:       1866. kBytes
   HF        :        194. kBytes
   wavefun   :    7050060. kBytes
 
     INWAV:  cpu time      0.0001: real time      0.0001
 Broyden mixing: mesh for mixing (old mesh)
   NGX = 43   NGY = 31   NGZ = 41
  (NGX  =128   NGY  = 96   NGZ  =120)
  gives a total of  54653 points

 charge density for first step will be calculated from the start-wavefunctions


--------------------------------------------------------------------------------------------------------


 Maximum index for non-local projection operator          1720
 Maximum index for augmentation-charges          5356 (set IRDMAX)


--------------------------------------------------------------------------------------------------------


 initial charge from wavefunction
 First call to EWALD:  gamma=   0.164
 Maximum number of real-space cells 3x 3x 3
 Maximum number of reciprocal cells 3x 2x 3

    FEWALD:  cpu time      0.0737: real time      0.0737


--------------------------------------- Ionic step        1  -------------------------------------------




--------------------------------------- Iteration      1(   1)  ---------------------------------------


    POTLOK:  cpu time      0.0546: real time      0.0546
    SETDIJ:  cpu time      0.1272: real time      0.1272
    TRIAL :  cpu time      2.9538: real time      2.9648
    CORREC:  cpu time      0.0015: real time      0.0015
    --------------------------------------------
      LOOP:  cpu time      4.0461: real time      4.0568

 eigenvalue-minimisations  : 10640
 total energy-change (2. order) :-0.2166068E+05  (-0.5443064E+05)
 number of electron    1054.9999388 magnetization 
 augmentation part      121.8165841 magnetization 

 Free energy of the ion-electron system (eV)
  ---------------------------------------------------
  alpha Z        PSCENC =      5529.70323211
  Ewald energy   TEWEN  =    -88670.66536753
  -Hartree energ DENC   =     -2118.48667416
  -exchange      EXHF   =         0.00000000
  -V(xc)+E(xc)   XCENC  =      2792.01919368
  PAW double counting   =    342745.65667386  -374694.66116116
  entropy T*S    EENTRO =        -0.01387278
  eigenvalues    EBANDS =    -40850.04007762
  atomic energy  EATOM  =    133605.80973787
  ---------------------------------------------------
  free energy    TOTEN  =    -21660.67831573 eV

  energy without entropy =   -21660.66444294  energy(sigma->0) =   -21660.67137934
  exchange ACFDT corr.  =         0.00000000  see jH, gK, PRB 81, 115126


--------------------------------------------------------------------------------------------------------




--------------------------------------- Iteration      1(   2)  ---------------------------------------


    TRIAL :  cpu time      3.2395: real time      3.2391
    CORREC:  cpu time      0.0016: real time      0.0016
    --------------------------------------------
      LOOP:  cpu time      3.2413: real time      3.2417

 eigenvalue-minimisations  : 13600
 total energy-change (2. order) :-0.4439366E+05  (-0.4301239E+05)
 number of electron    1054.9999388 magnetization 
 augmentation part      121.8165841 magnetization 

 Free energy of the ion-electron system (eV)
  ---------------------------------------------------
  alpha Z        PSCENC =      5529.70323211
  Ewald energy   TEWEN  =    -88670.66536753
  -Hartree energ DENC   =     -2118.48667416
  -exchange      EXHF   =         0.00000000
  -V(xc)+E(xc)   XCENC  =      2792.01919368
  PAW double counting   =    342745.65667386  -374694.66116116
  entropy T*S    EENTRO =        -0.01293373
  eigenvalues    EBANDS =    -85243.70083852
  atomic energy  EATOM  =    133605.80973787
  ---------------------------------------------------
  free energy    TOTEN  =    -66054.33813758 eV

  energy without entropy =   -66054.32520385  energy(sigma->0) =   -66054.33167072
  exchange ACFDT corr.  =         0.00000000  see jH, gK, PRB 81, 115126


--------------------------------------------------------------------------------------------------------




--------------------------------------- Iteration      1(   3)  ---------------------------------------


    TRIAL :  cpu time      3.3906: real time      3.3902
    CORREC:  cpu time      0.0016: real time      0.0016
    --------------------------------------------
      LOOP:  cpu time      3.3924: real time      3.3924

 eigenvalue-minimisations  : 14434
 total energy-change (2. order) :-0.4710052E+04  (-0.4231214E+04)
 number of electron    1054.9999388 magnetization 
 augmentation part      121.8165841 magnetization 

 Free energy of the ion-electron system (eV)
  ---------------------------------------------------
  alpha Z        PSCENC =      5529.70323211
  Ewald energy   TEWEN  =    -88670.66536753
  -Hartree energ DENC   =     -2118.48667416
  -exchange      EXHF   =         0.00000000
  -V(xc)+E(xc)   XCENC  =      2792.01919368
  PAW double counting   =    342745.65667386  -374694.66116116
  entropy T*S    EENTRO =        -0.03762721
  eigenvalues    EBANDS =    -89953.72778223
  atomic energy  EATOM  =    133605.80973787
  ---------------------------------------------------
  free energy    TOTEN  =    -70764.38977477 eV

  energy without entropy =   -70764.35214756  energy(sigma->0) =   -70764.37096116
  exchange ACFDT corr.  =         0.00000000  see jH, gK, PRB 81, 115126


--------------------------------------------------------------------------------------------------------




--------------------------------------- Iteration      1(   4)  ---------------------------------------


    TRIAL :  cpu time      3.8027: real time      3.8021
    CORREC:  cpu time      0.0015: real time      0.0015
    --------------------------------------------
      LOOP:  cpu time      3.8044: real time      3.8041

 eigenvalue-minimisations  : 17432
 total energy-change (2. order) :-0.6027001E+03  (-0.5198912E+03)
 number of electron    1054.9999388 magnetization 
 augmentation part      121.8165841 magnetization 

 Free energy of the ion-electron system (eV)
  ---------------------------------------------------
  alpha Z        PSCENC =      5529.70323211
  Ewald energy   TEWEN  =    -88670.66536753
  -Hartree energ DENC   =     -2118.48667416
  -exchange      EXHF   =         0.00000000
  -V(xc)+E(xc)   XCENC  =      2792.01919368
  PAW double counting   =    342745.65667386  -374694.66116116
  entropy T*S    EENTRO =        -0.03589021
  eigenvalues    EBANDS =    -90556.42961710
  atomic energy  EATOM  =    133605.80973787
  ---------------------------------------------------
  free energy    TOTEN  =    -71367.08987264 eV

  energy without entropy =   -71367.05398243  energy(sigma->0) =   -71367.07192753
  exchange ACFDT corr.  =         0.00000000  see jH, gK, PRB 81, 115126


--------------------------------------------------------------------------------------------------------




--------------------------------------- Iteration      1(   5)  ---------------------------------------


    POTLOK:  cpu time      1.3728: real time      1.3727
    SETDIJ:  cpu time      0.4628: real time      0.4628
    TRIAL :  cpu time    234.4879: real time    234.5642
    CORREC:  cpu time      0.0016: real time      0.0016
    CHARGE:  cpu time      0.2062: real time      0.2062
    --------------------------------------------
      LOOP:  cpu time    236.5316: real time    236.6080

 eigenvalue-minimisations  : 18672
 total energy-change (2. order) : 0.3310861E+05  (-0.7721749E+02)
 number of electron    1054.9997466 magnetization 
 augmentation part      489.6010573 magnetization 

 Free energy of the ion-electron system (eV)
  ---------------------------------------------------
  alpha Z        PSCENC =      5529.70323211
  Ewald energy   TEWEN  =    -88670.66536753
  -Hartree energ DENC   =     -2118.48667416
  -exchange      EXHF   =      5190.95705960
  -V(xc)+E(xc)   XCENC  =      1850.41971420
  PAW double counting   =    344098.14878731  -346171.15537605
  entropy T*S    EENTRO =        -0.02158068
  eigenvalues    EBANDS =    -91573.19416599
  atomic energy  EATOM  =    133605.80973787
  ---------------------------------------------------
  free energy    TOTEN  =    -38258.48463331 eV

  energy without entropy =   -38258.46305263  energy(sigma->0) =   -38258.47384297
  exchange ACFDT corr.  =        -0.07213600  see jH, gK, PRB 81, 115126


--------------------------------------------------------------------------------------------------------




--------------------------------------- Iteration      1(   6)  ---------------------------------------


    POTLOK:  cpu time      1.4127: real time      1.4126
    SETDIJ:  cpu time      0.4658: real time      0.4657
    TRIAL :  cpu time    233.4171: real time    233.3944
    CORREC:  cpu time    236.1428: real time    236.1443
    CHARGE:  cpu time      0.2178: real time      0.2177
    --------------------------------------------
      LOOP:  cpu time    471.6580: real time    471.6370

 eigenvalue-minimisations  :     0
 total energy-change (2. order) : 0.6085836E+05  (-0.1547124E+05)
 number of electron    1054.9997894 magnetization 
 augmentation part      483.0672640 magnetization 

 Free energy of the ion-electron system (eV)
  ---------------------------------------------------
  alpha Z        PSCENC =      5529.70323211
  Ewald energy   TEWEN  =    -88670.66536753
  -Hartree energ DENC   =    -69948.69709469
  -exchange      EXHF   =      5316.66116206
  -V(xc)+E(xc)   XCENC  =      3576.86352858
  PAW double counting   =    146413.61050462  -171017.64857395
  entropy T*S    EENTRO =        -0.02568027
  eigenvalues    EBANDS =     57794.25537498
  atomic energy  EATOM  =    133605.80973787
  ---------------------------------------------------
  free energy    TOTEN  =     22599.87092338 eV

  energy without entropy =    22599.89660365  energy(sigma->0) =    22599.88376352
  exchange ACFDT corr.  =        -0.09101040  see jH, gK, PRB 81, 115126


--------------------------------------------------------------------------------------------------------




--------------------------------------- Iteration      1(   7)  ---------------------------------------


    POTLOK:  cpu time      1.5216: real time      1.5214
    SETDIJ:  cpu time      0.4626: real time      0.4625
    TRIAL :  cpu time    233.7658: real time    233.7688
    CORREC:  cpu time    236.0442: real time    236.0295
    CHARGE:  cpu time      0.2170: real time      0.2170
    --------------------------------------------
      LOOP:  cpu time    472.0135: real time    472.0020

 eigenvalue-minimisations  :     0
 total energy-change (2. order) :-0.1712287E+05  (-0.3394741E+04)
 number of electron    1054.9998136 magnetization 
 augmentation part      456.6022424 magnetization 

 Free energy of the ion-electron system (eV)
  ---------------------------------------------------
  alpha Z        PSCENC =      5529.70323211
  Ewald energy   TEWEN  =    -88670.66536753
  -Hartree energ DENC   =    -43083.49405289
  -exchange      EXHF   =      4495.18906318
  -V(xc)+E(xc)   XCENC  =      2972.47730271
  PAW double counting   =    132387.99986938  -151566.82769766
  entropy T*S    EENTRO =        -0.02979220
  eigenvalues    EBANDS =      9806.83537892
  atomic energy  EATOM  =    133605.80973787
  ---------------------------------------------------
  free energy    TOTEN  =      5477.00178583 eV

  energy without entropy =     5477.03157803  energy(sigma->0) =     5477.01668193
  exchange ACFDT corr.  =      -206.69005609  see jH, gK, PRB 81, 115126


--------------------------------------------------------------------------------------------------------




--------------------------------------- Iteration      1(   8)  ---------------------------------------


    POTLOK:  cpu time      1.4703: real time      1.4701
    SETDIJ:  cpu time      0.4780: real time      0.4779
    TRIAL :  cpu time    234.1028: real time    234.0994
    CORREC:  cpu time    235.9636: real time    235.9706
    CHARGE:  cpu time      0.2204: real time      0.2204
    --------------------------------------------
      LOOP:  cpu time    472.2355: real time    472.2438

 eigenvalue-minimisations  :     0
 total energy-change (2. order) :-0.3945709E+04  (-0.9987234E+03)
 number of electron    1054.9998139 magnetization 
 augmentation part      445.0302800 magnetization 

 Free energy of the ion-electron system (eV)
  ---------------------------------------------------
  alpha Z        PSCENC =      5529.70323211
  Ewald energy   TEWEN  =    -88670.66536753
  -Hartree energ DENC   =    -34630.77372518
  -exchange      EXHF   =      4177.21038846
  -V(xc)+E(xc)   XCENC  =      2762.24232957
  PAW double counting   =    129364.53938979  -145756.87361830
  entropy T*S    EENTRO =        -0.05727308
  eigenvalues    EBANDS =     -4849.86980355
  atomic energy  EATOM  =    133605.80973787
  ---------------------------------------------------
  free energy    TOTEN  =      1531.29277105 eV

  energy without entropy =     1531.35004413  energy(sigma->0) =     1531.32140759
  exchange ACFDT corr.  =      -119.44821966  see jH, gK, PRB 81, 115126


--------------------------------------------------------------------------------------------------------




--------------------------------------- Iteration      1(   9)  ---------------------------------------


    POTLOK:  cpu time      1.4847: real time      1.4845
    SETDIJ:  cpu time      0.4645: real time      0.4644
    TRIAL :  cpu time    234.1481: real time    234.1477
    CORREC:  cpu time    235.5221: real time    235.5052
    CHARGE:  cpu time      0.2129: real time      0.2129
    --------------------------------------------
      LOOP:  cpu time    471.8326: real time    471.8155

 eigenvalue-minimisations  :     0
 total energy-change (2. order) :-0.8930283E+03  (-0.5721880E+03)
 number of electron    1054.9998338 magnetization 
 augmentation part      446.8103275 magnetization 

 Free energy of the ion-electron system (eV)
  ---------------------------------------------------
  alpha Z        PSCENC =      5529.70323211
  Ewald energy   TEWEN  =    -88670.66536753
  -Hartree energ DENC   =    -32817.47231084
  -exchange      EXHF   =      4104.84162698
  -V(xc)+E(xc)   XCENC  =      2713.21426749
  PAW double counting   =    128492.39769661  -143675.79977812
  entropy T*S    EENTRO =        -0.04461644
  eigenvalues    EBANDS =     -8643.70740852
  atomic energy  EATOM  =    133605.80973787
  ---------------------------------------------------
  free energy    TOTEN  =       638.26442298 eV

  energy without entropy =      638.30903941  energy(sigma->0) =      638.28673119
  exchange ACFDT corr.  =       -53.89413735  see jH, gK, PRB 81, 115126


--------------------------------------------------------------------------------------------------------




--------------------------------------- Iteration      1(  10)  ---------------------------------------


    POTLOK:  cpu time      1.4983: real time      1.4981
    SETDIJ:  cpu time      0.4643: real time      0.4642
    TRIAL :  cpu time    234.6030: real time    234.5987
    CORREC:  cpu time    235.7399: real time    235.7318
    CHARGE:  cpu time      0.2175: real time      0.2174
    --------------------------------------------
      LOOP:  cpu time    472.5238: real time    472.5118

 eigenvalue-minimisations  :     0
 total energy-change (2. order) :-0.3850033E+03  (-0.6667866E+03)
 number of electron    1054.9998249 magnetization 
 augmentation part      451.6016960 magnetization 

 Free energy of the ion-electron system (eV)
  ---------------------------------------------------
  alpha Z        PSCENC =      5529.70323211
  Ewald energy   TEWEN  =    -88670.66536753
  -Hartree energ DENC   =    -32928.38363700
  -exchange      EXHF   =      4122.02413644
  -V(xc)+E(xc)   XCENC  =      2722.92368501
  PAW double counting   =    129858.52229782  -144891.59871430
  entropy T*S    EENTRO =        -0.03674913
  eigenvalues    EBANDS =     -9095.02961953
  atomic energy  EATOM  =    133605.80973787
  ---------------------------------------------------
  free energy    TOTEN  =       253.26113446 eV

  energy without entropy =      253.29788359  energy(sigma->0) =      253.27950903
  exchange ACFDT corr.  =      -100.27894167  see jH, gK, PRB 81, 115126


--------------------------------------------------------------------------------------------------------




--------------------------------------- Iteration      1(  11)  ---------------------------------------


    POTLOK:  cpu time      1.4914: real time      1.4911
    SETDIJ:  cpu time      0.4632: real time      0.4631
    TRIAL :  cpu time    233.9897: real time    233.9636
    CORREC:  cpu time    235.0840: real time    235.0665
[...]
   -.232E-04 0.683E+02 -.251E+02   -.315E-13 -.660E+02 0.271E+02   0.000E+00 -.204E+01 -.183E+01
   0.177E-03 0.738E+02 -.471E+02   -.837E-13 -.713E+02 0.485E+02   0.000E+00 -.221E+01 -.134E+01
   -.133E+01 0.582E+02 -.257E+02   0.118E+01 -.569E+02 0.283E+02   0.122E+00 -.124E+01 -.243E+01
   -.257E+02 0.123E+03 -.695E+02   0.254E+02 -.119E+03 0.694E+02   0.203E+00 -.321E+01 0.799E-01
   -.435E+01 -.284E+02 0.143E+02   0.423E+01 0.363E+02 -.174E+02   0.927E-01 -.667E+01 0.263E+01
   0.384E+02 -.702E+02 -.137E+02   -.386E+02 0.783E+02 0.108E+02   0.231E+00 -.683E+01 0.248E+01
   0.737E-05 -.237E+02 0.209E+02   -.457E-13 0.306E+02 -.244E+02   0.000E+00 -.576E+01 0.293E+01
   0.297E-04 -.290E+02 0.115E+02   -.109E-12 0.367E+02 -.158E+02   0.000E+00 -.650E+01 0.364E+01
   0.435E+01 -.284E+02 0.143E+02   -.423E+01 0.363E+02 -.174E+02   -.927E-01 -.667E+01 0.263E+01
   -.384E+02 -.702E+02 -.137E+02   0.386E+02 0.783E+02 0.108E+02   -.231E+00 -.683E+01 0.248E+01
   -.509E-04 0.276E+02 0.445E+00   -.408E-13 -.347E+02 0.301E+01   0.000E+00 0.598E+01 -.292E+01
   -.314E-04 0.292E+02 -.248E+02   0.137E-13 -.370E+02 0.281E+02   0.000E+00 0.657E+01 -.286E+01
   0.131E+01 0.285E+02 -.547E+01   -.113E+01 -.360E+02 0.924E+01   -.136E+00 0.638E+01 -.320E+01
   -.387E+00 0.244E+02 -.214E+02   0.395E+00 -.320E+02 0.247E+02   -.102E-01 0.641E+01 -.280E+01
   -.131E+01 0.285E+02 -.547E+01   0.113E+01 -.360E+02 0.924E+01   0.136E+00 0.638E+01 -.320E+01
   0.387E+00 0.244E+02 -.214E+02   -.395E+00 -.320E+02 0.247E+02   0.102E-01 0.641E+01 -.280E+01
   0.370E+01 0.713E+02 0.435E+02   -.378E+01 -.706E+02 -.380E+02   0.715E-01 -.578E+00 -.459E+01
   0.274E+01 0.682E+02 0.264E+02   -.284E+01 -.665E+02 -.215E+02   0.840E-01 -.138E+01 -.418E+01
   0.204E-04 0.669E+02 0.462E+02   -.486E-14 -.649E+02 -.413E+02   0.000E+00 -.170E+01 -.409E+01
   0.325E-04 0.689E+02 0.233E+02   0.388E-13 -.672E+02 -.180E+02   0.000E+00 -.144E+01 -.449E+01
   -.370E+01 0.713E+02 0.435E+02   0.378E+01 -.706E+02 -.380E+02   -.715E-01 -.578E+00 -.459E+01
   -.274E+01 0.682E+02 0.264E+02   0.284E+01 -.665E+02 -.215E+02   -.840E-01 -.138E+01 -.418E+01
   -.494E-05 -.745E+02 -.195E+02   0.904E-15 0.731E+02 0.140E+02   0.000E+00 0.121E+01 0.466E+01
   -.359E-04 -.845E+02 -.476E+02   0.173E-13 0.827E+02 0.427E+02   0.000E+00 0.154E+01 0.414E+01
   0.136E+01 -.795E+02 -.267E+02   -.146E+01 0.780E+02 0.218E+02   0.896E-01 0.128E+01 0.416E+01
   0.296E+01 -.762E+02 -.449E+02   -.270E+01 0.741E+02 0.404E+02   -.222E+00 0.178E+01 0.384E+01
   -.136E+01 -.795E+02 -.267E+02   0.146E+01 0.780E+02 0.218E+02   -.896E-01 0.128E+01 0.416E+01
   -.296E+01 -.762E+02 -.449E+02   0.270E+01 0.741E+02 0.404E+02   0.222E+00 0.178E+01 0.384E+01
   -.509E-05 0.864E+02 0.822E+02   0.391E-13 -.983E+02 -.788E+02   0.000E+00 0.101E+02 -.290E+01
   -.325E-04 0.112E+03 0.551E+02   0.171E-13 -.125E+03 -.511E+02   0.000E+00 0.108E+02 -.338E+01
   0.543E+01 0.105E+03 0.751E+02   -.503E+01 -.118E+03 -.716E+02   -.345E+00 0.108E+02 -.295E+01
   0.204E+01 0.110E+03 0.606E+02   -.209E+01 -.122E+03 -.573E+02   0.389E-01 0.104E+02 -.276E+01
   -.543E+01 0.105E+03 0.751E+02   0.503E+01 -.118E+03 -.716E+02   0.345E+00 0.108E+02 -.295E+01
   -.204E+01 0.110E+03 0.606E+02   0.209E+01 -.122E+03 -.573E+02   -.389E-01 0.104E+02 -.276E+01
   0.791E-01 -.121E+03 -.634E+02   0.167E+00 0.133E+03 0.599E+02   -.209E+00 -.107E+02 0.290E+01
   0.359E+01 -.123E+03 -.622E+02   -.352E+01 0.135E+03 0.586E+02   -.598E-01 -.108E+02 0.301E+01
   0.187E-04 -.122E+03 -.626E+02   -.138E-13 0.135E+03 0.589E+02   0.000E+00 -.110E+02 0.314E+01
   0.688E-04 -.120E+03 -.622E+02   0.282E-13 0.133E+03 0.587E+02   0.000E+00 -.108E+02 0.297E+01
   -.791E-01 -.121E+03 -.634E+02   -.167E+00 0.133E+03 0.599E+02   0.209E+00 -.107E+02 0.290E+01
   -.359E+01 -.123E+03 -.622E+02   0.352E+01 0.135E+03 0.586E+02   0.598E-01 -.108E+02 0.301E+01
   -.179E-04 -.999E+01 0.155E+02   -.837E-13 0.171E+02 -.194E+02   0.000E+00 -.602E+01 0.337E+01
   -.606E-04 0.349E+01 0.351E+00   -.852E-15 0.373E+01 -.362E+01   0.000E+00 -.611E+01 0.277E+01
   -.331E+00 -.979E+01 0.163E+02   0.386E+00 0.170E+02 -.202E+02   -.481E-01 -.608E+01 0.328E+01
   0.252E+01 -.471E+01 0.102E+01   -.244E+01 0.118E+02 -.395E+01   -.679E-01 -.600E+01 0.248E+01
   0.331E+00 -.979E+01 0.163E+02   -.386E+00 0.170E+02 -.202E+02   0.481E-01 -.608E+01 0.328E+01
   -.252E+01 -.471E+01 0.102E+01   0.244E+01 0.118E+02 -.395E+01   0.679E-01 -.600E+01 0.248E+01
   0.422E+01 -.226E+02 0.424E+02   -.218E+01 0.164E+02 -.389E+02   -.173E+01 0.523E+01 -.304E+01
   0.594E+01 0.622E+01 -.327E+02   -.613E+01 -.135E+02 0.370E+02   0.163E+00 0.619E+01 -.367E+01
   -.190E-04 0.284E+01 -.229E+01   -.635E-13 -.952E+01 0.629E+01   0.000E+00 0.564E+01 -.339E+01
   0.256E-04 0.104E+02 -.215E+02   0.172E-13 -.178E+02 0.255E+02   0.000E+00 0.626E+01 -.339E+01
   -.422E+01 -.226E+02 0.424E+02   0.218E+01 0.164E+02 -.389E+02   0.173E+01 0.523E+01 -.304E+01
   -.594E+01 0.622E+01 -.327E+02   0.613E+01 -.135E+02 0.370E+02   -.163E+00 0.619E+01 -.367E+01
   -.207E-04 0.491E+02 0.104E+03   0.530E-14 -.451E+02 -.103E+03   0.000E+00 -.336E+01 -.924E+00
   -.762E-05 0.493E+02 -.504E+02   -.481E-13 -.464E+02 0.571E+02   0.000E+00 -.241E+01 -.568E+01
   0.176E+02 0.704E+02 0.567E+02   -.188E+02 -.688E+02 -.518E+02   0.100E+01 -.132E+01 -.410E+01
   0.266E+01 0.579E+02 0.402E+02   -.246E+00 -.545E+02 -.388E+02   -.204E+01 -.289E+01 -.113E+01
   -.176E+02 0.704E+02 0.567E+02   0.188E+02 -.688E+02 -.518E+02   -.100E+01 -.132E+01 -.410E+01
   -.266E+01 0.579E+02 0.402E+02   0.246E+00 -.545E+02 -.388E+02   0.204E+01 -.289E+01 -.113E+01
   -.643E+01 -.475E+02 -.240E+02   0.729E+01 0.448E+02 0.196E+02   -.737E+00 0.226E+01 0.369E+01
   0.325E+02 -.308E+02 -.760E+02   -.338E+02 0.280E+02 0.730E+02   0.116E+01 0.236E+01 0.255E+01
   0.135E-04 -.525E+02 -.366E+02   -.354E-13 0.502E+02 0.326E+02   0.000E+00 0.199E+01 0.341E+01
   0.515E-04 -.544E+02 -.513E+02   0.105E-12 0.517E+02 0.468E+02   0.000E+00 0.223E+01 0.382E+01
   0.643E+01 -.475E+02 -.240E+02   -.729E+01 0.448E+02 0.196E+02   0.737E+00 0.226E+01 0.369E+01
   -.325E+02 -.308E+02 -.760E+02   0.338E+02 0.280E+02 0.730E+02   -.116E+01 0.236E+01 0.255E+01
   0.149E+02 0.144E+03 0.778E+02   -.148E+02 -.154E+03 -.752E+02   -.483E-01 0.817E+01 -.221E+01
   0.264E+01 0.137E+03 0.421E+02   -.249E+01 -.150E+03 -.376E+02   -.127E+00 0.113E+02 -.376E+01
   0.467E-04 0.131E+03 0.720E+02   0.707E-14 -.143E+03 -.692E+02   0.000E+00 0.104E+02 -.242E+01
   0.157E-04 0.138E+03 0.559E+02   0.845E-14 -.151E+03 -.526E+02   0.000E+00 0.115E+02 -.275E+01
   -.149E+02 0.144E+03 0.778E+02   0.148E+02 -.154E+03 -.752E+02   0.483E-01 0.817E+01 -.221E+01
   -.264E+01 0.137E+03 0.421E+02   0.249E+01 -.150E+03 -.376E+02   0.127E+00 0.113E+02 -.376E+01
   -.122E-04 -.128E+03 -.623E+02   0.187E-13 0.141E+03 0.581E+02   0.000E+00 -.114E+02 0.357E+01
   -.997E+01 -.123E+03 -.609E+02   0.114E+02 0.136E+03 0.574E+02   -.121E+01 -.111E+02 0.295E+01
   0.489E+02 -.122E+03 -.800E+02   -.501E+02 0.136E+03 0.775E+02   0.107E+01 -.111E+02 0.210E+01
   0.997E+01 -.123E+03 -.609E+02   -.114E+02 0.136E+03 0.574E+02   0.121E+01 -.111E+02 0.295E+01
   -.489E+02 -.122E+03 -.800E+02   0.501E+02 0.136E+03 0.775E+02   -.107E+01 -.111E+02 0.210E+01
   -.237E-05 -.372E+02 -.459E+02   -.213E-13 0.327E+02 0.429E+02   0.000E+00 0.385E+01 0.290E+01
 -----------------------------------------------------------------------------------------------
   0.827E-04 0.148E+02 0.107E+02   0.242E-12 0.340E-11 -.127E-11   0.000E+00 -.140E+02 -.915E+01
 
 
 POSITION                                       TOTAL-FORCE (eV/Angst)
 -----------------------------------------------------------------------------------
      0.00000      7.66003     -1.76259         0.000000      0.065223      0.009747
      0.00000      6.28194     -7.41350         0.000000      0.066846      0.012486
      3.05299      7.65699     -1.76617         0.014181      0.082515     -0.001874
      3.04796      6.26599     -7.41519         0.005586      0.066556      0.019026
      6.08971      7.65699     -1.76617        -0.014181      0.082515     -0.001874
      6.09474      6.26599     -7.41519        -0.005586      0.066556      0.019026
      1.53589      9.32706     -3.87285         0.028059     -0.058212      0.011030
      1.52893      7.98420     -9.51718         0.007042     -0.083454     -0.001751
      4.57135      9.36802     -3.87281         0.000000     -0.085774      0.006863
      4.57135      7.98575     -9.52684         0.000000     -0.076621     -0.005455
      7.60682      9.32706     -3.87285        -0.028059     -0.058212      0.011030
      7.61377      7.98420     -9.51718        -0.007042     -0.083454     -0.001751
      1.52829      6.14239     -4.49534        -0.002929     -0.054480      0.021582
      1.52277      4.78523    -10.14815         0.007743     -0.033908     -0.001801
      4.57135      6.15330     -4.49647         0.000000     -0.044607      0.031385
      4.57135      4.81516    -10.16013         0.000000     -0.057341      0.000604
      7.61442      6.14239     -4.49534         0.002929     -0.054480      0.021582
      7.61993      4.78523    -10.14815        -0.007743     -0.033908     -0.001801
      0.00000     10.85141     -1.12518         0.000000      0.027272      0.026600
      0.00000      9.50386     -6.79906         0.000000     -0.004104     -0.014400
      3.04385     10.86363     -1.15999         0.010601      0.013221     -0.004465
      3.04997      9.48075     -6.80073         0.021471      0.003434     -0.028189
      6.09886     10.86363     -1.15999        -0.010601      0.013221     -0.004465
      6.09273      9.48075     -6.80073        -0.021471      0.003434     -0.028189
      1.52073      1.52735     -1.72340        -0.042488      0.085308     -0.003307
      1.62685      0.14103     -7.49453         0.378854     -0.007371     -0.213224
      4.57135      1.49127     -1.79636         0.000000      0.088377      0.025705
      4.57135      0.12606     -7.44612         0.000000      0.106542      0.078133
      7.62197      1.52735     -1.72340         0.042488      0.085308     -0.003307
      7.51585      0.14103     -7.49453        -0.378854     -0.007371     -0.213224
      0.00000      3.24956     -3.84035         0.000000     -0.001423     -0.020252
      0.00000      1.85851     -9.57808         0.000000     -0.062205     -0.063803
      3.05868      3.22420     -3.88034        -0.010565     -0.043796     -0.025936
      3.05865      1.89206     -9.57859        -0.043802     -0.029586      0.011255
      6.08402      3.22420     -3.88034         0.010565     -0.043796     -0.025936
      6.08405      1.89206     -9.57859         0.043802     -0.029586      0.011255
      0.00000     -0.09940     -4.20723         0.000000     -0.040641      0.377441
      0.00000     -1.37877    -10.12044         0.000000      0.024471     -0.020445
      3.04499     -0.00028     -4.51017         0.053470     -0.015701      0.056293
      3.04886     -1.38919    -10.15660         0.021693     -0.012439      0.002001
      6.09771     -0.00028     -4.51017        -0.053470     -0.015701      0.056293
      6.09384     -1.38919    -10.15660        -0.021693     -0.012439      0.002001
      1.52553      4.75166     -1.17815         0.008296     -0.003890     -0.003675
      1.51703      3.34645     -6.85107         0.070209      0.137593      0.000680
      4.57135      4.73569     -1.18338         0.000000      0.015029     -0.006268
      4.57135      3.33738     -6.82371         0.000000      0.046334      0.004309
      7.61718      4.75166     -1.17815        -0.008296     -0.003890     -0.003675
      7.62567      3.34645     -6.85107        -0.070209      0.137593      0.000680
      1.51623     11.87904     -1.39911        -0.002335     -0.212492      0.098277
      1.52978     10.50605     -7.07323         0.012100     -0.183327      0.104931
      4.57135     11.86795     -1.44022         0.000000     -0.179532      0.115729
      4.57135     10.48179     -7.10698         0.000000     -0.189501      0.141779
      7.62647     11.87904     -1.39911         0.002335     -0.212492      0.098277
      7.61292     10.50605     -7.07323        -0.012100     -0.183327      0.104931
      0.00000      5.15143     -4.20763         0.000000      0.196454     -0.110641
      0.00000      3.77663     -9.89850         0.000000      0.204768     -0.106311
      3.05162      5.14113     -4.21188         0.009424      0.219421     -0.124441
      3.06020      3.80103     -9.90759        -0.005612      0.196897     -0.106888
      6.09108      5.14113     -4.21188        -0.009424      0.219421     -0.124441
      6.08251      3.80103     -9.90759         0.005612      0.196897     -0.106888
      1.52361      7.46400     -3.16729         0.001837      0.011696     -0.148235
      1.52512      6.09541     -8.81174         0.002785     -0.025768     -0.129886
      4.57135      7.47062     -3.17153         0.000000     -0.027662     -0.121978
      4.57135      6.10467     -8.81202         0.000000     -0.026122     -0.144805
      7.61910      7.46400     -3.16729        -0.001837      0.011696     -0.148235
      7.61758      6.09541     -8.81174        -0.002785     -0.025768     -0.129886
      0.00000      9.54367     -2.46872         0.000000      0.032479      0.154051
      0.00000      8.17355     -8.11861         0.000000      0.045234      0.137351
      3.05702      9.53175     -2.47210        -0.001557      0.026535      0.125139
      3.04566      8.16271     -8.12868        -0.009240      0.053277      0.125720
      6.08568      9.53175     -2.47210         0.001557      0.026535      0.125139
      6.09705      8.16271     -8.12868         0.009240      0.053277      0.125720
      0.00000      8.98494     -5.03218         0.000000      0.418741     -0.076518
      0.00000      7.58053    -10.66151         0.000000      0.439338     -0.092895
      3.05481      8.96043     -5.03759        -0.018616      0.442554     -0.083800
      3.04755      7.59462    -10.68506        -0.001855      0.423132     -0.065651
      6.08789      8.96043     -5.03759         0.018616      0.442554     -0.083800
      6.09516      7.59462    -10.68506         0.001855      0.423132     -0.065651
      1.52456      8.05919     -0.61822        -0.009193     -0.429731      0.076222
      1.52569      6.66598     -6.25824        -0.004693     -0.430167      0.074663
      4.57135      8.07595     -0.62587         0.000000     -0.449663      0.087126
      4.57135      6.66435     -6.26337         0.000000     -0.432719      0.075067
      7.61814      8.05919     -0.61822         0.009193     -0.429731      0.076222
      7.61701      6.66598     -6.25824         0.004693     -0.430167      0.074663
      0.00000      5.74795     -1.45657         0.000000     -0.173033      0.134419
      0.00000      4.36944     -7.10817         0.000000     -0.215198      0.107803
      3.05343      5.74513     -1.45520        -0.006373     -0.170192      0.129385
      3.04975      4.35407     -7.08546        -0.002819     -0.174396      0.089031
      6.08927      5.74513     -1.45520         0.006373     -0.170192      0.129385
      6.09296      4.35407     -7.08546         0.002819     -0.174396      0.089031
      1.57134     11.23066     -4.10734        -0.102882      0.185933     -0.133077
      1.52609     -2.37942     -9.84097         0.002644      0.189294     -0.143851
      4.57135     -1.00290     -4.21076         0.000000      0.166790     -0.134155
      4.57135     -2.38444     -9.86697         0.000000      0.178078     -0.127808
      7.57137     11.23066     -4.10734         0.102882      0.185933     -0.133077
      7.61661     -2.37942     -9.84097        -0.002644      0.189294     -0.143851
      0.00000      1.35394     -3.02990         0.000000     -0.146785     -0.030641
      0.00000     -0.02250     -8.84632         0.000000     -0.056594     -0.129257
      3.03510      1.33123     -3.18072         0.045511     -0.041117     -0.131048
      3.06495     -0.04517     -8.85031        -0.085588     -0.092362     -0.003423
      6.10760      1.33123     -3.18072        -0.045511     -0.041117     -0.131048
      6.07775     -0.04517     -8.85031         0.085588     -0.092362     -0.003423
      1.53296      3.41509     -2.48472        -0.036413      0.055661      0.131509
      1.58793      2.10171     -8.25308         0.016771      0.041997      0.119600
      4.57135      3.39586     -2.48713         0.000000      0.049728      0.092697
      4.57135      2.03509     -8.16786         0.000000      0.063926      0.113840
      7.60974      3.41509     -2.48472         0.036413      0.055661      0.131509
      7.55477      2.10171     -8.25308        -0.016771      0.041997      0.119600
      1.51512      2.88836     -5.04035        -0.019189      0.303369     -0.096132
      1.53315      1.45378    -10.72645        -0.003661      0.466261     -0.106219
      4.57135      2.84546     -5.04581         0.000000      0.410750     -0.059959
      4.57135      1.46050    -10.71650         0.000000      0.463867     -0.067779
      7.62758      2.88836     -5.04035         0.019189      0.303369     -0.096132
      7.60956      1.45378    -10.72645         0.003661      0.466261     -0.106219
      0.00000      1.93684     -0.56283         0.000000     -0.468890      0.101390
      3.06137      1.90093     -0.61743        -0.053752     -0.456957      0.078719
      3.11394      0.52771     -6.26995         0.005466     -0.452663      0.020658
      6.08134      1.90093     -0.61743         0.053752     -0.456957      0.078719
      6.02876      0.52771     -6.26995        -0.005466     -0.452663      0.020658
      0.00000      0.97269     -6.12136         0.000000     -0.357125      0.021148
 -----------------------------------------------------------------------------------
    total drift:                                0.000083     -0.082128      0.056778


--------------------------------------------------------------------------------------------------------



  FREE ENERGIE OF THE ION-ELECTRON SYSTEM (eV)
  ---------------------------------------------------
  free  energy   TOTEN  =      -981.00616873 eV

  energy  without entropy=     -980.99098772  energy(sigma->0) =     -980.99857822
 


--------------------------------------------------------------------------------------------------------


    POTLOK:  cpu time      1.9447: real time      1.9613


--------------------------------------------------------------------------------------------------------


 writing wavefunctions
     LOOP+:  cpu time  17073.2104: real time  17075.5556
    4ORBIT:  cpu time      0.0000: real time      0.0000

 total amount of memory used by VASP MPI-rank0  7512599. kBytes
=======================================================================

   base      :      30000. kBytes
   nonlr-proj:      47224. kBytes
   fftplans  :      51012. kBytes
   grid      :     102973. kBytes
   one-center:       1866. kBytes
   HF        :        194. kBytes
   wavefun   :    7050060. kBytes
   fock_wrk  :     229270. kBytes
 
  
  
 General timing and accounting informations for this job:
 ========================================================
  
                  Total CPU time used (sec):    17104.838
                            User time (sec):    17090.769
                          System time (sec):       14.070
                         Elapsed time (sec):    17109.248
  
                   Maximum memory used (kb):    13299520.
                   Average memory used (kb):          N/A
  
                          Minor page faults:      7434763
                          Major page faults:           27
                 Voluntary context switches:       331245
