<?xml version="1.0" encoding="ISO-8859-1"?>
<modeling>
 <generator>
  <i name="program" type="string">vasp </i>
  <i name="version" type="string">6.4.2  </i>
  <i name="subversion" type="string">20Jul23 (build Nov 12 2023 22:16:35) complex                          parallel </i>
  <i name="platform" type="string">LinuxNV </i>
  <i name="date" type="string">2025 03 11 </i>
  <i name="time" type="string">11:28:03 </i>
 </generator>
 <incar>
  <i type="int" name="ISTART">     0</i>
  <i type="string" name="PREC">Normal</i>
  <i type="string" name="ALGO">All</i>
  <i type="int" name="ISPIN">     1</i>
  <i type="int" name="ICHARG">     0</i>
  <i type="int" name="NELM">   500</i>
  <i type="int" name="IBRION">    -1</i>
  <i name="EDIFF">      0.00001000</i>
  <i name="EDIFFG">     -0.00500000</i>
  <i type="int" name="NSW">     0</i>
  <i type="int" name="ISIF">     2</i>
  <i name="ENCUT">    450.00000000</i>
  <i type="string" name="LREAL">Auto</i>
  <i type="logical" name="LPLANE"> T  </i>
  <i name="TIME">      0.40000000</i>
  <i type="int" name="ISMEAR">     0</i>
  <i name="SIGMA">      0.05000000</i>
  <i type="logical" name="LWAVE"> T  </i>
  <i type="logical" name="LCHARG"> T  </i>
  <i name="HFSCREEN">      0.18000000</i>
  <i type="logical" name="LHFCALC"> T  </i>
  <i type="int" name="LMAXFOCK">     4</i>
  <i name="AEXX">      0.35000000</i>
  <i type="string" name="PRECFOCK">Fast</i>
 </incar>
 <primitive_cell>
  <structure name="primitive_cell" >
   <crystal>
    <varray name="basis" >
     <v>       0.00000000      12.28047342       0.00000000 </v>
     <v>       9.14270205       0.00000000       0.00000000 </v>
     <v>       0.00000000      -2.76826177     -11.30069772 </v>
    </varray>
    <i name="volume">   1268.80515525 </i>
    <varray name="rec_basis" >
     <v>       0.00000000       0.08143009      -0.01994742 </v>
     <v>       0.10937686      -0.00000000       0.00000000 </v>
     <v>       0.00000000       0.00000000      -0.08849011 </v>
    </varray>
   </crystal>
   <varray name="positions" >
    <v>       0.65891599       0.00000000       0.15597142 </v>
    <v>       0.65941879       0.00000000       0.65602134 </v>
    <v>       0.65874031       0.33392692       0.15628865 </v>
    <v>       0.65815433       0.33337633       0.65617085 </v>
    <v>       0.65874031       0.66607308       0.15628865 </v>
    <v>       0.65815433       0.66662367       0.65617085 </v>
    <v>       0.83675626       0.16799049       0.34270879 </v>
    <v>       0.83999728       0.16722953       0.84217595 </v>
    <v>       0.84009126       0.50000000       0.34270533 </v>
    <v>       0.84031631       0.50000000       0.84303102 </v>
    <v>       0.83675626       0.83200951       0.34270879 </v>
    <v>       0.83999728       0.83277047       0.84217595 </v>
    <v>       0.58984556       0.16715905       0.39779286 </v>
    <v>       0.59209111       0.16655609       0.89801136 </v>
    <v>       0.59075698       0.50000000       0.39789338 </v>
    <v>       0.59476716       0.50000000       0.89907114 </v>
    <v>       0.58984556       0.83284095       0.39779286 </v>
    <v>       0.59209111       0.83344391       0.89801136 </v>
    <v>       0.90607561       0.00000000       0.09956758 </v>
    <v>       0.90952406       0.00000000       0.60164915 </v>
    <v>       0.90776520       0.33292620       0.10264792 </v>
    <v>       0.90767538       0.33359622       0.60179729 </v>
    <v>       0.90776520       0.66707380       0.10264792 </v>
    <v>       0.90767538       0.66640378       0.60179729 </v>
    <v>       0.15874959       0.16633240       0.15250428 </v>
    <v>       0.16098052       0.17793969       0.66319163 </v>
    <v>       0.15726680       0.50000000       0.15895989 </v>
    <v>       0.15879605       0.50000000       0.65890840 </v>
    <v>       0.15874959       0.83366760       0.15250428 </v>
    <v>       0.16098052       0.82206031       0.66319163 </v>
    <v>       0.34121679       0.00000000       0.33983326 </v>
    <v>       0.34239687       0.00000000       0.84756535 </v>
    <v>       0.33994931       0.33454927       0.34337181 </v>
    <v>       0.34513905       0.33454584       0.84761066 </v>
    <v>       0.33994931       0.66545073       0.34337181 </v>
    <v>       0.34513905       0.66545416       0.84761066 </v>
    <v>       0.07582916       0.00000000       0.37229854 </v>
    <v>       0.08960343       0.00000000       0.89555877 </v>
    <v>       0.08994384       0.33305121       0.39910539 </v>
    <v>       0.08947637       0.33347483       0.89875841 </v>
    <v>       0.08994384       0.66694879       0.39910539 </v>
    <v>       0.08947637       0.66652517       0.89875841 </v>
    <v>       0.41042883       0.16685733       0.10425497 </v>
    <v>       0.40916244       0.16592797       0.60625163 </v>
    <v>       0.40923333       0.50000000       0.10471703 </v>
    <v>       0.40787874       0.50000000       0.60383110 </v>
    <v>       0.41042883       0.83314267       0.10425497 </v>
    <v>       0.40916244       0.83407203       0.60625163 </v>
    <v>       0.99522024       0.16584021       0.12380773 </v>
    <v>       0.99660115       0.16732300       0.62591100 </v>
    <v>       0.99513691       0.50000000       0.12744488 </v>
    <v>       0.99529911       0.50000000       0.62889730 </v>
    <v>       0.99522024       0.83415979       0.12380773 </v>
    <v>       0.99660115       0.83267700       0.62591100 </v>
    <v>       0.50341227       0.00000000       0.37233325 </v>
    <v>       0.50498067       0.00000000       0.87591909 </v>
    <v>       0.50265859       0.33377677       0.37270979 </v>
    <v>       0.50714925       0.33471456       0.87672357 </v>
    <v>       0.50265859       0.66622323       0.37270979 </v>
    <v>       0.50714925       0.66528544       0.87672357 </v>
    <v>       0.67097342       0.16664721       0.28027401 </v>
    <v>       0.67212086       0.16681280       0.77975146 </v>
    <v>       0.67159713       0.50000000       0.28064928 </v>
    <v>       0.67288074       0.50000000       0.77977663 </v>
    <v>       0.67097342       0.83335279       0.28027401 </v>
    <v>       0.67212086       0.83318720       0.77975146 </v>
    <v>       0.82638632       0.00000000       0.21845775 </v>
    <v>       0.82751851       0.00000000       0.71841648 </v>
    <v>       0.82548331       0.33436759       0.21875638 </v>
    <v>       0.82683624       0.33312436       0.71930764 </v>
    <v>       0.82548331       0.66563241       0.21875638 </v>
    <v>       0.82683624       0.66687564       0.71930764 </v>
    <v>       0.83202381       0.00000000       0.44529820 </v>
    <v>       0.82995320       0.00000000       0.94343832 </v>
    <v>       0.83013580       0.33412586       0.44577688 </v>
    <v>       0.83156958       0.33333106       0.94552224 </v>
    <v>       0.83013580       0.66587414       0.44577688 </v>
    <v>       0.83156958       0.66666894       0.94552224 </v>
    <v>       0.66859245       0.16675171       0.05470606 </v>
    <v>       0.66764664       0.16687549       0.55379212 </v>
    <v>       0.67010993       0.50000000       0.05538302 </v>
    <v>       0.66761655       0.50000000       0.55424629 </v>
    <v>       0.66859245       0.83324829       0.05470606 </v>
    <v>       0.66764664       0.83312451       0.55379212 </v>
    <v>       0.49711133       0.00000000       0.12889227 </v>
    <v>       0.49759388       0.00000000       0.62900314 </v>
    <v>       0.49685364       0.33397501       0.12877038 </v>
    <v>       0.49588871       0.33357174       0.62699336 </v>
    <v>       0.49685364       0.66602499       0.12877038 </v>
    <v>       0.49588871       0.66642826       0.62699336 </v>
    <v>       0.99644445       0.17186780       0.36345925 </v>
    <v>       0.00254589       0.16691926       0.87082813 </v>
    <v>       0.00232755       0.50000000       0.37261069 </v>
    <v>       0.00265565       0.50000000       0.87312937 </v>
    <v>       0.99644445       0.82813220       0.36345925 </v>
    <v>       0.00254589       0.83308074       0.87082813 </v>
    <v>       0.17068973       0.00000000       0.26811578 </v>
    <v>       0.17462898       0.00000000       0.78281167 </v>
    <v>       0.17184892       0.33196976       0.28146216 </v>
    <v>       0.17286256       0.33523501       0.78316474 </v>
    <v>       0.17184892       0.66803024       0.28146216 </v>
    <v>       0.17286256       0.66476499       0.78316474 </v>
    <v>       0.32765462       0.16767043       0.21987306 </v>
    <v>       0.33577026       0.17368311       0.73031576 </v>
    <v>       0.32613682       0.50000000       0.22008677 </v>
    <v>       0.32864501       0.50000000       0.72277515 </v>
    <v>       0.32765462       0.83232957       0.21987306 </v>
    <v>       0.33577026       0.82631689       0.73031576 </v>
    <v>       0.33574166       0.16571887       0.44602101 </v>
    <v>       0.33234681       0.16769077       0.94918498 </v>
    <v>       0.33235711       0.50000000       0.44650439 </v>
    <v>       0.33269503       0.50000000       0.94830456 </v>
    <v>       0.33574166       0.83428113       0.44602101 </v>
    <v>       0.33234681       0.83230923       0.94918498 </v>
    <v>       0.16894423       0.00000000       0.04980490 </v>
    <v>       0.16710892       0.33484262       0.05463649 </v>
    <v>       0.16804109       0.34059329       0.55482844 </v>
    <v>       0.16710892       0.66515738       0.05463649 </v>
    <v>       0.16804109       0.65940671       0.55482844 </v>
    <v>       0.20131132       0.00000000       0.54168000 </v>
   </varray>
  </structure>
  <varray name="primitive_index" >
   <v type="int" >        1 </v>
   <v type="int" >        2 </v>
   <v type="int" >        3 </v>
   <v type="int" >        4 </v>
   <v type="int" >        5 </v>
   <v type="int" >        6 </v>
   <v type="int" >        7 </v>
   <v type="int" >        8 </v>
   <v type="int" >        9 </v>
   <v type="int" >       10 </v>
   <v type="int" >       11 </v>
   <v type="int" >       12 </v>
   <v type="int" >       13 </v>
   <v type="int" >       14 </v>
   <v type="int" >       15 </v>
   <v type="int" >       16 </v>
   <v type="int" >       17 </v>
   <v type="int" >       18 </v>
   <v type="int" >       19 </v>
   <v type="int" >       20 </v>
   <v type="int" >       21 </v>
   <v type="int" >       22 </v>
   <v type="int" >       23 </v>
   <v type="int" >       24 </v>
   <v type="int" >       25 </v>
   <v type="int" >       26 </v>
   <v type="int" >       27 </v>
   <v type="int" >       28 </v>
   <v type="int" >       29 </v>
   <v type="int" >       30 </v>
   <v type="int" >       31 </v>
   <v type="int" >       32 </v>
   <v type="int" >       33 </v>
   <v type="int" >       34 </v>
   <v type="int" >       35 </v>
   <v type="int" >       36 </v>
   <v type="int" >       37 </v>
   <v type="int" >       38 </v>
   <v type="int" >       39 </v>
   <v type="int" >       40 </v>
   <v type="int" >       41 </v>
   <v type="int" >       42 </v>
   <v type="int" >       43 </v>
   <v type="int" >       44 </v>
   <v type="int" >       45 </v>
   <v type="int" >       46 </v>
   <v type="int" >       47 </v>
   <v type="int" >       48 </v>
   <v type="int" >       49 </v>
   <v type="int" >       50 </v>
   <v type="int" >       51 </v>
   <v type="int" >       52 </v>
   <v type="int" >       53 </v>
   <v type="int" >       54 </v>
   <v type="int" >       55 </v>
   <v type="int" >       56 </v>
   <v type="int" >       57 </v>
   <v type="int" >       58 </v>
   <v type="int" >       59 </v>
   <v type="int" >       60 </v>
   <v type="int" >       61 </v>
   <v type="int" >       62 </v>
   <v type="int" >       63 </v>
   <v type="int" >       64 </v>
   <v type="int" >       65 </v>
   <v type="int" >       66 </v>
   <v type="int" >       67 </v>
   <v type="int" >       68 </v>
   <v type="int" >       69 </v>
   <v type="int" >       70 </v>
   <v type="int" >       71 </v>
   <v type="int" >       72 </v>
   <v type="int" >       73 </v>
   <v type="int" >       74 </v>
   <v type="int" >       75 </v>
   <v type="int" >       76 </v>
   <v type="int" >       77 </v>
   <v type="int" >       78 </v>
   <v type="int" >       79 </v>
   <v type="int" >       80 </v>
   <v type="int" >       81 </v>
   <v type="int" >       82 </v>
   <v type="int" >       83 </v>
   <v type="int" >       84 </v>
   <v type="int" >       85 </v>
   <v type="int" >       86 </v>
   <v type="int" >       87 </v>
   <v type="int" >       88 </v>
   <v type="int" >       89 </v>
   <v type="int" >       90 </v>
   <v type="int" >       91 </v>
   <v type="int" >       92 </v>
   <v type="int" >       93 </v>
   <v type="int" >       94 </v>
   <v type="int" >       95 </v>
   <v type="int" >       96 </v>
   <v type="int" >       97 </v>
   <v type="int" >       98 </v>
   <v type="int" >       99 </v>
   <v type="int" >      100 </v>
   <v type="int" >      101 </v>
   <v type="int" >      102 </v>
   <v type="int" >      103 </v>
   <v type="int" >      104 </v>
   <v type="int" >      105 </v>
   <v type="int" >      106 </v>
   <v type="int" >      107 </v>
   <v type="int" >      108 </v>
   <v type="int" >      109 </v>
   <v type="int" >      110 </v>
   <v type="int" >      111 </v>
   <v type="int" >      112 </v>
   <v type="int" >      113 </v>
   <v type="int" >      114 </v>
   <v type="int" >      115 </v>
   <v type="int" >      116 </v>
   <v type="int" >      117 </v>
   <v type="int" >      118 </v>
   <v type="int" >      119 </v>
   <v type="int" >      120 </v>
  </varray>
 </primitive_cell>
 <kpoints>
  <generation param="Gamma">
   <v type="int" name="divisions">       2        2        2 </v>
   <v name="usershift">      0.00000000       0.00000000       0.00000000 </v>
   <v name="genvec1">      0.50000000       0.00000000       0.00000000 </v>
   <v name="genvec2">      0.00000000       0.50000000       0.00000000 </v>
   <v name="genvec3">      0.00000000       0.00000000       0.50000000 </v>
   <v name="shift">      0.00000000       0.00000000       0.00000000 </v>
  </generation>
  <varray name="kpointlist" >
   <v>       0.00000000       0.00000000       0.00000000 </v>
   <v>       0.50000000       0.00000000       0.00000000 </v>
   <v>       0.00000000       0.50000000       0.00000000 </v>
   <v>       0.50000000       0.50000000       0.00000000 </v>
   <v>       0.00000000       0.00000000       0.50000000 </v>
   <v>       0.50000000       0.00000000       0.50000000 </v>
   <v>       0.00000000       0.50000000       0.50000000 </v>
   <v>       0.50000000       0.50000000       0.50000000 </v>
  </varray>
  <varray name="weights" >
   <v>       0.12500000 </v>
   <v>       0.12500000 </v>
   <v>       0.12500000 </v>
   <v>       0.12500000 </v>
   <v>       0.12500000 </v>
   <v>       0.12500000 </v>
   <v>       0.12500000 </v>
   <v>       0.12500000 </v>
  </varray>
 </kpoints>
 <parameters>
  <separator name="general" >
   <i type="string" name="SYSTEM">unknown system</i>
   <i type="logical" name="LCOMPAT"> F  </i>
  </separator>
  <separator name="electronic" >
   <i type="string" name="PREC">normal</i>
   <i name="ENMAX">    450.00000000</i>
   <i name="ENAUG">    605.39200000</i>
   <i name="EDIFF">      0.00001000</i>
   <i type="int" name="IALGO">    58</i>
   <i type="int" name="IWAVPR">    10</i>
   <i type="int" name="NBANDS">   633</i>
   <i type="int" name="NBANDSLOW">    -1</i>
   <i type="int" name="NBANDSHIGH">    -1</i>
   <i name="NELECT">   1055.00000000</i>
   <i type="int" name="TURBO">     0</i>
   <i type="int" name="IRESTART">     0</i>
   <i type="int" name="NREBOOT">     0</i>
   <i type="int" name="NMIN">     0</i>
   <i name="EREF">      0.00000000</i>
   <separator name="electronic smearing" >
    <i type="int" name="ISMEAR">     0</i>
    <i name="SIGMA">      0.05000000</i>
    <i name="KSPACING">      0.50000000</i>
    <i type="logical" name="KGAMMA"> T  </i>
    <i type="logical" name="KBLOWUP"> T  </i>
   </separator>
   <separator name="electronic projectors" >
    <i type="logical" name="LREAL"> T  </i>
    <v name="ROPT">     -0.00050000     -0.00050000     -0.00050000</v>
    <i type="int" name="LMAXPAW">  -100</i>
    <i type="int" name="LMAXMIX">     2</i>
    <i type="logical" name="NLSPLINE"> F  </i>
   </separator>
   <separator name="electronic startup" >
    <i type="int" name="ISTART">     0</i>
    <i type="int" name="ICHARG">     0</i>
    <i type="int" name="INIWAV">     1</i>
   </separator>
   <separator name="electronic spin" >
    <i type="int" name="ISPIN">     1</i>
    <i type="logical" name="LNONCOLLINEAR"> F  </i>
    <v name="MAGMOM">      1.00000000      1.00000000      1.00000000      1.00000000      1.00000000      1.00000000      1.00000000      1.00000000      1.00000000      1.00000000      1.00000000      1.00000000      1.00000000      1.00000000      1.00000000      1.00000000      1.00000000      1.00000000      1.00000000      1.00000000
      1.00000000      1.00000000      1.00000000      1.00000000      1.00000000      1.00000000      1.00000000      1.00000000      1.00000000      1.00000000      1.00000000      1.00000000      1.00000000      1.00000000      1.00000000      1.00000000      1.00000000      1.00000000      1.00000000      1.00000000
      1.00000000      1.00000000      1.00000000      1.00000000      1.00000000      1.00000000      1.00000000      1.00000000      1.00000000      1.00000000      1.00000000      1.00000000      1.00000000      1.00000000      1.00000000      1.00000000      1.00000000      1.00000000      1.00000000      1.00000000
      1.00000000      1.00000000      1.00000000      1.00000000      1.00000000      1.00000000      1.00000000      1.00000000      1.00000000      1.00000000      1.00000000      1.00000000      1.00000000      1.00000000      1.00000000      1.00000000      1.00000000      1.00000000      1.00000000      1.00000000
      1.00000000      1.00000000      1.00000000      1.00000000      1.00000000      1.00000000      1.00000000      1.00000000      1.00000000      1.00000000      1.00000000      1.00000000      1.00000000      1.00000000      1.00000000      1.00000000      1.00000000      1.00000000      1.00000000      1.00000000
      1.00000000      1.00000000      1.00000000      1.00000000      1.00000000      1.00000000      1.00000000      1.00000000      1.00000000      1.00000000      1.00000000      1.00000000      1.00000000      1.00000000      1.00000000      1.00000000      1.00000000      1.00000000      1.00000000      1.00000000
</v>
    <i name="NUPDOWN">     -1.00000000</i>
    <i type="logical" name="LSORBIT"> F  </i>
    <v name="SAXIS">      0.00000000      0.00000000      1.00000000</v>
    <i type="logical" name="LSPIRAL"> F  </i>
    <v name="QSPIRAL">      0.00000000      0.00000000      0.00000000</v>
    <i type="logical" name="LZEROZ"> F  </i>
   </separator>
   <separator name="electronic exchange-correlation" >
    <i type="logical" name="LASPH"> F  </i>
    <i type="logical" name="LMETAGGA"> F  </i>
   </separator>
   <separator name="electronic convergence" >
    <i type="int" name="NELM">   500</i>
    <i type="int" name="NELMDL">    -5</i>
    <i type="int" name="NELMIN">     2</i>
    <i name="ENINI">    450.00000000</i>
    <separator name="electronic convergence detail" >
     <i type="logical" name="LDIAG"> T  </i>
     <i type="logical" name="LSUBROT"> F  </i>
     <i name="WEIMIN">      0.00000000</i>
     <i name="EBREAK">      0.00000000</i>
     <i name="DEPER">      0.30000000</i>
     <i type="int" name="NRMM">     4</i>
     <i name="TIME">      0.40000000</i>
    </separator>
   </separator>
   <separator name="electronic mixer" >
    <i name="AMIX">      0.40000000</i>
    <i name="BMIX">      1.00000000</i>
    <i name="AMIN">      0.10000000</i>
    <i name="AMIX_MAG">      1.60000000</i>
    <i name="BMIX_MAG">      1.00000000</i>
    <separator name="electronic mixer details" >
     <i type="int" name="IMIX">     4</i>
     <i type="logical" name="MIXFIRST"> F  </i>
     <i type="int" name="MAXMIX">   -45</i>
     <i name="WC">    100.00000000</i>
     <i type="int" name="INIMIX">     1</i>
     <i type="int" name="MIXPRE">     1</i>
     <i type="int" name="MREMOVE">     5</i>
    </separator>
   </separator>
   <separator name="electronic dipolcorrection" >
    <i type="logical" name="LDIPOL"> F  </i>
    <i type="logical" name="LMONO"> F  </i>
    <i type="int" name="IDIPOL">     0</i>
    <i name="EPSILON">      1.00000000</i>
    <v name="DIPOL">   -100.00000000   -100.00000000   -100.00000000</v>
    <i name="EFIELD">      0.00000000</i>
   </separator>
  </separator>
  <separator name="grids" >
   <i type="int" name="NGX">    64</i>
   <i type="int" name="NGY">    48</i>
   <i type="int" name="NGZ">    60</i>
   <i type="int" name="NGXF">   128</i>
   <i type="int" name="NGYF">    96</i>
   <i type="int" name="NGZF">   120</i>
   <i type="logical" name="ADDGRID"> F  </i>
  </separator>
  <separator name="ionic" >
   <i type="int" name="NSW">     0</i>
   <i type="int" name="IBRION">    -1</i>
   <i type="int" name="MDALGO">     0</i>
   <i type="int" name="ISIF">     2</i>
   <i name="PSTRESS">      0.00000000</i>
   <i name="EDIFFG">     -0.00500000</i>
   <i type="int" name="NFREE">     0</i>
   <i name="POTIM">      0.50000000</i>
   <i name="SMASS">     -3.00000000</i>
   <i name="SCALEE">      1.00000000</i>
  </separator>
  <separator name="ionic md" >
   <i name="TEBEG">      0.00010000</i>
   <i name="TEEND">      0.00010000</i>
   <i type="int" name="NBLOCK">     1</i>
   <i type="int" name="KBLOCK">     1</i>
   <i type="int" name="NPACO">   256</i>
   <i name="APACO">     10.00000000</i>
  </separator>
  <separator name="symmetry" >
   <i type="int" name="ISYM">     3</i>
   <i name="SYMPREC">      0.00001000</i>
  </separator>
  <separator name="dos" >
   <i type="int" name="LORBIT">     0</i>
   <v name="RWIGS">     -1.00000000     -1.00000000     -1.00000000</v>
   <i type="int" name="NEDOS">   301</i>
   <i name="EMIN">     10.00000000</i>
   <i name="EMAX">    -10.00000000</i>
   <i name="EFERMI">      0.00000000</i>
  </separator>
  <separator name="writing" >
   <i type="int" name="NWRITE">     2</i>
   <i type="logical" name="LWAVE"> T  </i>
   <i type="logical" name="LDOWNSAMPLE"> F  </i>
   <i type="logical" name="LCHARG"> T  </i>
   <i type="logical" name="LPARD"> F  </i>
   <i type="logical" name="LVTOT"> F  </i>
   <i type="logical" name="LVHAR"> F  </i>
   <i type="logical" name="LELF"> F  </i>
   <i type="logical" name="LOPTICS"> F  </i>
   <v name="STM">      0.00000000      0.00000000      0.00000000      0.00000000      0.00000000      0.00000000      0.00000000</v>
  </separator>
  <separator name="performance" >
   <i type="int" name="NPAR">     1</i>
   <i type="int" name="NSIM">     4</i>
   <i type="int" name="NBLK">    -1</i>
   <i type="logical" name="LPLANE"> T  </i>
   <i type="logical" name="LSCALAPACK"> T  </i>
   <i type="logical" name="LSCAAWARE"> F  </i>
   <i type="logical" name="LSCALU"> F  </i>
   <i type="logical" name="LASYNC"> F  </i>
   <i type="logical" name="LORBITALREAL"> F  </i>
  </separator>
  <separator name="miscellaneous" >
   <i type="int" name="IDIOT">     3</i>
   <i type="int" name="PHON_NSTRUCT">    -1</i>
   <i type="logical" name="LMUSIC"> F  </i>
   <v name="POMASS">     69.72300000     16.00000000     30.97400000</v>
   <v name="DARWINR">      0.00000000      0.00000000      0.00000000</v>
   <v name="DARWINV">      1.00000000      1.00000000      1.00000000</v>
   <i type="logical" name="LCORR"> T  </i>
  </separator>
  <i type="logical" name="GGA_COMPAT"> T  </i>
  <i type="logical" name="LBERRY"> F  </i>
  <i type="int" name="ICORELEVEL">     0</i>
  <i type="logical" name="LDAU"> F  </i>
  <i type="int" name="I_CONSTRAINED_M">     0</i>
  <separator name="electronic exchange-correlation" >
   <i type="string" name="GGA">--</i>
   <i type="int" name="VOSKOWN">     0</i>
   <i type="logical" name="LHFCALC"> T  </i>
   <i type="string" name="PRECFOCK">fast</i>
   <i type="logical" name="LSYMGRAD"> F  </i>
   <i type="logical" name="LHFONE"> F  </i>
   <i type="logical" name="LRHFCALC"> F  </i>
   <i type="logical" name="LTHOMAS"> F  </i>
   <i type="logical" name="LMODELHF"> F  </i>
   <i type="logical" name="LFOCKACE"> T  </i>
   <i name="ENCUT4O">     -1.00000000</i>
   <i type="int" name="EXXOEP">     0</i>
   <i type="int" name="FOURORBIT">     0</i>
   <i name="AEXX">      0.35000000</i>
   <i name="HFALPHA">     -1.00000000</i>
   <i name="MCALPHA">      0.00000000</i>
   <i name="ALDAX">      0.65000000</i>
   <i name="AGGAX">      0.65000000</i>
   <i name="ALDAC">      1.00000000</i>
   <i name="AGGAC">      1.00000000</i>
   <i type="int" name="NKREDX">     1</i>
   <i type="int" name="NKREDY">     1</i>
   <i type="int" name="NKREDZ">     1</i>
   <i type="logical" name="SHIFTRED"> F  </i>
   <i type="logical" name="ODDONLY"> F  </i>
   <i type="logical" name="EVENONLY"> F  </i>
   <i type="int" name="LMAXFOCK">     4</i>
   <i type="int" name="NMAXFOCKAE">     1</i>
   <i type="logical" name="LFOCKAEDFT"> F  </i>
   <i name="HFSCREEN">      0.18000000</i>
   <i name="HFSCREENC">      0.18000000</i>
   <i type="int" name="NBANDSGWLOW">     1</i>
  </separator>
  <separator name="vdW DFT" >
   <i type="logical" name="LUSE_VDW"> F  </i>
   <i type="int" name="IVDW_NL">     1</i>
   <i type="logical" name="LSPIN_VDW"> F  </i>
   <i name="Zab_VDW">     -0.84910000</i>
   <i name="PARAM1">      0.12340000</i>
   <i name="PARAM2">      1.00000000</i>
   <i name="PARAM3">      0.00000000</i>
  </separator>
  <separator name="model GW" >
   <i type="int" name="MODEL_GW">     0</i>
   <i name="MODEL_EPS0">      6.34402578</i>
   <i name="MODEL_ALPHA">      1.00000000</i>
  </separator>
  <separator name="linear response parameters" >
   <i type="logical" name="LEPSILON"> F  </i>
   <i type="logical" name="LRPA"> F  </i>
   <i type="logical" name="LNABLA"> F  </i>
   <i type="logical" name="LVEL"> F  </i>
   <i name="CSHIFT">      0.10000000</i>
   <i name="OMEGAMAX">     -1.00000000</i>
   <i name="DEG_THRESHOLD">      0.00200000</i>
   <i name="RTIME">     -0.10000000</i>
   <i name="WPLASMAI">      0.00000000</i>
   <v name="DFIELD">      0.00000000      0.00000000      0.00000000</v>
   <v name="WPLASMA">      0.00000000      0.00000000      0.00000000      0.00000000      0.00000000      0.00000000      0.00000000      0.00000000      0.00000000</v>
  </separator>
  <separator name="orbital magnetization" >
   <i type="logical" name="NUCIND"> F  </i>
   <v name="MAGPOS">      0.00000000      0.00000000      0.00000000</v>
   <i type="logical" name="LNICSALL"> T  </i>
   <i type="logical" name="ORBITALMAG"> F  </i>
   <i type="logical" name="LMAGBLOCH"> F  </i>
   <i type="logical" name="LCHIMAG"> F  </i>
   <i type="logical" name="LGAUGE"> T  </i>
   <i type="int" name="MAGATOM">     0</i>
   <v name="MAGDIPOL">      0.00000000      0.00000000      0.00000000</v>
   <v name="AVECCONST">      0.00000000      0.00000000      0.00000000</v>
  </separator>
  <separator name="response functions" >
   <i type="logical" name="LALL_IN_ONE"> F  </i>
   <i type="int" name="IALL_IN_ONE">    -1</i>
   <i type="int" name="NBANDS_WAVE">    -1</i>
   <i type="logical" name="LFINITE_TEMPERATURE"> F  </i>
   <i type="logical" name="LADDER"> F  </i>
   <i type="logical" name="LRPAFORCE"> F  </i>
   <i type="logical" name="LFXC"> F  </i>
   <i type="logical" name="LHARTREE"> T  </i>
   <i type="int" name="IBSE">     0</i>
   <v type="int" name="KPOINT">    -1     0     0     0</v>
   <i type="logical" name="LTCTC"> F  </i>
   <i type="logical" name="LTCTE"> F  </i>
   <i type="logical" name="LTETE"> F  </i>
   <i type="logical" name="LTRIPLET"> F  </i>
   <i type="logical" name="LFXCEPS"> F  </i>
   <i type="logical" name="LFXHEG"> F  </i>
   <i type="int" name="NATURALO">     2</i>
   <i type="logical" name="LHOLEGF"> F  </i>
   <i type="logical" name="L2ORDER"> F  </i>
   <i type="logical" name="LDMP1"> F  </i>
   <i type="logical" name="LMP2LT"> F  </i>
   <i type="logical" name="LSMP2LT"> F  </i>
   <i type="logical" name="LGWLF"> F  </i>
   <i name="ENCUTGW">     -1.60000002</i>
   <i name="ENCUTGWSOFT">     -1.60000002</i>
   <i name="ENCUTLF">     -1.00000000</i>
   <i type="logical" name="LESF_SPLINES"> F  </i>
   <i type="int" name="LMAXMP2">    -1</i>
   <i name="SCISSOR">      0.00000000</i>
   <i type="int" name="NOMEGA">     0</i>
   <i type="int" name="NOMEGAR">     0</i>
   <i type="int" name="NBANDSGW">    -1</i>
   <i type="int" name="NBANDSO">    -1</i>
   <i type="int" name="NBANDSV">    -1</i>
   <i type="int" name="NELMGW">     1</i>
   <i type="int" name="NELMHF">     1</i>
   <i type="int" name="DIM">     3</i>
   <i type="int" name="IESPILON">     4</i>
   <i type="int" name="ANTIRES">     0</i>
   <i name="OMEGAMAX">    -30.00000000</i>
   <i name="OMEGAMIN">    -30.00000000</i>
   <i name="OMEGATL">   -200.00000000</i>
   <i type="int" name="OMEGAGRID">     0</i>
   <i name="CSHIFT">     -0.10000000</i>
   <i type="logical" name="LSELFENERGY"> F  </i>
   <i type="logical" name="LSPECTRAL"> F  </i>
   <i type="logical" name="LSPECTRALGW"> F  </i>
   <i type="logical" name="LSINGLES"> F  </i>
   <i type="logical" name="LFERMIGW"> F  </i>
   <i type="logical" name="ODDONLYGW"> F  </i>
   <i type="logical" name="EVENONLYGW"> F  </i>
   <i type="int" name="NKREDLFX">     1</i>
   <i type="int" name="NKREDLFY">     1</i>
   <i type="int" name="NKREDLFZ">     1</i>
   <i type="int" name="MAXMEM">  2800</i>
   <i type="int" name="TELESCOPE">     0</i>
   <i type="int" name="NTAUPAR">    -1</i>
   <i type="int" name="NOMEGAPAR">    -1</i>
   <i name="DAMP_NEWTON">      0.80000001</i>
   <i name="LAMBDA">      1.00000000</i>
  </separator>
  <separator name="External order field" >
   <i name="OFIELD_KAPPA">      0.00000000</i>
   <v name="OFIELD_K">      0.00000000      0.00000000      0.00000000</v>
   <i name="OFIELD_Q6_NEAR">      0.00000000</i>
   <i name="OFIELD_Q6_FAR">      0.00000000</i>
   <i name="OFIELD_A">      0.00000000</i>
  </separator>
  <separator name="optional k-points parameters" >
   <i type="int" name="KPOINTS_OPT_MODE">     1</i>
   <i type="logical" name="LKPOINTS_OPT"> F  </i>
  </separator>
 </parameters>
 <atominfo>
  <atoms>     120 </atoms>
  <types>       3 </types>
  <array name="atoms" >
   <dimension dim="1">ion</dimension>
   <field type="string">element</field>
   <field type="int">atomtype</field>
   <set>
    <rc><c>Ga</c><c>   1</c></rc>
    <rc><c>Ga</c><c>   1</c></rc>
    <rc><c>Ga</c><c>   1</c></rc>
    <rc><c>Ga</c><c>   1</c></rc>
    <rc><c>Ga</c><c>   1</c></rc>
    <rc><c>Ga</c><c>   1</c></rc>
    <rc><c>Ga</c><c>   1</c></rc>
    <rc><c>Ga</c><c>   1</c></rc>
    <rc><c>Ga</c><c>   1</c></rc>
    <rc><c>Ga</c><c>   1</c></rc>
    <rc><c>Ga</c><c>   1</c></rc>
    <rc><c>Ga</c><c>   1</c></rc>
    <rc><c>Ga</c><c>   1</c></rc>
    <rc><c>Ga</c><c>   1</c></rc>
    <rc><c>Ga</c><c>   1</c></rc>
    <rc><c>Ga</c><c>   1</c></rc>
    <rc><c>Ga</c><c>   1</c></rc>
    <rc><c>Ga</c><c>   1</c></rc>
    <rc><c>Ga</c><c>   1</c></rc>
    <rc><c>Ga</c><c>   1</c></rc>
    <rc><c>Ga</c><c>   1</c></rc>
    <rc><c>Ga</c><c>   1</c></rc>
    <rc><c>Ga</c><c>   1</c></rc>
    <rc><c>Ga</c><c>   1</c></rc>
    <rc><c>Ga</c><c>   1</c></rc>
    <rc><c>Ga</c><c>   1</c></rc>
    <rc><c>Ga</c><c>   1</c></rc>
    <rc><c>Ga</c><c>   1</c></rc>
    <rc><c>Ga</c><c>   1</c></rc>
    <rc><c>Ga</c><c>   1</c></rc>
    <rc><c>Ga</c><c>   1</c></rc>
    <rc><c>Ga</c><c>   1</c></rc>
    <rc><c>Ga</c><c>   1</c></rc>
    <rc><c>Ga</c><c>   1</c></rc>
    <rc><c>Ga</c><c>   1</c></rc>
    <rc><c>Ga</c><c>   1</c></rc>
    <rc><c>Ga</c><c>   1</c></rc>
    <rc><c>Ga</c><c>   1</c></rc>
    <rc><c>Ga</c><c>   1</c></rc>
    <rc><c>Ga</c><c>   1</c></rc>
    <rc><c>Ga</c><c>   1</c></rc>
    <rc><c>Ga</c><c>   1</c></rc>
    <rc><c>Ga</c><c>   1</c></rc>
    <rc><c>Ga</c><c>   1</c></rc>
    <rc><c>Ga</c><c>   1</c></rc>
    <rc><c>Ga</c><c>   1</c></rc>
    <rc><c>Ga</c><c>   1</c></rc>
    <rc><c>Ga</c><c>   1</c></rc>
    <rc><c>O </c><c>   2</c></rc>
    <rc><c>O </c><c>   2</c></rc>
    <rc><c>O </c><c>   2</c></rc>
    <rc><c>O </c><c>   2</c></rc>
    <rc><c>O </c><c>   2</c></rc>
    <rc><c>O </c><c>   2</c></rc>
    <rc><c>O </c><c>   2</c></rc>
    <rc><c>O </c><c>   2</c></rc>
    <rc><c>O </c><c>   2</c></rc>
    <rc><c>O </c><c>   2</c></rc>
    <rc><c>O </c><c>   2</c></rc>
    <rc><c>O </c><c>   2</c></rc>
    <rc><c>O </c><c>   2</c></rc>
    <rc><c>O </c><c>   2</c></rc>
    <rc><c>O </c><c>   2</c></rc>
    <rc><c>O </c><c>   2</c></rc>
    <rc><c>O </c><c>   2</c></rc>
    <rc><c>O </c><c>   2</c></rc>
    <rc><c>O </c><c>   2</c></rc>
    <rc><c>O </c><c>   2</c></rc>
    <rc><c>O </c><c>   2</c></rc>
    <rc><c>O </c><c>   2</c></rc>
    <rc><c>O </c><c>   2</c></rc>
    <rc><c>O </c><c>   2</c></rc>
    <rc><c>O </c><c>   2</c></rc>
    <rc><c>O </c><c>   2</c></rc>
    <rc><c>O </c><c>   2</c></rc>
    <rc><c>O </c><c>   2</c></rc>
    <rc><c>O </c><c>   2</c></rc>
    <rc><c>O </c><c>   2</c></rc>
    <rc><c>O </c><c>   2</c></rc>
    <rc><c>O </c><c>   2</c></rc>
    <rc><c>O </c><c>   2</c></rc>
    <rc><c>O </c><c>   2</c></rc>
    <rc><c>O </c><c>   2</c></rc>
    <rc><c>O </c><c>   2</c></rc>
    <rc><c>O </c><c>   2</c></rc>
    <rc><c>O </c><c>   2</c></rc>
    <rc><c>O </c><c>   2</c></rc>
    <rc><c>O </c><c>   2</c></rc>
    <rc><c>O </c><c>   2</c></rc>
    <rc><c>O </c><c>   2</c></rc>
    <rc><c>O </c><c>   2</c></rc>
    <rc><c>O </c><c>   2</c></rc>
    <rc><c>O </c><c>   2</c></rc>
    <rc><c>O </c><c>   2</c></rc>
    <rc><c>O </c><c>   2</c></rc>
    <rc><c>O </c><c>   2</c></rc>
    <rc><c>O </c><c>   2</c></rc>
    <rc><c>O </c><c>   2</c></rc>
    <rc><c>O </c><c>   2</c></rc>
    <rc><c>O </c><c>   2</c></rc>
    <rc><c>O </c><c>   2</c></rc>
    <rc><c>O </c><c>   2</c></rc>
    <rc><c>O </c><c>   2</c></rc>
    <rc><c>O </c><c>   2</c></rc>
    <rc><c>O </c><c>   2</c></rc>
    <rc><c>O </c><c>   2</c></rc>
    <rc><c>O </c><c>   2</c></rc>
    <rc><c>O </c><c>   2</c></rc>
    <rc><c>O </c><c>   2</c></rc>
    <rc><c>O </c><c>   2</c></rc>
    <rc><c>O </c><c>   2</c></rc>
    <rc><c>O </c><c>   2</c></rc>
    <rc><c>O </c><c>   2</c></rc>
    <rc><c>O </c><c>   2</c></rc>
    <rc><c>O </c><c>   2</c></rc>
    <rc><c>O </c><c>   2</c></rc>
    <rc><c>O </c><c>   2</c></rc>
    <rc><c>O </c><c>   2</c></rc>
    <rc><c>O </c><c>   2</c></rc>
    <rc><c>P </c><c>   3</c></rc>
   </set>
  </array>
  <array name="atomtypes" >
   <dimension dim="1">type</dimension>
   <field type="int">atomspertype</field>
   <field type="string">element</field>
   <field>mass</field>
   <field>valence</field>
   <field type="string">pseudopotential</field>
   <set>
    <rc><c>  48</c><c>Ga</c><c>     69.72300000</c><c>     13.00000000</c><c>  PAW_PBE Ga_d 06Jul2010                </c></rc>
    <rc><c>  71</c><c>O </c><c>     16.00000000</c><c>      6.00000000</c><c>   PAW_PBE O 08Apr2002                  </c></rc>
    <rc><c>   1</c><c>P </c><c>     30.97400000</c><c>      5.00000000</c><c>  PAW_PBE P 06Sep2000                   </c></rc>
   </set>
  </array>
 </atominfo>
 <structure name="initialpos" >
  <crystal>
   <varray name="basis" >
    <v>       0.00000000      12.28047342       0.00000000 </v>
    <v>       9.14270205       0.00000000       0.00000000 </v>
    <v>       0.00000000      -2.76826177     -11.30069772 </v>
   </varray>
   <i name="volume">   1268.80515525 </i>
   <varray name="rec_basis" >
    <v>       0.00000000       0.08143009      -0.01994742 </v>
    <v>       0.10937686      -0.00000000       0.00000000 </v>
    <v>       0.00000000       0.00000000      -0.08849011 </v>
   </varray>
  </crystal>
  <varray name="positions" >
   <v>       0.65891599       0.00000000       0.15597142 </v>
   <v>       0.65941879       0.00000000       0.65602134 </v>
   <v>       0.65874031       0.33392692       0.15628865 </v>
   <v>       0.65815433       0.33337633       0.65617085 </v>
   <v>       0.65874031       0.66607308       0.15628865 </v>
   <v>       0.65815433       0.66662367       0.65617085 </v>
   <v>       0.83675626       0.16799049       0.34270879 </v>
   <v>       0.83999728       0.16722953       0.84217595 </v>
   <v>       0.84009126       0.50000000       0.34270533 </v>
   <v>       0.84031631       0.50000000       0.84303102 </v>
   <v>       0.83675626       0.83200951       0.34270879 </v>
   <v>       0.83999728       0.83277047       0.84217595 </v>
   <v>       0.58984556       0.16715905       0.39779286 </v>
   <v>       0.59209111       0.16655609       0.89801136 </v>
   <v>       0.59075698       0.50000000       0.39789338 </v>
   <v>       0.59476716       0.50000000       0.89907114 </v>
   <v>       0.58984556       0.83284095       0.39779286 </v>
   <v>       0.59209111       0.83344391       0.89801136 </v>
   <v>       0.90607561       0.00000000       0.09956758 </v>
   <v>       0.90952406       0.00000000       0.60164915 </v>
   <v>       0.90776520       0.33292620       0.10264792 </v>
   <v>       0.90767538       0.33359622       0.60179729 </v>
   <v>       0.90776520       0.66707380       0.10264792 </v>
   <v>       0.90767538       0.66640378       0.60179729 </v>
   <v>       0.15874959       0.16633240       0.15250428 </v>
   <v>       0.16098052       0.17793969       0.66319163 </v>
   <v>       0.15726680       0.50000000       0.15895989 </v>
   <v>       0.15879605       0.50000000       0.65890840 </v>
   <v>       0.15874959       0.83366760       0.15250428 </v>
   <v>       0.16098052       0.82206031       0.66319163 </v>
   <v>       0.34121679       0.00000000       0.33983326 </v>
   <v>       0.34239687       0.00000000       0.84756535 </v>
   <v>       0.33994931       0.33454927       0.34337181 </v>
   <v>       0.34513905       0.33454584       0.84761066 </v>
   <v>       0.33994931       0.66545073       0.34337181 </v>
   <v>       0.34513905       0.66545416       0.84761066 </v>
   <v>       0.07582916       0.00000000       0.37229854 </v>
   <v>       0.08960343       0.00000000       0.89555877 </v>
   <v>       0.08994384       0.33305121       0.39910539 </v>
   <v>       0.08947637       0.33347483       0.89875841 </v>
   <v>       0.08994384       0.66694879       0.39910539 </v>
   <v>       0.08947637       0.66652517       0.89875841 </v>
   <v>       0.41042883       0.16685733       0.10425497 </v>
   <v>       0.40916244       0.16592797       0.60625163 </v>
   <v>       0.40923333       0.50000000       0.10471703 </v>
   <v>       0.40787874       0.50000000       0.60383110 </v>
   <v>       0.41042883       0.83314267       0.10425497 </v>
   <v>       0.40916244       0.83407203       0.60625163 </v>
   <v>       0.99522024       0.16584021       0.12380773 </v>
   <v>       0.99660115       0.16732300       0.62591100 </v>
   <v>       0.99513691       0.50000000       0.12744488 </v>
   <v>       0.99529911       0.50000000       0.62889730 </v>
   <v>       0.99522024       0.83415979       0.12380773 </v>
   <v>       0.99660115       0.83267700       0.62591100 </v>
   <v>       0.50341227       0.00000000       0.37233325 </v>
   <v>       0.50498067       0.00000000       0.87591909 </v>
   <v>       0.50265859       0.33377677       0.37270979 </v>
   <v>       0.50714925       0.33471456       0.87672357 </v>
   <v>       0.50265859       0.66622323       0.37270979 </v>
   <v>       0.50714925       0.66528544       0.87672357 </v>
   <v>       0.67097342       0.16664721       0.28027401 </v>
   <v>       0.67212086       0.16681280       0.77975146 </v>
   <v>       0.67159713       0.50000000       0.28064928 </v>
   <v>       0.67288074       0.50000000       0.77977663 </v>
   <v>       0.67097342       0.83335279       0.28027401 </v>
   <v>       0.67212086       0.83318720       0.77975146 </v>
   <v>       0.82638632       0.00000000       0.21845775 </v>
   <v>       0.82751851       0.00000000       0.71841648 </v>
   <v>       0.82548331       0.33436759       0.21875638 </v>
   <v>       0.82683624       0.33312436       0.71930764 </v>
   <v>       0.82548331       0.66563241       0.21875638 </v>
   <v>       0.82683624       0.66687564       0.71930764 </v>
   <v>       0.83202381       0.00000000       0.44529820 </v>
   <v>       0.82995320       0.00000000       0.94343832 </v>
   <v>       0.83013580       0.33412586       0.44577688 </v>
   <v>       0.83156958       0.33333106       0.94552224 </v>
   <v>       0.83013580       0.66587414       0.44577688 </v>
   <v>       0.83156958       0.66666894       0.94552224 </v>
   <v>       0.66859245       0.16675171       0.05470606 </v>
   <v>       0.66764664       0.16687549       0.55379212 </v>
   <v>       0.67010993       0.50000000       0.05538302 </v>
   <v>       0.66761655       0.50000000       0.55424629 </v>
   <v>       0.66859245       0.83324829       0.05470606 </v>
   <v>       0.66764664       0.83312451       0.55379212 </v>
   <v>       0.49711133       0.00000000       0.12889227 </v>
   <v>       0.49759388       0.00000000       0.62900314 </v>
   <v>       0.49685364       0.33397501       0.12877038 </v>
   <v>       0.49588871       0.33357174       0.62699336 </v>
   <v>       0.49685364       0.66602499       0.12877038 </v>
   <v>       0.49588871       0.66642826       0.62699336 </v>
   <v>       0.99644445       0.17186780       0.36345925 </v>
   <v>       0.00254589       0.16691926       0.87082813 </v>
   <v>       0.00232755       0.50000000       0.37261069 </v>
   <v>       0.00265565       0.50000000       0.87312937 </v>
   <v>       0.99644445       0.82813220       0.36345925 </v>
   <v>       0.00254589       0.83308074       0.87082813 </v>
   <v>       0.17068973       0.00000000       0.26811578 </v>
   <v>       0.17462898       0.00000000       0.78281167 </v>
   <v>       0.17184892       0.33196976       0.28146216 </v>
   <v>       0.17286256       0.33523501       0.78316474 </v>
   <v>       0.17184892       0.66803024       0.28146216 </v>
   <v>       0.17286256       0.66476499       0.78316474 </v>
   <v>       0.32765462       0.16767043       0.21987306 </v>
   <v>       0.33577026       0.17368311       0.73031576 </v>
   <v>       0.32613682       0.50000000       0.22008677 </v>
   <v>       0.32864501       0.50000000       0.72277515 </v>
   <v>       0.32765462       0.83232957       0.21987306 </v>
   <v>       0.33577026       0.82631689       0.73031576 </v>
   <v>       0.33574166       0.16571887       0.44602101 </v>
   <v>       0.33234681       0.16769077       0.94918498 </v>
   <v>       0.33235711       0.50000000       0.44650439 </v>
   <v>       0.33269503       0.50000000       0.94830456 </v>
   <v>       0.33574166       0.83428113       0.44602101 </v>
   <v>       0.33234681       0.83230923       0.94918498 </v>
   <v>       0.16894423       0.00000000       0.04980490 </v>
   <v>       0.16710892       0.33484262       0.05463649 </v>
   <v>       0.16804109       0.34059329       0.55482844 </v>
   <v>       0.16710892       0.66515738       0.05463649 </v>
   <v>       0.16804109       0.65940671       0.55482844 </v>
   <v>       0.20131132       0.00000000       0.54168000 </v>
  </varray>
 </structure>
 <calculation>
  <scstep>
   <time name="total">    4.05    4.06</time>
   <energy>
    <i name="alphaZ">   5529.70323211 </i>
    <i name="ewald"> -88670.66536753 </i>
    <i name="hartreedc">  -2118.48667416 </i>
    <i name="XCdc">   2792.01919368 </i>
    <i name="pawpsdc"> 342745.65667386 </i>
    <i name="pawaedc">-374694.66116116 </i>
    <i name="eentropy">     -0.01387278 </i>
    <i name="bandstr"> -40850.04007762 </i>
    <i name="atom"> 133605.80973787 </i>
    <i name="e_fr_energy"> -21660.67831573 </i>
    <i name="e_wo_entrp"> -21660.66444294 </i>
    <i name="e_0_energy"> -21660.67137934 </i>
   </energy>
  </scstep>
  <scstep>
   <time name="total">    3.24    3.24</time>
   <energy>
    <i name="e_fr_energy"> -66054.33813758 </i>
    <i name="e_wo_entrp"> -66054.32520385 </i>
    <i name="e_0_energy"> -66054.33167072 </i>
   </energy>
  </scstep>
  <scstep>
   <time name="total">    3.39    3.39</time>
   <energy>
    <i name="e_fr_energy"> -70764.38977477 </i>
    <i name="e_wo_entrp"> -70764.35214756 </i>
    <i name="e_0_energy"> -70764.37096116 </i>
   </energy>
  </scstep>
  <scstep>
   <time name="total">    3.80    3.80</time>
   <energy>
    <i name="e_fr_energy"> -71367.08987264 </i>
    <i name="e_wo_entrp"> -71367.05398243 </i>
    <i name="e_0_energy"> -71367.07192753 </i>
   </energy>
  </scstep>
  <scstep>
   <time name="total">  236.53  236.61</time>
   <energy>
    <i name="e_fr_energy"> -38258.48463331 </i>
    <i name="e_wo_entrp"> -38258.46305263 </i>
    <i name="e_0_energy"> -38258.47384297 </i>
   </energy>
  </scstep>
  <scstep>
   <time name="total">  471.66  471.64</time>
   <energy>
    <i name="e_fr_energy">  22599.87092338 </i>
    <i name="e_wo_entrp">  22599.89660365 </i>
    <i name="e_0_energy">  22599.88376352 </i>
   </energy>
  </scstep>
  <scstep>
   <time name="total">  472.01  472.00</time>
   <energy>
    <i name="e_fr_energy">   5477.00178583 </i>
    <i name="e_wo_entrp">   5477.03157803 </i>
    <i name="e_0_energy">   5477.01668193 </i>
   </energy>
  </scstep>
  <scstep>
   <time name="total">  472.24  472.24</time>
   <energy>
    <i name="e_fr_energy">   1531.29277105 </i>
    <i name="e_wo_entrp">   1531.35004413 </i>
    <i name="e_0_energy">   1531.32140759 </i>
   </energy>
  </scstep>
  <scstep>
   <time name="total">  471.83  471.82</time>
   <energy>
    <i name="e_fr_energy">    638.26442298 </i>
    <i name="e_wo_entrp">    638.30903941 </i>
    <i name="e_0_energy">    638.28673119 </i>
   </energy>
  </scstep>
  <scstep>
   <time name="total">  472.52  472.51</time>
   <energy>
    <i name="e_fr_energy">    253.26113446 </i>
    <i name="e_wo_entrp">    253.29788359 </i>
    <i name="e_0_energy">    253.27950903 </i>
   </energy>
  </scstep>
  <scstep>
   <time name="total">  471.25  471.21</time>
   <energy>
    <i name="e_fr_energy">   -116.21913559 </i>
    <i name="e_wo_entrp">   -116.20466634 </i>
    <i name="e_0_energy">   -116.21190097 </i>
   </energy>
  </scstep>
  <scstep>
   <time name="total">  470.35  470.34</time>
   <energy>
    <i name="e_fr_energy">   -420.94197680 </i>
    <i name="e_wo_entrp">   -420.93445822 </i>
    <i name="e_0_energy">   -420.93821751 </i>
   </energy>
  </scstep>
  <scstep>
   <time name="total">  470.41  470.40</time>
   <energy>
    <i name="e_fr_energy">   -692.90924287 </i>
    <i name="e_wo_entrp">   -692.90300278 </i>
    <i name="e_0_energy">   -692.90612282 </i>
   </energy>
  </scstep>
  <scstep>
   <time name="total">  470.38  470.34</time>
   <energy>
    <i name="e_fr_energy">   -838.06394852 </i>
    <i name="e_wo_entrp">   -838.06072982 </i>
    <i name="e_0_energy">   -838.06233917 </i>
   </energy>
  </scstep>
  <scstep>
   <time name="total">  470.08  470.06</time>
   <energy>
    <i name="e_fr_energy">   -908.10661208 </i>
    <i name="e_wo_entrp">   -908.10482129 </i>
    <i name="e_0_energy">   -908.10571668 </i>
   </energy>
  </scstep>
  <scstep>
   <time name="total">  470.06  470.03</time>
   <energy>
    <i name="e_fr_energy">   -944.87253404 </i>
    <i name="e_wo_entrp">   -944.86609904 </i>
    <i name="e_0_energy">   -944.86931654 </i>
   </energy>
  </scstep>
  <scstep>
   <time name="total">  470.11  470.12</time>
   <energy>
    <i name="e_fr_energy">   -962.25433872 </i>
    <i name="e_wo_entrp">   -962.24358343 </i>
    <i name="e_0_energy">   -962.24896108 </i>
   </energy>
  </scstep>
  <scstep>
   <time name="total">  469.94  469.94</time>
   <energy>
    <i name="e_fr_energy">   -971.63329715 </i>
    <i name="e_wo_entrp">   -971.62121343 </i>
    <i name="e_0_energy">   -971.62725529 </i>
   </energy>
  </scstep>
  <scstep>
   <time name="total">  470.44  470.44</time>
   <energy>
    <i name="e_fr_energy">   -976.34272349 </i>
    <i name="e_wo_entrp">   -976.32830449 </i>
    <i name="e_0_energy">   -976.33551399 </i>
   </energy>
  </scstep>
  <scstep>
   <time name="total">  470.06  470.06</time>
   <energy>
    <i name="e_fr_energy">   -978.62504613 </i>
    <i name="e_wo_entrp">   -978.60815279 </i>
    <i name="e_0_energy">   -978.61659946 </i>
   </energy>
  </scstep>
  <scstep>
   <time name="total">  470.23  470.33</time>
   <energy>
    <i name="e_fr_energy">   -979.86292117 </i>
    <i name="e_wo_entrp">   -979.84547922 </i>
    <i name="e_0_energy">   -979.85420019 </i>
   </energy>
  </scstep>
  <scstep>
   <time name="total">  470.32  470.31</time>
   <energy>
    <i name="e_fr_energy">   -980.44032941 </i>
    <i name="e_wo_entrp">   -980.42261633 </i>
    <i name="e_0_energy">   -980.43147287 </i>
   </energy>
  </scstep>
  <scstep>
   <time name="total">  470.10  470.10</time>
   <energy>
    <i name="e_fr_energy">   -980.73046535 </i>
    <i name="e_wo_entrp">   -980.71306799 </i>
    <i name="e_0_energy">   -980.72176667 </i>
   </energy>
  </scstep>
  <scstep>
   <time name="total">  470.23  470.21</time>
   <energy>
    <i name="e_fr_energy">   -980.86759172 </i>
    <i name="e_wo_entrp">   -980.85066926 </i>
    <i name="e_0_energy">   -980.85913049 </i>
   </energy>
  </scstep>
  <scstep>
   <time name="total">  470.44  470.42</time>
   <energy>
    <i name="e_fr_energy">   -980.93610170 </i>
    <i name="e_wo_entrp">   -980.91965255 </i>
    <i name="e_0_energy">   -980.92787712 </i>
   </energy>
  </scstep>
  <scstep>
   <time name="total">  470.69  470.65</time>
   <energy>
    <i name="e_fr_energy">   -980.97003919 </i>
    <i name="e_wo_entrp">   -980.95407181 </i>
    <i name="e_0_energy">   -980.96205550 </i>
   </energy>
  </scstep>
  <scstep>
   <time name="total">  470.85  470.85</time>
   <energy>
    <i name="e_fr_energy">   -980.98810978 </i>
    <i name="e_wo_entrp">   -980.97252589 </i>
    <i name="e_0_energy">   -980.98031783 </i>
   </energy>
  </scstep>
  <scstep>
   <time name="total">  470.46  470.44</time>
   <energy>
    <i name="e_fr_energy">   -980.99703547 </i>
    <i name="e_wo_entrp">   -980.98171136 </i>
    <i name="e_0_energy">   -980.98937342 </i>
   </energy>
  </scstep>
  <scstep>
   <time name="total">  470.31  470.30</time>
   <energy>
    <i name="e_fr_energy">   -981.00155162 </i>
    <i name="e_wo_entrp">   -980.98637735 </i>
    <i name="e_0_energy">   -980.99396449 </i>
   </energy>
  </scstep>
  <scstep>
   <time name="total">  470.14  470.13</time>
   <energy>
    <i name="e_fr_energy">   -981.00380779 </i>
    <i name="e_wo_entrp">   -980.98870495 </i>
    <i name="e_0_energy">   -980.99625637 </i>
   </energy>
  </scstep>
  <scstep>
   <time name="total">  470.37  470.37</time>
   <energy>
    <i name="e_fr_energy">   -981.00494181 </i>
    <i name="e_wo_entrp">   -980.98985735 </i>
    <i name="e_0_energy">   -980.99739958 </i>
   </energy>
  </scstep>
  <scstep>
   <time name="total">  470.19  470.17</time>
   <energy>
    <i name="e_fr_energy">   -981.00553427 </i>
    <i name="e_wo_entrp">   -980.99043712 </i>
    <i name="e_0_energy">   -980.99798569 </i>
   </energy>
  </scstep>
  <scstep>
   <time name="total">  470.33  470.34</time>
   <energy>
    <i name="e_fr_energy">   -981.00584068 </i>
    <i name="e_wo_entrp">   -980.99071991 </i>
    <i name="e_0_energy">   -980.99828030 </i>
   </energy>
  </scstep>
  <scstep>
   <time name="total">  470.25  470.27</time>
   <energy>
    <i name="e_fr_energy">   -981.00600087 </i>
    <i name="e_wo_entrp">   -980.99085708 </i>
    <i name="e_0_energy">   -980.99842898 </i>
   </energy>
  </scstep>
  <scstep>
   <time name="total">  470.14  470.13</time>
   <energy>
    <i name="e_fr_energy">   -981.00608502 </i>
    <i name="e_wo_entrp">   -980.99092297 </i>
    <i name="e_0_energy">   -980.99850400 </i>
   </energy>
  </scstep>
  <scstep>
   <time name="total">  470.50  470.49</time>
   <energy>
    <i name="e_fr_energy">   -981.00612701 </i>
    <i name="e_wo_entrp">   -980.99095123 </i>
    <i name="e_0_energy">   -980.99853912 </i>
   </energy>
  </scstep>
  <scstep>
   <time name="total">  470.42  470.43</time>
   <energy>
    <i name="e_fr_energy">   -981.00614826 </i>
    <i name="e_wo_entrp">   -980.99097003 </i>
    <i name="e_0_energy">   -980.99855914 </i>
   </energy>
  </scstep>
  <scstep>
   <time name="total">  470.07  470.06</time>
   <energy>
    <i name="e_fr_energy">   -981.00616371 </i>
    <i name="e_wo_entrp">   -980.99098382 </i>
    <i name="e_0_energy">   -980.99857377 </i>
   </energy>
  </scstep>
  <scstep>
   <time name="total">  701.11  701.09</time>
   <energy>
    <i name="alphaZ">   5529.70323211 </i>
    <i name="ewald"> -88670.66536753 </i>
    <i name="hartreedc"> -33950.30293371 </i>
    <i name="XCdc">   2783.97219004 </i>
    <i name="pawpsdc"> 122104.98579795 </i>
    <i name="pawaedc">-137596.70115622 </i>
    <i name="eentropy">     -0.01518101 </i>
    <i name="bandstr">  -9092.53882197 </i>
    <i name="atom"> 133605.80973787 </i>
    <i name="e_fr_energy">   -981.00616873 </i>
    <i name="e_wo_entrp">   -980.99098772 </i>
    <i name="e_0_energy">   -980.99857822 </i>
   </energy>
  </scstep>
  <structure>
   <crystal>
    <varray name="basis" >
     <v>       0.00000000      12.28047342       0.00000000 </v>
     <v>       9.14270205       0.00000000       0.00000000 </v>
     <v>       0.00000000      -2.76826177     -11.30069772 </v>
    </varray>
    <i name="volume">   1268.80515525 </i>
    <varray name="rec_basis" >
     <v>       0.00000000       0.08143009      -0.01994742 </v>
     <v>       0.10937686      -0.00000000       0.00000000 </v>
     <v>       0.00000000       0.00000000      -0.08849011 </v>
    </varray>
   </crystal>
   <varray name="positions" >
    <v>       0.65891599       0.00000000       0.15597142 </v>
    <v>       0.65941879       0.00000000       0.65602134 </v>
    <v>       0.65874031       0.33392692       0.15628865 </v>
    <v>       0.65815433       0.33337633       0.65617085 </v>
    <v>       0.65874031       0.66607308       0.15628865 </v>
    <v>       0.65815433       0.66662367       0.65617085 </v>
    <v>       0.83675626       0.16799049       0.34270879 </v>
    <v>       0.83999728       0.16722953       0.84217595 </v>
    <v>       0.84009126       0.50000000       0.34270533 </v>
    <v>       0.84031631       0.50000000       0.84303102 </v>
    <v>       0.83675626       0.83200951       0.34270879 </v>
    <v>       0.83999728       0.83277047       0.84217595 </v>
    <v>       0.58984556       0.16715905       0.39779286 </v>
    <v>       0.59209111       0.16655609       0.89801136 </v>
    <v>       0.59075698       0.50000000       0.39789338 </v>
    <v>       0.59476716       0.50000000       0.89907114 </v>
    <v>       0.58984556       0.83284095       0.39779286 </v>
    <v>       0.59209111       0.83344391       0.89801136 </v>
    <v>       0.90607561       0.00000000       0.09956758 </v>
    <v>       0.90952406       0.00000000       0.60164915 </v>
    <v>       0.90776520       0.33292620       0.10264792 </v>
    <v>       0.90767538       0.33359622       0.60179729 </v>
    <v>       0.90776520       0.66707380       0.10264792 </v>
    <v>       0.90767538       0.66640378       0.60179729 </v>
    <v>       0.15874959       0.16633240       0.15250428 </v>
    <v>       0.16098052       0.17793969       0.66319163 </v>
    <v>       0.15726680       0.50000000       0.15895989 </v>
    <v>       0.15879605       0.50000000       0.65890840 </v>
    <v>       0.15874959       0.83366760       0.15250428 </v>
    <v>       0.16098052       0.82206031       0.66319163 </v>
    <v>       0.34121679       0.00000000       0.33983326 </v>
    <v>       0.34239687       0.00000000       0.84756535 </v>
    <v>       0.33994931       0.33454927       0.34337181 </v>
    <v>       0.34513905       0.33454584       0.84761066 </v>
    <v>       0.33994931       0.66545073       0.34337181 </v>
    <v>       0.34513905       0.66545416       0.84761066 </v>
    <v>       0.07582916       0.00000000       0.37229854 </v>
    <v>       0.08960343       0.00000000       0.89555877 </v>
    <v>       0.08994384       0.33305121       0.39910539 </v>
    <v>       0.08947637       0.33347483       0.89875841 </v>
    <v>       0.08994384       0.66694879       0.39910539 </v>
    <v>       0.08947637       0.66652517       0.89875841 </v>
    <v>       0.41042883       0.16685733       0.10425497 </v>
    <v>       0.40916244       0.16592797       0.60625163 </v>
    <v>       0.40923333       0.50000000       0.10471703 </v>
    <v>       0.40787874       0.50000000       0.60383110 </v>
    <v>       0.41042883       0.83314267       0.10425497 </v>
    <v>       0.40916244       0.83407203       0.60625163 </v>
    <v>       0.99522024       0.16584021       0.12380773 </v>
    <v>       0.99660115       0.16732300       0.62591100 </v>
    <v>       0.99513691       0.50000000       0.12744488 </v>
    <v>       0.99529911       0.50000000       0.62889730 </v>
    <v>       0.99522024       0.83415979       0.12380773 </v>
    <v>       0.99660115       0.83267700       0.62591100 </v>
    <v>       0.50341227       0.00000000       0.37233325 </v>
    <v>       0.50498067       0.00000000       0.87591909 </v>
    <v>       0.50265859       0.33377677       0.37270979 </v>
    <v>       0.50714925       0.33471456       0.87672357 </v>
    <v>       0.50265859       0.66622323       0.37270979 </v>
    <v>       0.50714925       0.66528544       0.87672357 </v>
    <v>       0.67097342       0.16664721       0.28027401 </v>
    <v>       0.67212086       0.16681280       0.77975146 </v>
    <v>       0.67159713       0.50000000       0.28064928 </v>
    <v>       0.67288074       0.50000000       0.77977663 </v>
    <v>       0.67097342       0.83335279       0.28027401 </v>
    <v>       0.67212086       0.83318720       0.77975146 </v>
    <v>       0.82638632       0.00000000       0.21845775 </v>
    <v>       0.82751851       0.00000000       0.71841648 </v>
    <v>       0.82548331       0.33436759       0.21875638 </v>
    <v>       0.82683624       0.33312436       0.71930764 </v>
    <v>       0.82548331       0.66563241       0.21875638 </v>
    <v>       0.82683624       0.66687564       0.71930764 </v>
    <v>       0.83202381       0.00000000       0.44529820 </v>
    <v>       0.82995320       0.00000000       0.94343832 </v>
    <v>       0.83013580       0.33412586       0.44577688 </v>
    <v>       0.83156958       0.33333106       0.94552224 </v>
    <v>       0.83013580       0.66587414       0.44577688 </v>
    <v>       0.83156958       0.66666894       0.94552224 </v>
    <v>       0.66859245       0.16675171       0.05470606 </v>
    <v>       0.66764664       0.16687549       0.55379212 </v>
    <v>       0.67010993       0.50000000       0.05538302 </v>
    <v>       0.66761655       0.50000000       0.55424629 </v>
    <v>       0.66859245       0.83324829       0.05470606 </v>
    <v>       0.66764664       0.83312451       0.55379212 </v>
    <v>       0.49711133       0.00000000       0.12889227 </v>
    <v>       0.49759388       0.00000000       0.62900314 </v>
    <v>       0.49685364       0.33397501       0.12877038 </v>
    <v>       0.49588871       0.33357174       0.62699336 </v>
    <v>       0.49685364       0.66602499       0.12877038 </v>
    <v>       0.49588871       0.66642826       0.62699336 </v>
    <v>       0.99644445       0.17186780       0.36345925 </v>
    <v>       0.00254589       0.16691926       0.87082813 </v>
    <v>       0.00232755       0.50000000       0.37261069 </v>
    <v>       0.00265565       0.50000000       0.87312937 </v>
    <v>       0.99644445       0.82813220       0.36345925 </v>
    <v>       0.00254589       0.83308074       0.87082813 </v>
    <v>       0.17068973       0.00000000       0.26811578 </v>
    <v>       0.17462898       0.00000000       0.78281167 </v>
    <v>       0.17184892       0.33196976       0.28146216 </v>
    <v>       0.17286256       0.33523501       0.78316474 </v>
    <v>       0.17184892       0.66803024       0.28146216 </v>
    <v>       0.17286256       0.66476499       0.78316474 </v>
    <v>       0.32765462       0.16767043       0.21987306 </v>
    <v>       0.33577026       0.17368311       0.73031576 </v>
    <v>       0.32613682       0.50000000       0.22008677 </v>
    <v>       0.32864501       0.50000000       0.72277515 </v>
    <v>       0.32765462       0.83232957       0.21987306 </v>
    <v>       0.33577026       0.82631689       0.73031576 </v>
    <v>       0.33574166       0.16571887       0.44602101 </v>
    <v>       0.33234681       0.16769077       0.94918498 </v>
    <v>       0.33235711       0.50000000       0.44650439 </v>
    <v>       0.33269503       0.50000000       0.94830456 </v>
    <v>       0.33574166       0.83428113       0.44602101 </v>
    <v>       0.33234681       0.83230923       0.94918498 </v>
    <v>       0.16894423       0.00000000       0.04980490 </v>
    <v>       0.16710892       0.33484262       0.05463649 </v>
    <v>       0.16804109       0.34059329       0.55482844 </v>
    <v>       0.16710892       0.66515738       0.05463649 </v>
    <v>       0.16804109       0.65940671       0.55482844 </v>
    <v>       0.20131132       0.00000000       0.54168000 </v>
   </varray>
  </structure>
  <varray name="forces" >
   <v>       0.00000000       0.06522316       0.00974731 </v>
   <v>       0.00000000       0.06684576       0.01248566 </v>
   <v>       0.01418149       0.08251524      -0.00187381 </v>
   <v>       0.00558649       0.06655627       0.01902646 </v>
   <v>      -0.01418149       0.08251524      -0.00187381 </v>
   <v>      -0.00558649       0.06655627       0.01902646 </v>
   <v>       0.02805871      -0.05821195       0.01102956 </v>
   <v>       0.00704219      -0.08345365      -0.00175112 </v>
   <v>       0.00000000      -0.08577357       0.00686316 </v>
   <v>       0.00000000      -0.07662069      -0.00545484 </v>
   <v>      -0.02805871      -0.05821195       0.01102956 </v>
   <v>      -0.00704219      -0.08345365      -0.00175112 </v>
   <v>      -0.00292945      -0.05447998       0.02158158 </v>
   <v>       0.00774274      -0.03390788      -0.00180113 </v>
   <v>       0.00000000      -0.04460718       0.03138502 </v>
   <v>       0.00000000      -0.05734078       0.00060364 </v>
   <v>       0.00292945      -0.05447998       0.02158158 </v>
   <v>      -0.00774274      -0.03390788      -0.00180113 </v>
   <v>       0.00000000       0.02727187       0.02660046 </v>
   <v>       0.00000000      -0.00410379      -0.01439989 </v>
   <v>       0.01060058       0.01322101      -0.00446468 </v>
   <v>       0.02147067       0.00343438      -0.02818936 </v>
   <v>      -0.01060058       0.01322101      -0.00446468 </v>
   <v>      -0.02147067       0.00343438      -0.02818936 </v>
   <v>      -0.04248843       0.08530798      -0.00330681 </v>
   <v>       0.37885421      -0.00737056      -0.21322428 </v>
   <v>       0.00000000       0.08837697       0.02570469 </v>
   <v>       0.00000000       0.10654202       0.07813314 </v>
   <v>       0.04248843       0.08530798      -0.00330681 </v>
   <v>      -0.37885421      -0.00737056      -0.21322428 </v>
   <v>       0.00000000      -0.00142254      -0.02025237 </v>
   <v>       0.00000000      -0.06220460      -0.06380259 </v>
   <v>      -0.01056545      -0.04379575      -0.02593568 </v>
   <v>      -0.04380152      -0.02958592       0.01125495 </v>
   <v>       0.01056545      -0.04379575      -0.02593568 </v>
   <v>       0.04380152      -0.02958592       0.01125495 </v>
   <v>       0.00000000      -0.04064124       0.37744120 </v>
   <v>       0.00000000       0.02447081      -0.02044455 </v>
   <v>       0.05346952      -0.01570088       0.05629276 </v>
   <v>       0.02169275      -0.01243910       0.00200078 </v>
   <v>      -0.05346952      -0.01570088       0.05629276 </v>
   <v>      -0.02169275      -0.01243910       0.00200078 </v>
   <v>       0.00829606      -0.00389006      -0.00367465 </v>
   <v>       0.07020875       0.13759291       0.00067969 </v>
   <v>       0.00000000       0.01502917      -0.00626842 </v>
   <v>       0.00000000       0.04633385       0.00430948 </v>
   <v>      -0.00829606      -0.00389006      -0.00367465 </v>
   <v>      -0.07020875       0.13759291       0.00067969 </v>
   <v>      -0.00233510      -0.21249207       0.09827749 </v>
   <v>       0.01209987      -0.18332701       0.10493135 </v>
   <v>       0.00000000      -0.17953223       0.11572857 </v>
   <v>       0.00000000      -0.18950074       0.14177889 </v>
   <v>       0.00233510      -0.21249207       0.09827749 </v>
   <v>      -0.01209987      -0.18332701       0.10493135 </v>
   <v>       0.00000000       0.19645363      -0.11064062 </v>
   <v>       0.00000000       0.20476791      -0.10631089 </v>
   <v>       0.00942418       0.21942088      -0.12444072 </v>
   <v>      -0.00561209       0.19689651      -0.10688762 </v>
   <v>      -0.00942418       0.21942088      -0.12444072 </v>
   <v>       0.00561209       0.19689651      -0.10688762 </v>
   <v>       0.00183673       0.01169630      -0.14823484 </v>
   <v>       0.00278504      -0.02576800      -0.12988599 </v>
   <v>       0.00000000      -0.02766184      -0.12197824 </v>
   <v>       0.00000000      -0.02612177      -0.14480461 </v>
   <v>      -0.00183673       0.01169630      -0.14823484 </v>
   <v>      -0.00278504      -0.02576800      -0.12988599 </v>
   <v>       0.00000000       0.03247901       0.15405117 </v>
   <v>       0.00000000       0.04523416       0.13735135 </v>
   <v>      -0.00155654       0.02653511       0.12513863 </v>
   <v>      -0.00924025       0.05327696       0.12571975 </v>
   <v>       0.00155654       0.02653511       0.12513863 </v>
   <v>       0.00924025       0.05327696       0.12571975 </v>
   <v>       0.00000000       0.41874119      -0.07651833 </v>
   <v>       0.00000000       0.43933827      -0.09289454 </v>
   <v>      -0.01861633       0.44255415      -0.08380016 </v>
   <v>      -0.00185527       0.42313155      -0.06565050 </v>
   <v>       0.01861633       0.44255415      -0.08380016 </v>
   <v>       0.00185527       0.42313155      -0.06565050 </v>
   <v>      -0.00919271      -0.42973100       0.07622193 </v>
   <v>      -0.00469294      -0.43016651       0.07466328 </v>
   <v>       0.00000000      -0.44966345       0.08712647 </v>
   <v>       0.00000000      -0.43271933       0.07506703 </v>
   <v>       0.00919271      -0.42973100       0.07622193 </v>
   <v>       0.00469294      -0.43016651       0.07466328 </v>
   <v>       0.00000000      -0.17303282       0.13441938 </v>
   <v>       0.00000000      -0.21519809       0.10780254 </v>
   <v>      -0.00637254      -0.17019206       0.12938547 </v>
   <v>      -0.00281935      -0.17439553       0.08903109 </v>
   <v>       0.00637254      -0.17019206       0.12938547 </v>
   <v>       0.00281935      -0.17439553       0.08903109 </v>
   <v>      -0.10288203       0.18593307      -0.13307728 </v>
   <v>       0.00264356       0.18929361      -0.14385074 </v>
   <v>       0.00000000       0.16678981      -0.13415517 </v>
   <v>       0.00000000       0.17807837      -0.12780826 </v>
   <v>       0.10288203       0.18593307      -0.13307728 </v>
   <v>      -0.00264356       0.18929361      -0.14385074 </v>
   <v>       0.00000000      -0.14678546      -0.03064121 </v>
   <v>       0.00000000      -0.05659382      -0.12925735 </v>
   <v>       0.04551126      -0.04111733      -0.13104842 </v>
   <v>      -0.08558789      -0.09236229      -0.00342250 </v>
   <v>      -0.04551126      -0.04111733      -0.13104842 </v>
   <v>       0.08558789      -0.09236229      -0.00342250 </v>
   <v>      -0.03641290       0.05566124       0.13150910 </v>
   <v>       0.01677128       0.04199726       0.11959952 </v>
   <v>       0.00000000       0.04972799       0.09269674 </v>
   <v>       0.00000000       0.06392627       0.11384002 </v>
   <v>       0.03641290       0.05566124       0.13150910 </v>
   <v>      -0.01677128       0.04199726       0.11959952 </v>
   <v>      -0.01918852       0.30336935      -0.09613249 </v>
   <v>      -0.00366126       0.46626062      -0.10621940 </v>
   <v>       0.00000000       0.41074967      -0.05995949 </v>
   <v>       0.00000000       0.46386666      -0.06777887 </v>
   <v>       0.01918852       0.30336935      -0.09613249 </v>
   <v>       0.00366126       0.46626062      -0.10621940 </v>
   <v>       0.00000000      -0.46889047       0.10138994 </v>
   <v>      -0.05375228      -0.45695717       0.07871908 </v>
   <v>       0.00546609      -0.45266329       0.02065783 </v>
   <v>       0.05375228      -0.45695717       0.07871908 </v>
   <v>      -0.00546609      -0.45266329       0.02065783 </v>
   <v>       0.00000000      -0.35712489       0.02114810 </v>
  </varray>
  <varray name="stress" >
   <v>     -42.71877415       0.00000000       0.00000000 </v>
   <v>       0.00000000     -43.47530952      -1.41912274 </v>
   <v>       0.00000000      -1.41912271     -29.36972444 </v>
  </varray>
  <energy>
   <i name="e_fr_energy">   -981.00616873 </i>
   <i name="e_wo_entrp">   -980.99098772 </i>
   <i name="e_0_energy">   -980.99857822 </i>
  </energy>
  <time name="totalsc">17073.2117075.56</time>
  <eigenvalues>
   <array>
    <dimension dim="1">band</dimension>
    <dimension dim="2">kpoint</dimension>
    <dimension dim="3">spin</dimension>
    <field>eigene</field>
    <field>occ</field>
    <set>
     <set comment="spin 1">
      <set comment="kpoint 1">
       <r>  -18.9782    1.0000 </r>
       <r>  -18.7095    1.0000 </r>
       <r>  -18.6379    1.0000 </r>
       <r>  -18.5698    1.0000 </r>
       <r>  -18.4388    1.0000 </r>
       <r>  -18.2913    1.0000 </r>
       <r>  -18.2754    1.0000 </r>
       <r>  -18.2027    1.0000 </r>
       <r>  -18.1455    1.0000 </r>
       <r>  -18.1293    1.0000 </r>
       <r>  -18.1121    1.0000 </r>
       <r>  -18.0322    1.0000 </r>
       <r>  -18.0258    1.0000 </r>
       <r>  -18.0034    1.0000 </r>
       <r>  -17.9879    1.0000 </r>
       <r>  -17.9841    1.0000 </r>
       <r>  -17.9656    1.0000 </r>
       <r>  -17.9268    1.0000 </r>
       <r>  -17.8415    1.0000 </r>
       <r>  -17.8349    1.0000 </r>
       <r>  -17.8129    1.0000 </r>
       <r>  -17.8051    1.0000 </r>
       <r>  -17.7971    1.0000 </r>
       <r>  -17.7913    1.0000 </r>
       <r>  -17.7833    1.0000 </r>
       <r>  -17.7635    1.0000 </r>
       <r>  -17.7004    1.0000 </r>
       <r>  -17.6951    1.0000 </r>
       <r>  -17.6710    1.0000 </r>
       <r>  -17.6494    1.0000 </r>
       <r>  -17.6476    1.0000 </r>
       <r>  -17.6207    1.0000 </r>
       <r>  -17.6098    1.0000 </r>
       <r>  -17.5969    1.0000 </r>
       <r>  -17.5952    1.0000 </r>
       <r>  -17.5696    1.0000 </r>
       <r>  -17.5553    1.0000 </r>
       <r>  -17.5448    1.0000 </r>
       <r>  -17.5375    1.0000 </r>
       <r>  -17.4970    1.0000 </r>
       <r>  -17.4696    1.0000 </r>
       <r>  -17.4631    1.0000 </r>
       <r>  -17.4579    1.0000 </r>
       <r>  -17.4532    1.0000 </r>
       <r>  -17.4476    1.0000 </r>
       <r>  -17.4244    1.0000 </r>
       <r>  -17.4240    1.0000 </r>
       <r>  -17.4056    1.0000 </r>
       <r>  -17.3492    1.0000 </r>
       <r>  -17.3473    1.0000 </r>
       <r>  -17.3169    1.0000 </r>
       <r>  -17.2997    1.0000 </r>
       <r>  -17.2863    1.0000 </r>
       <r>  -17.2854    1.0000 </r>
       <r>  -17.2576    1.0000 </r>
       <r>  -17.2219    1.0000 </r>
       <r>  -17.2146    1.0000 </r>
       <r>  -17.2079    1.0000 </r>
       <r>  -17.2072    1.0000 </r>
       <r>  -17.1946    1.0000 </r>
       <r>  -17.1867    1.0000 </r>
       <r>  -17.1788    1.0000 </r>
       <r>  -17.1749    1.0000 </r>
       <r>  -17.1718    1.0000 </r>
       <r>  -17.1565    1.0000 </r>
       <r>  -17.1543    1.0000 </r>
       <r>  -17.1475    1.0000 </r>
       <r>  -17.1388    1.0000 </r>
       <r>  -17.1288    1.0000 </r>
       <r>  -17.0619    1.0000 </r>
       <r>  -17.0435    1.0000 </r>
       <r>  -13.3758    1.0000 </r>
       <r>  -13.3664    1.0000 </r>
       <r>  -13.3563    1.0000 </r>
       <r>  -13.3351    1.0000 </r>
       <r>  -13.3323    1.0000 </r>
       <r>  -13.3285    1.0000 </r>
       <r>  -13.3211    1.0000 </r>
       <r>  -13.3193    1.0000 </r>
       <r>  -13.3088    1.0000 </r>
       <r>  -13.3041    1.0000 </r>
       <r>  -13.3020    1.0000 </r>
       <r>  -13.2921    1.0000 </r>
       <r>  -13.2904    1.0000 </r>
       <r>  -13.2852    1.0000 </r>
       <r>  -13.2852    1.0000 </r>
       <r>  -13.2766    1.0000 </r>
       <r>  -13.2724    1.0000 </r>
       <r>  -13.2708    1.0000 </r>
       <r>  -13.2662    1.0000 </r>
       <r>  -13.2587    1.0000 </r>
       <r>  -13.2584    1.0000 </r>
       <r>  -13.2540    1.0000 </r>
       <r>  -13.2536    1.0000 </r>
       <r>  -13.2487    1.0000 </r>
       <r>  -13.2450    1.0000 </r>
       <r>  -13.2449    1.0000 </r>
       <r>  -13.2417    1.0000 </r>
       <r>  -13.2360    1.0000 </r>
       <r>  -13.2319    1.0000 </r>
       <r>  -13.2304    1.0000 </r>
       <r>  -13.2277    1.0000 </r>
       <r>  -13.2276    1.0000 </r>
       <r>  -13.2263    1.0000 </r>
       <r>  -13.2227    1.0000 </r>
       <r>  -13.2200    1.0000 </r>
       <r>  -13.2186    1.0000 </r>
       <r>  -13.2131    1.0000 </r>
       <r>  -13.2123    1.0000 </r>
       <r>  -13.2084    1.0000 </r>
       <r>  -13.2072    1.0000 </r>
       <r>  -13.2026    1.0000 </r>
       <r>  -13.2010    1.0000 </r>
       <r>  -13.2005    1.0000 </r>
       <r>  -13.1973    1.0000 </r>
       <r>  -13.1962    1.0000 </r>
       <r>  -13.1958    1.0000 </r>
       <r>  -13.1923    1.0000 </r>
       <r>  -13.1905    1.0000 </r>
       <r>  -13.1865    1.0000 </r>
       <r>  -13.1857    1.0000 </r>
       <r>  -13.1854    1.0000 </r>
       <r>  -13.1802    1.0000 </r>
       <r>  -13.1780    1.0000 </r>
       <r>  -13.1753    1.0000 </r>
       <r>  -13.1737    1.0000 </r>
       <r>  -13.1710    1.0000 </r>
       <r>  -13.1670    1.0000 </r>
       <r>  -13.1669    1.0000 </r>
       <r>  -13.1637    1.0000 </r>
       <r>  -13.1496    1.0000 </r>
       <r>  -13.1471    1.0000 </r>
       <r>  -13.1469    1.0000 </r>
       <r>  -13.1414    1.0000 </r>
       <r>  -13.1388    1.0000 </r>
       <r>  -13.1313    1.0000 </r>
       <r>  -13.1249    1.0000 </r>
       <r>  -13.1220    1.0000 </r>
       <r>  -13.1197    1.0000 </r>
       <r>  -13.1182    1.0000 </r>
       <r>  -13.1155    1.0000 </r>
       <r>  -13.1102    1.0000 </r>
       <r>  -13.1100    1.0000 </r>
       <r>  -13.1061    1.0000 </r>
       <r>  -13.1042    1.0000 </r>
       <r>  -13.1037    1.0000 </r>
       <r>  -13.1003    1.0000 </r>
       <r>  -13.0992    1.0000 </r>
       <r>  -13.0970    1.0000 </r>
       <r>  -13.0900    1.0000 </r>
       <r>  -13.0881    1.0000 </r>
       <r>  -13.0874    1.0000 </r>
       <r>  -13.0860    1.0000 </r>
       <r>  -13.0794    1.0000 </r>
       <r>  -13.0787    1.0000 </r>
       <r>  -13.0768    1.0000 </r>
       <r>  -13.0741    1.0000 </r>
       <r>  -13.0724    1.0000 </r>
       <r>  -13.0686    1.0000 </r>
       <r>  -13.0682    1.0000 </r>
       <r>  -13.0678    1.0000 </r>
       <r>  -13.0675    1.0000 </r>
       <r>  -13.0658    1.0000 </r>
       <r>  -13.0630    1.0000 </r>
       <r>  -13.0602    1.0000 </r>
       <r>  -13.0572    1.0000 </r>
       <r>  -13.0561    1.0000 </r>
       <r>  -13.0516    1.0000 </r>
       <r>  -13.0500    1.0000 </r>
       <r>  -13.0460    1.0000 </r>
       <r>  -13.0444    1.0000 </r>
       <r>  -13.0430    1.0000 </r>
       <r>  -13.0406    1.0000 </r>
       <r>  -13.0397    1.0000 </r>
       <r>  -13.0381    1.0000 </r>
       <r>  -13.0374    1.0000 </r>
       <r>  -13.0345    1.0000 </r>
       <r>  -13.0312    1.0000 </r>
       <r>  -13.0244    1.0000 </r>
       <r>  -13.0218    1.0000 </r>
       <r>  -13.0190    1.0000 </r>
       <r>  -13.0174    1.0000 </r>
       <r>  -13.0167    1.0000 </r>
       <r>  -13.0062    1.0000 </r>
       <r>  -13.0059    1.0000 </r>
       <r>  -13.0012    1.0000 </r>
       <r>  -12.9994    1.0000 </r>
       <r>  -12.9962    1.0000 </r>
       <r>  -12.9955    1.0000 </r>
       <r>  -12.9914    1.0000 </r>
       <r>  -12.9895    1.0000 </r>
       <r>  -12.9886    1.0000 </r>
       <r>  -12.9872    1.0000 </r>
       <r>  -12.9844    1.0000 </r>
       <r>  -12.9794    1.0000 </r>
       <r>  -12.9768    1.0000 </r>
       <r>  -12.9671    1.0000 </r>
       <r>  -12.9647    1.0000 </r>
       <r>  -12.9636    1.0000 </r>
       <r>  -12.9632    1.0000 </r>
       <r>  -12.9599    1.0000 </r>
       <r>  -12.9579    1.0000 </r>
       <r>  -12.9536    1.0000 </r>
       <r>  -12.9506    1.0000 </r>
       <r>  -12.9496    1.0000 </r>
       <r>  -12.9467    1.0000 </r>
       <r>  -12.9407    1.0000 </r>
       <r>  -12.9386    1.0000 </r>
       <r>  -12.9355    1.0000 </r>
       <r>  -12.9351    1.0000 </r>
       <r>  -12.9314    1.0000 </r>
       <r>  -12.9284    1.0000 </r>
       <r>  -12.9228    1.0000 </r>
       <r>  -12.9218    1.0000 </r>
       <r>  -12.9196    1.0000 </r>
       <r>  -12.9189    1.0000 </r>
       <r>  -12.9143    1.0000 </r>
       <r>  -12.9141    1.0000 </r>
       <r>  -12.9092    1.0000 </r>
       <r>  -12.9078    1.0000 </r>
       <r>  -12.9029    1.0000 </r>
       <r>  -12.9002    1.0000 </r>
       <r>  -12.8973    1.0000 </r>
       <r>  -12.8966    1.0000 </r>
       <r>  -12.8933    1.0000 </r>
       <r>  -12.8911    1.0000 </r>
       <r>  -12.8898    1.0000 </r>
       <r>  -12.8889    1.0000 </r>
       <r>  -12.8883    1.0000 </r>
       <r>  -12.8857    1.0000 </r>
       <r>  -12.8805    1.0000 </r>
       <r>  -12.8789    1.0000 </r>
       <r>  -12.8769    1.0000 </r>
       <r>  -12.8723    1.0000 </r>
       <r>  -12.8675    1.0000 </r>
       <r>  -12.8666    1.0000 </r>
       <r>  -12.8656    1.0000 </r>
       <r>  -12.8639    1.0000 </r>
       <r>  -12.8621    1.0000 </r>
       <r>  -12.8590    1.0000 </r>
       <r>  -12.8572    1.0000 </r>
       <r>  -12.8520    1.0000 </r>
       <r>  -12.8482    1.0000 </r>
       <r>  -12.8432    1.0000 </r>
       <r>  -12.8429    1.0000 </r>
       <r>  -12.8376    1.0000 </r>
       <r>  -12.8370    1.0000 </r>
       <r>  -12.8351    1.0000 </r>
       <r>  -12.8305    1.0000 </r>
       <r>  -12.8264    1.0000 </r>
       <r>  -12.8251    1.0000 </r>
       <r>  -12.8247    1.0000 </r>
       <r>  -12.8233    1.0000 </r>
       <r>  -12.8073    1.0000 </r>
       <r>  -12.8067    1.0000 </r>
       <r>  -12.8043    1.0000 </r>
       <r>  -12.8009    1.0000 </r>
       <r>  -12.7984    1.0000 </r>
       <r>  -12.7931    1.0000 </r>
       <r>  -12.7897    1.0000 </r>
       <r>  -12.7833    1.0000 </r>
       <r>  -12.7807    1.0000 </r>
       <r>  -12.7734    1.0000 </r>
       <r>  -12.7714    1.0000 </r>
       <r>  -12.7668    1.0000 </r>
       <r>  -12.7608    1.0000 </r>
[...]
       <r>   -12.2842    90.6729   583.0699 </r>
       <r>   -12.1458   108.7714   598.1248 </r>
       <r>   -12.0074   121.0632   614.8810 </r>
       <r>   -11.8690    49.0669   621.6723 </r>
       <r>   -11.7306     2.3673   622.0000 </r>
       <r>   -11.5922     0.0003   622.0000 </r>
       <r>   -11.4538     0.0000   622.0000 </r>
       <r>   -11.3154     0.0000   622.0000 </r>
       <r>   -11.1769     0.0000   622.0000 </r>
       <r>   -11.0385     0.0000   622.0000 </r>
       <r>   -10.9001     0.0000   622.0000 </r>
       <r>   -10.7617     0.0000   622.0000 </r>
       <r>   -10.6233     0.0000   622.0000 </r>
       <r>   -10.4849     0.0000   622.0000 </r>
       <r>   -10.3465     0.0000   622.0000 </r>
       <r>   -10.2081     0.0000   622.0000 </r>
       <r>   -10.0697     0.0000   622.0000 </r>
       <r>    -9.9313     0.0000   622.0000 </r>
       <r>    -9.7929     0.0000   622.0000 </r>
       <r>    -9.6544     0.0000   622.0000 </r>
       <r>    -9.5160     0.0000   622.0000 </r>
       <r>    -9.3776     0.0000   622.0000 </r>
       <r>    -9.2392     0.0000   622.0000 </r>
       <r>    -9.1008     0.0000   622.0000 </r>
       <r>    -8.9624     0.0000   622.0000 </r>
       <r>    -8.8240     0.0000   622.0000 </r>
       <r>    -8.6856     0.0000   622.0000 </r>
       <r>    -8.5472     0.0000   622.0000 </r>
       <r>    -8.4088     0.0000   622.0000 </r>
       <r>    -8.2704     0.0000   622.0000 </r>
       <r>    -8.1320     0.0000   622.0000 </r>
       <r>    -7.9935     0.0000   622.0000 </r>
       <r>    -7.8551     0.0000   622.0000 </r>
       <r>    -7.7167     0.0000   622.0000 </r>
       <r>    -7.5783     0.0012   622.0002 </r>
       <r>    -7.4399     7.6232   623.0553 </r>
       <r>    -7.3015     6.8248   623.9999 </r>
       <r>    -7.1631     0.0007   624.0000 </r>
       <r>    -7.0247     0.0000   624.0000 </r>
       <r>    -6.8863     0.0000   624.0000 </r>
       <r>    -6.7479     0.0000   624.0000 </r>
       <r>    -6.6095     0.0000   624.0000 </r>
       <r>    -6.4711     0.0000   624.0000 </r>
       <r>    -6.3326     0.0000   624.0000 </r>
       <r>    -6.1942     0.0000   624.0000 </r>
       <r>    -6.0558     0.0000   624.0000 </r>
       <r>    -5.9174     0.0000   624.0000 </r>
       <r>    -5.7790     0.0000   624.0000 </r>
       <r>    -5.6406     0.0000   624.0000 </r>
       <r>    -5.5022     0.0000   624.0000 </r>
       <r>    -5.3638     0.0670   624.0093 </r>
       <r>    -5.2254     6.5973   624.9224 </r>
       <r>    -5.0870    14.5396   626.9348 </r>
       <r>    -4.9486    21.4551   629.9044 </r>
       <r>    -4.8101    32.9816   634.4693 </r>
       <r>    -4.6717    24.9487   637.9224 </r>
       <r>    -4.5333    48.3819   644.6189 </r>
       <r>    -4.3949    39.5236   650.0893 </r>
       <r>    -4.2565    60.5095   658.4644 </r>
       <r>    -4.1181    50.7116   665.4833 </r>
       <r>    -3.9797    40.6041   671.1032 </r>
       <r>    -3.8413    52.2807   678.3394 </r>
       <r>    -3.7029    40.9571   684.0082 </r>
       <r>    -3.5645    28.8059   687.9952 </r>
       <r>    -3.4261    31.2029   692.3139 </r>
       <r>    -3.2877    31.7192   696.7041 </r>
       <r>    -3.1492    40.1028   702.2547 </r>
       <r>    -3.0108    37.8922   707.4993 </r>
       <r>    -2.8724    33.3550   712.1159 </r>
       <r>    -2.7340    27.0500   715.8599 </r>
       <r>    -2.5956    38.8475   721.2367 </r>
       <r>    -2.4572    36.3936   726.2739 </r>
       <r>    -2.3188    47.6394   732.8676 </r>
       <r>    -2.1804    40.6893   738.4994 </r>
       <r>    -2.0420    38.9244   743.8868 </r>
       <r>    -1.9036    57.6386   751.8645 </r>
       <r>    -1.7652    73.4064   762.0246 </r>
       <r>    -1.6267    59.0912   770.2033 </r>
       <r>    -1.4883    59.5955   778.4519 </r>
       <r>    -1.3499    68.3772   787.9158 </r>
       <r>    -1.2115    50.9357   794.9658 </r>
       <r>    -1.0731    43.0615   800.9259 </r>
       <r>    -0.9347    74.0724   811.1781 </r>
       <r>    -0.7963    66.9949   820.4508 </r>
       <r>    -0.6579    76.8129   831.0824 </r>
       <r>    -0.5195    68.3512   840.5428 </r>
       <r>    -0.3811    53.6268   847.9652 </r>
       <r>    -0.2427    72.1452   857.9507 </r>
       <r>    -0.1043    70.2521   867.6742 </r>
       <r>     0.0342    83.3350   879.2085 </r>
       <r>     0.1726    78.4812   890.0710 </r>
       <r>     0.3110    61.5045   898.5837 </r>
       <r>     0.4494    73.1061   908.7022 </r>
       <r>     0.5878    94.0549   921.7202 </r>
       <r>     0.7262    88.2793   933.9389 </r>
       <r>     0.8646    88.4469   946.1807 </r>
       <r>     1.0030    85.1619   957.9678 </r>
       <r>     1.1414   126.5908   975.4891 </r>
       <r>     1.2798   113.9451   991.2601 </r>
       <r>     1.4182   123.2055  1008.3128 </r>
       <r>     1.5567   121.4950  1025.1287 </r>
       <r>     1.6951    76.2776  1035.6862 </r>
       <r>     1.8335    46.0748  1042.0634 </r>
       <r>     1.9719    52.3060  1049.3030 </r>
       <r>     2.1103     5.0357  1049.9999 </r>
       <r>     2.2487     0.0004  1050.0000 </r>
       <r>     2.3871     0.0000  1050.0000 </r>
       <r>     2.5255     0.0000  1050.0000 </r>
       <r>     2.6639     0.0000  1050.0000 </r>
       <r>     2.8023     0.0007  1050.0001 </r>
       <r>     2.9407     2.8533  1050.3950 </r>
       <r>     3.0791     9.3845  1051.6939 </r>
       <r>     3.2176     2.2114  1052.0000 </r>
       <r>     3.3560     0.0002  1052.0000 </r>
       <r>     3.4944     2.5735  1052.3562 </r>
       <r>     3.6328     4.6499  1052.9998 </r>
       <r>     3.7712     3.5941  1053.4972 </r>
       <r>     3.9096     3.6320  1053.9999 </r>
       <r>     4.0480     0.0004  1054.0000 </r>
       <r>     4.1864     0.0000  1054.0000 </r>
       <r>     4.3248     0.0000  1054.0000 </r>
       <r>     4.4632     0.0000  1054.0000 </r>
       <r>     4.6016     1.4304  1054.1980 </r>
       <r>     4.7400    11.3278  1055.7658 </r>
       <r>     4.8785     1.6917  1056.0000 </r>
       <r>     5.0169     0.0000  1056.0000 </r>
       <r>     5.1553     0.0000  1056.0000 </r>
       <r>     5.2937     0.0000  1056.0000 </r>
       <r>     5.4321     0.0000  1056.0000 </r>
       <r>     5.5705     0.0000  1056.0000 </r>
       <r>     5.7089     0.0000  1056.0000 </r>
       <r>     5.8473     0.0000  1056.0000 </r>
       <r>     5.9857     0.0000  1056.0000 </r>
       <r>     6.1241     0.0000  1056.0000 </r>
       <r>     6.2625     0.0000  1056.0000 </r>
       <r>     6.4010     0.0000  1056.0000 </r>
       <r>     6.5394     0.0000  1056.0000 </r>
       <r>     6.6778     0.0000  1056.0000 </r>
       <r>     6.8162     0.0000  1056.0000 </r>
       <r>     6.9546     0.0021  1056.0003 </r>
       <r>     7.0930     1.4581  1056.2021 </r>
       <r>     7.2314     0.3460  1056.2500 </r>
       <r>     7.3698     0.0000  1056.2500 </r>
       <r>     7.5082     0.0000  1056.2500 </r>
       <r>     7.6466     0.0000  1056.2500 </r>
       <r>     7.7850     0.0143  1056.2520 </r>
       <r>     7.9234     3.4097  1056.7239 </r>
       <r>     8.0619     3.7760  1057.2465 </r>
       <r>     8.2003     0.1887  1057.2727 </r>
       <r>     8.3387     4.4498  1057.8885 </r>
       <r>     8.4771     2.6099  1058.2498 </r>
       <r>     8.6155     0.0017  1058.2500 </r>
       <r>     8.7539     1.1304  1058.4065 </r>
       <r>     8.8923     8.3764  1059.5658 </r>
       <r>     9.0307     6.3559  1060.4455 </r>
       <r>     9.1691     4.2174  1061.0293 </r>
       <r>     9.3075     5.4432  1061.7827 </r>
       <r>     9.4459     3.1631  1062.2205 </r>
       <r>     9.5844     9.7658  1063.5721 </r>
       <r>     9.7228     9.2164  1064.8478 </r>
       <r>     9.8612     1.7405  1065.0887 </r>
       <r>     9.9996     8.9315  1066.3249 </r>
       <r>    10.1380    14.5404  1068.3374 </r>
       <r>    10.2764    17.5020  1070.7598 </r>
       <r>    10.4148    21.1123  1073.6819 </r>
       <r>    10.5532     9.7216  1075.0275 </r>
       <r>    10.6916    27.5211  1078.8366 </r>
       <r>    10.8300    29.2379  1082.8834 </r>
       <r>    10.9684    39.2133  1088.3109 </r>
       <r>    11.1068    31.8208  1092.7152 </r>
       <r>    11.2453    38.9561  1098.1070 </r>
       <r>    11.3837    30.2332  1102.2915 </r>
       <r>    11.5221    33.6809  1106.9533 </r>
       <r>    11.6605    24.3265  1110.3203 </r>
       <r>    11.7989    35.7099  1115.2628 </r>
       <r>    11.9373    33.9197  1119.9576 </r>
       <r>    12.0757    37.2377  1125.1116 </r>
       <r>    12.2141    38.8349  1130.4867 </r>
       <r>    12.3525    32.3822  1134.9687 </r>
       <r>    12.4909    23.3543  1138.2011 </r>
       <r>    12.6293    37.6226  1143.4084 </r>
       <r>    12.7678    41.4699  1149.1482 </r>
       <r>    12.9062    38.0945  1154.4208 </r>
       <r>    13.0446    33.7979  1159.0987 </r>
       <r>    13.1830    16.3776  1161.3655 </r>
       <r>    13.3214    26.0202  1164.9669 </r>
       <r>    13.4598    30.0812  1169.1304 </r>
       <r>    13.5982    23.5146  1172.3851 </r>
       <r>    13.7366    27.0446  1176.1283 </r>
       <r>    13.8750    28.6489  1180.0935 </r>
       <r>    14.0134    29.2980  1184.1486 </r>
       <r>    14.1518    27.9211  1188.0131 </r>
       <r>    14.2902    25.8141  1191.5860 </r>
       <r>    14.4287    23.3729  1194.8211 </r>
       <r>    14.5671    21.9010  1197.8523 </r>
       <r>    14.7055    21.8154  1200.8718 </r>
       <r>    14.8439    19.3822  1203.5545 </r>
       <r>    14.9823    24.1184  1206.8926 </r>
       <r>    15.1207    21.3066  1209.8417 </r>
       <r>    15.2591    25.9985  1213.4401 </r>
       <r>    15.3975    24.4607  1216.8257 </r>
       <r>    15.5359    25.2945  1220.3266 </r>
       <r>    15.6743    21.5324  1223.3069 </r>
       <r>    15.8127    25.4943  1226.8355 </r>
       <r>    15.9511    23.4111  1230.0758 </r>
       <r>    16.0896    22.4546  1233.1838 </r>
       <r>    16.2280    24.0051  1236.5063 </r>
       <r>    16.3664    20.1473  1239.2948 </r>
       <r>    16.5048    18.4345  1241.8463 </r>
       <r>    16.6432    22.7370  1244.9933 </r>
       <r>    16.7816    18.7528  1247.5889 </r>
       <r>    16.9200    20.7771  1250.4646 </r>
       <r>    17.0584    18.2168  1252.9859 </r>
       <r>    17.1968    15.4009  1255.1176 </r>
       <r>    17.3352    13.1805  1256.9419 </r>
       <r>    17.4736    15.7573  1259.1228 </r>
       <r>    17.6121     9.7015  1260.4656 </r>
       <r>    17.7505     6.1478  1261.3165 </r>
       <r>    17.8889     6.4952  1262.2155 </r>
       <r>    18.0273    10.0009  1263.5997 </r>
       <r>    18.1657     6.1724  1264.4540 </r>
       <r>    18.3041     1.9363  1264.7220 </r>
       <r>    18.4425     2.0936  1265.0118 </r>
       <r>    18.5809     5.2554  1265.7392 </r>
       <r>    18.7193     0.2177  1265.7693 </r>
       <r>    18.8577     1.6551  1265.9984 </r>
       <r>    18.9961     0.0115  1266.0000 </r>
       <r>    19.1345     0.0000  1266.0000 </r>
       <r>    19.2730     0.0000  1266.0000 </r>
       <r>    19.4114     0.0000  1266.0000 </r>
       <r>    19.5498     0.0000  1266.0000 </r>
       <r>    19.6882     0.0000  1266.0000 </r>
       <r>    19.8266     0.0000  1266.0000 </r>
       <r>    19.9650     0.0000  1266.0000 </r>
       <r>    20.1034     0.0000  1266.0000 </r>
       <r>    20.2418     0.0000  1266.0000 </r>
       <r>    20.3802     0.0000  1266.0000 </r>
       <r>    20.5186     0.0000  1266.0000 </r>
       <r>    20.6570     0.0000  1266.0000 </r>
      </set>
     </set>
    </array>
   </total>
  </dos>
 </calculation>
 <structure name="finalpos" >
  <crystal>
   <varray name="basis" >
    <v>       0.00000000      12.28047342       0.00000000 </v>
    <v>       9.14270205       0.00000000       0.00000000 </v>
    <v>       0.00000000      -2.76826177     -11.30069772 </v>
   </varray>
   <i name="volume">   1268.80515525 </i>
   <varray name="rec_basis" >
    <v>       0.00000000       0.08143009      -0.01994742 </v>
    <v>       0.10937686      -0.00000000       0.00000000 </v>
    <v>       0.00000000       0.00000000      -0.08849011 </v>
   </varray>
  </crystal>
  <varray name="positions" >
   <v>       0.65891599       0.00000000       0.15597142 </v>
   <v>       0.65941879       0.00000000       0.65602134 </v>
   <v>       0.65874031       0.33392692       0.15628865 </v>
   <v>       0.65815433       0.33337633       0.65617085 </v>
   <v>       0.65874031       0.66607308       0.15628865 </v>
   <v>       0.65815433       0.66662367       0.65617085 </v>
   <v>       0.83675626       0.16799049       0.34270879 </v>
   <v>       0.83999728       0.16722953       0.84217595 </v>
   <v>       0.84009126       0.50000000       0.34270533 </v>
   <v>       0.84031631       0.50000000       0.84303102 </v>
   <v>       0.83675626       0.83200951       0.34270879 </v>
   <v>       0.83999728       0.83277047       0.84217595 </v>
   <v>       0.58984556       0.16715905       0.39779286 </v>
   <v>       0.59209111       0.16655609       0.89801136 </v>
   <v>       0.59075698       0.50000000       0.39789338 </v>
   <v>       0.59476716       0.50000000       0.89907114 </v>
   <v>       0.58984556       0.83284095       0.39779286 </v>
   <v>       0.59209111       0.83344391       0.89801136 </v>
   <v>       0.90607561       0.00000000       0.09956758 </v>
   <v>       0.90952406       0.00000000       0.60164915 </v>
   <v>       0.90776520       0.33292620       0.10264792 </v>
   <v>       0.90767538       0.33359622       0.60179729 </v>
   <v>       0.90776520       0.66707380       0.10264792 </v>
   <v>       0.90767538       0.66640378       0.60179729 </v>
   <v>       0.15874959       0.16633240       0.15250428 </v>
   <v>       0.16098052       0.17793969       0.66319163 </v>
   <v>       0.15726680       0.50000000       0.15895989 </v>
   <v>       0.15879605       0.50000000       0.65890840 </v>
   <v>       0.15874959       0.83366760       0.15250428 </v>
   <v>       0.16098052       0.82206031       0.66319163 </v>
   <v>       0.34121679       0.00000000       0.33983326 </v>
   <v>       0.34239687       0.00000000       0.84756535 </v>
   <v>       0.33994931       0.33454927       0.34337181 </v>
   <v>       0.34513905       0.33454584       0.84761066 </v>
   <v>       0.33994931       0.66545073       0.34337181 </v>
   <v>       0.34513905       0.66545416       0.84761066 </v>
   <v>       0.07582916       0.00000000       0.37229854 </v>
   <v>       0.08960343       0.00000000       0.89555877 </v>
   <v>       0.08994384       0.33305121       0.39910539 </v>
   <v>       0.08947637       0.33347483       0.89875841 </v>
   <v>       0.08994384       0.66694879       0.39910539 </v>
   <v>       0.08947637       0.66652517       0.89875841 </v>
   <v>       0.41042883       0.16685733       0.10425497 </v>
   <v>       0.40916244       0.16592797       0.60625163 </v>
   <v>       0.40923333       0.50000000       0.10471703 </v>
   <v>       0.40787874       0.50000000       0.60383110 </v>
   <v>       0.41042883       0.83314267       0.10425497 </v>
   <v>       0.40916244       0.83407203       0.60625163 </v>
   <v>       0.99522024       0.16584021       0.12380773 </v>
   <v>       0.99660115       0.16732300       0.62591100 </v>
   <v>       0.99513691       0.50000000       0.12744488 </v>
   <v>       0.99529911       0.50000000       0.62889730 </v>
   <v>       0.99522024       0.83415979       0.12380773 </v>
   <v>       0.99660115       0.83267700       0.62591100 </v>
   <v>       0.50341227       0.00000000       0.37233325 </v>
   <v>       0.50498067       0.00000000       0.87591909 </v>
   <v>       0.50265859       0.33377677       0.37270979 </v>
   <v>       0.50714925       0.33471456       0.87672357 </v>
   <v>       0.50265859       0.66622323       0.37270979 </v>
   <v>       0.50714925       0.66528544       0.87672357 </v>
   <v>       0.67097342       0.16664721       0.28027401 </v>
   <v>       0.67212086       0.16681280       0.77975146 </v>
   <v>       0.67159713       0.50000000       0.28064928 </v>
   <v>       0.67288074       0.50000000       0.77977663 </v>
   <v>       0.67097342       0.83335279       0.28027401 </v>
   <v>       0.67212086       0.83318720       0.77975146 </v>
   <v>       0.82638632       0.00000000       0.21845775 </v>
   <v>       0.82751851       0.00000000       0.71841648 </v>
   <v>       0.82548331       0.33436759       0.21875638 </v>
   <v>       0.82683624       0.33312436       0.71930764 </v>
   <v>       0.82548331       0.66563241       0.21875638 </v>
   <v>       0.82683624       0.66687564       0.71930764 </v>
   <v>       0.83202381       0.00000000       0.44529820 </v>
   <v>       0.82995320       0.00000000       0.94343832 </v>
   <v>       0.83013580       0.33412586       0.44577688 </v>
   <v>       0.83156958       0.33333106       0.94552224 </v>
   <v>       0.83013580       0.66587414       0.44577688 </v>
   <v>       0.83156958       0.66666894       0.94552224 </v>
   <v>       0.66859245       0.16675171       0.05470606 </v>
   <v>       0.66764664       0.16687549       0.55379212 </v>
   <v>       0.67010993       0.50000000       0.05538302 </v>
   <v>       0.66761655       0.50000000       0.55424629 </v>
   <v>       0.66859245       0.83324829       0.05470606 </v>
   <v>       0.66764664       0.83312451       0.55379212 </v>
   <v>       0.49711133       0.00000000       0.12889227 </v>
   <v>       0.49759388       0.00000000       0.62900314 </v>
   <v>       0.49685364       0.33397501       0.12877038 </v>
   <v>       0.49588871       0.33357174       0.62699336 </v>
   <v>       0.49685364       0.66602499       0.12877038 </v>
   <v>       0.49588871       0.66642826       0.62699336 </v>
   <v>       0.99644445       0.17186780       0.36345925 </v>
   <v>       0.00254589       0.16691926       0.87082813 </v>
   <v>       0.00232755       0.50000000       0.37261069 </v>
   <v>       0.00265565       0.50000000       0.87312937 </v>
   <v>       0.99644445       0.82813220       0.36345925 </v>
   <v>       0.00254589       0.83308074       0.87082813 </v>
   <v>       0.17068973       0.00000000       0.26811578 </v>
   <v>       0.17462898       0.00000000       0.78281167 </v>
   <v>       0.17184892       0.33196976       0.28146216 </v>
   <v>       0.17286256       0.33523501       0.78316474 </v>
   <v>       0.17184892       0.66803024       0.28146216 </v>
   <v>       0.17286256       0.66476499       0.78316474 </v>
   <v>       0.32765462       0.16767043       0.21987306 </v>
   <v>       0.33577026       0.17368311       0.73031576 </v>
   <v>       0.32613682       0.50000000       0.22008677 </v>
   <v>       0.32864501       0.50000000       0.72277515 </v>
   <v>       0.32765462       0.83232957       0.21987306 </v>
   <v>       0.33577026       0.82631689       0.73031576 </v>
   <v>       0.33574166       0.16571887       0.44602101 </v>
   <v>       0.33234681       0.16769077       0.94918498 </v>
   <v>       0.33235711       0.50000000       0.44650439 </v>
   <v>       0.33269503       0.50000000       0.94830456 </v>
   <v>       0.33574166       0.83428113       0.44602101 </v>
   <v>       0.33234681       0.83230923       0.94918498 </v>
   <v>       0.16894423       0.00000000       0.04980490 </v>
   <v>       0.16710892       0.33484262       0.05463649 </v>
   <v>       0.16804109       0.34059329       0.55482844 </v>
   <v>       0.16710892       0.66515738       0.05463649 </v>
   <v>       0.16804109       0.65940671       0.55482844 </v>
   <v>       0.20131132       0.00000000       0.54168000 </v>
  </varray>
 </structure>
</modeling>
