<?xml version="1.0" encoding="ISO-8859-1"?>
<modeling>
 <generator>
  <i name="program" type="string">vasp </i>
  <i name="version" type="string">6.4.2  </i>
  <i name="subversion" type="string">20Jul23 (build Mar  2 2025 11:04:54) complex                          parallel </i>
  <i name="platform" type="string">LinuxNV </i>
  <i name="date" type="string">2025 03 06 </i>
  <i name="time" type="string">09:23:04 </i>
 </generator>
 <incar>
  <i type="int" name="ISTART">     0</i>
  <i type="string" name="PREC">Normal</i>
  <i type="string" name="ALGO">Fast</i>
  <i type="int" name="ISPIN">     1</i>
  <i type="int" name="ICHARG">     2</i>
  <i type="int" name="IBRION">     2</i>
  <i name="EDIFF">      0.00001000</i>
  <i name="EDIFFG">     -0.00500000</i>
  <i type="int" name="NSW">   300</i>
  <i type="int" name="ISIF">     2</i>
  <i name="ENCUT">    450.00000000</i>
  <i type="string" name="LREAL">Auto</i>
  <i type="logical" name="LPLANE"> T  </i>
  <i type="int" name="ISMEAR">     0</i>
  <i name="SIGMA">      0.05000000</i>
  <i type="logical" name="LWAVE"> F  </i>
  <i type="logical" name="LCHARG"> F  </i>
 </incar>
 <primitive_cell>
  <structure name="primitive_cell" >
   <crystal>
    <varray name="basis" >
     <v>       0.00000000      12.28047342       0.00000000 </v>
     <v>       9.14270205       0.00000000       0.00000000 </v>
     <v>       0.00000000      -2.76826177     -11.30069772 </v>
    </varray>
    <i name="volume">   1268.80515525 </i>
    <varray name="rec_basis" >
     <v>       0.00000000       0.08143009      -0.01994742 </v>
     <v>       0.10937686      -0.00000000       0.00000000 </v>
     <v>       0.00000000       0.00000000      -0.08849011 </v>
    </varray>
   </crystal>
   <varray name="positions" >
    <v>       0.65883830       0.00000000       0.15736517 </v>
    <v>       0.65883830       0.00000000       0.65736517 </v>
    <v>       0.65883830       0.33333333       0.15736517 </v>
    <v>       0.65883830       0.33333333       0.65736517 </v>
    <v>       0.65883830       0.66666667       0.15736517 </v>
    <v>       0.65883830       0.66666667       0.65736517 </v>
    <v>       0.84116170       0.16666667       0.34263483 </v>
    <v>       0.84116170       0.16666667       0.84263483 </v>
    <v>       0.84116170       0.50000000       0.34263483 </v>
    <v>       0.84116170       0.50000000       0.84263483 </v>
    <v>       0.84116170       0.83333333       0.34263483 </v>
    <v>       0.84116170       0.83333333       0.84263483 </v>
    <v>       0.59047440       0.16666667       0.39739300 </v>
    <v>       0.59047440       0.16666667       0.89739300 </v>
    <v>       0.59047440       0.50000000       0.39739300 </v>
    <v>       0.59047440       0.50000000       0.89739300 </v>
    <v>       0.59047440       0.83333333       0.39739300 </v>
    <v>       0.59047440       0.83333333       0.89739300 </v>
    <v>       0.90952560       0.00000000       0.10260700 </v>
    <v>       0.90952560       0.00000000       0.60260700 </v>
    <v>       0.90952560       0.33333333       0.10260700 </v>
    <v>       0.90952560       0.33333333       0.60260700 </v>
    <v>       0.90952560       0.66666667       0.10260700 </v>
    <v>       0.90952560       0.66666667       0.60260700 </v>
    <v>       0.15883830       0.16666667       0.15736517 </v>
    <v>       0.15883830       0.16666667       0.65736517 </v>
    <v>       0.15883830       0.50000000       0.15736517 </v>
    <v>       0.15883830       0.50000000       0.65736517 </v>
    <v>       0.15883830       0.83333333       0.15736517 </v>
    <v>       0.15883830       0.83333333       0.65736517 </v>
    <v>       0.34116170       0.00000000       0.34263483 </v>
    <v>       0.34116170       0.00000000       0.84263483 </v>
    <v>       0.34116170       0.33333333       0.84263483 </v>
    <v>       0.34116170       0.66666667       0.34263483 </v>
    <v>       0.34116170       0.66666667       0.84263483 </v>
    <v>       0.09047440       0.00000000       0.39739300 </v>
    <v>       0.09047440       0.00000000       0.89739300 </v>
    <v>       0.09047440       0.33333333       0.39739300 </v>
    <v>       0.09047440       0.33333333       0.89739300 </v>
    <v>       0.09047440       0.66666667       0.39739300 </v>
    <v>       0.09047440       0.66666667       0.89739300 </v>
    <v>       0.40952560       0.16666667       0.10260700 </v>
    <v>       0.40952560       0.16666667       0.60260700 </v>
    <v>       0.40952560       0.50000000       0.10260700 </v>
    <v>       0.40952560       0.50000000       0.60260700 </v>
    <v>       0.40952560       0.83333333       0.10260700 </v>
    <v>       0.40952560       0.83333333       0.60260700 </v>
    <v>       0.99646913       0.16666667       0.12833205 </v>
    <v>       0.99646913       0.16666667       0.62833205 </v>
    <v>       0.99646913       0.50000000       0.12833205 </v>
    <v>       0.99646913       0.50000000       0.62833205 </v>
    <v>       0.99646913       0.83333333       0.12833205 </v>
    <v>       0.99646913       0.83333333       0.62833205 </v>
    <v>       0.50353087       0.00000000       0.37166795 </v>
    <v>       0.50353087       0.00000000       0.87166795 </v>
    <v>       0.50353087       0.33333333       0.37166795 </v>
    <v>       0.50353087       0.33333333       0.87166795 </v>
    <v>       0.50353087       0.66666667       0.37166795 </v>
    <v>       0.50353087       0.66666667       0.87166795 </v>
    <v>       0.67337106       0.16666667       0.28161508 </v>
    <v>       0.67337106       0.16666667       0.78161508 </v>
    <v>       0.67337106       0.50000000       0.28161508 </v>
    <v>       0.67337106       0.50000000       0.78161508 </v>
    <v>       0.67337106       0.83333333       0.28161508 </v>
    <v>       0.67337106       0.83333333       0.78161508 </v>
    <v>       0.82662894       0.00000000       0.21838492 </v>
    <v>       0.82662894       0.00000000       0.71838492 </v>
    <v>       0.82662894       0.33333333       0.21838492 </v>
    <v>       0.82662894       0.33333333       0.71838492 </v>
    <v>       0.82662894       0.66666667       0.21838492 </v>
    <v>       0.82662894       0.66666667       0.71838492 </v>
    <v>       0.83549502       0.00000000       0.44542296 </v>
    <v>       0.83549502       0.00000000       0.94542296 </v>
    <v>       0.83549502       0.33333333       0.44542296 </v>
    <v>       0.83549502       0.33333333       0.94542296 </v>
    <v>       0.83549502       0.66666667       0.44542296 </v>
    <v>       0.83549502       0.66666667       0.94542296 </v>
    <v>       0.66450498       0.16666667       0.05457704 </v>
    <v>       0.66450498       0.16666667       0.55457704 </v>
    <v>       0.66450498       0.50000000       0.05457704 </v>
    <v>       0.66450498       0.50000000       0.55457704 </v>
    <v>       0.66450498       0.83333333       0.05457704 </v>
    <v>       0.66450498       0.83333333       0.55457704 </v>
    <v>       0.49646913       0.00000000       0.12833205 </v>
    <v>       0.49646913       0.00000000       0.62833205 </v>
    <v>       0.49646913       0.33333333       0.12833205 </v>
    <v>       0.49646913       0.33333333       0.62833205 </v>
    <v>       0.49646913       0.66666667       0.12833205 </v>
    <v>       0.49646913       0.66666667       0.62833205 </v>
    <v>       0.00353087       0.16666667       0.37166795 </v>
    <v>       0.00353087       0.16666667       0.87166795 </v>
    <v>       0.00353087       0.50000000       0.37166795 </v>
    <v>       0.00353087       0.50000000       0.87166795 </v>
    <v>       0.00353087       0.83333333       0.37166795 </v>
    <v>       0.00353087       0.83333333       0.87166795 </v>
    <v>       0.17337106       0.00000000       0.28161508 </v>
    <v>       0.17337106       0.00000000       0.78161508 </v>
    <v>       0.17337106       0.33333333       0.28161508 </v>
    <v>       0.17337106       0.33333333       0.78161508 </v>
    <v>       0.17337106       0.66666667       0.28161508 </v>
    <v>       0.17337106       0.66666667       0.78161508 </v>
    <v>       0.32662894       0.16666667       0.21838492 </v>
    <v>       0.32662894       0.16666667       0.71838492 </v>
    <v>       0.32662894       0.50000000       0.21838492 </v>
    <v>       0.32662894       0.50000000       0.71838492 </v>
    <v>       0.32662894       0.83333333       0.21838492 </v>
    <v>       0.32662894       0.83333333       0.71838492 </v>
    <v>       0.33549502       0.16666667       0.44542296 </v>
    <v>       0.33549502       0.16666667       0.94542296 </v>
    <v>       0.33549502       0.50000000       0.44542296 </v>
    <v>       0.33549502       0.50000000       0.94542296 </v>
    <v>       0.33549502       0.83333333       0.44542296 </v>
    <v>       0.33549502       0.83333333       0.94542296 </v>
    <v>       0.16450498       0.00000000       0.05457704 </v>
    <v>       0.16450498       0.00000000       0.55457704 </v>
    <v>       0.16450498       0.33333333       0.05457704 </v>
    <v>       0.16450498       0.33333333       0.55457704 </v>
    <v>       0.16450498       0.66666667       0.05457704 </v>
    <v>       0.16450498       0.66666667       0.55457704 </v>
   </varray>
  </structure>
  <varray name="primitive_index" >
   <v type="int" >        1 </v>
   <v type="int" >        2 </v>
   <v type="int" >        3 </v>
   <v type="int" >        4 </v>
   <v type="int" >        5 </v>
   <v type="int" >        6 </v>
   <v type="int" >        7 </v>
   <v type="int" >        8 </v>
   <v type="int" >        9 </v>
   <v type="int" >       10 </v>
   <v type="int" >       11 </v>
   <v type="int" >       12 </v>
   <v type="int" >       13 </v>
   <v type="int" >       14 </v>
   <v type="int" >       15 </v>
   <v type="int" >       16 </v>
   <v type="int" >       17 </v>
   <v type="int" >       18 </v>
   <v type="int" >       19 </v>
   <v type="int" >       20 </v>
   <v type="int" >       21 </v>
   <v type="int" >       22 </v>
   <v type="int" >       23 </v>
   <v type="int" >       24 </v>
   <v type="int" >       25 </v>
   <v type="int" >       26 </v>
   <v type="int" >       27 </v>
   <v type="int" >       28 </v>
   <v type="int" >       29 </v>
   <v type="int" >       30 </v>
   <v type="int" >       31 </v>
   <v type="int" >       32 </v>
   <v type="int" >       33 </v>
   <v type="int" >       34 </v>
   <v type="int" >       35 </v>
   <v type="int" >       36 </v>
   <v type="int" >       37 </v>
   <v type="int" >       38 </v>
   <v type="int" >       39 </v>
   <v type="int" >       40 </v>
   <v type="int" >       41 </v>
   <v type="int" >       42 </v>
   <v type="int" >       43 </v>
   <v type="int" >       44 </v>
   <v type="int" >       45 </v>
   <v type="int" >       46 </v>
   <v type="int" >       47 </v>
   <v type="int" >       48 </v>
   <v type="int" >       49 </v>
   <v type="int" >       50 </v>
   <v type="int" >       51 </v>
   <v type="int" >       52 </v>
   <v type="int" >       53 </v>
   <v type="int" >       54 </v>
   <v type="int" >       55 </v>
   <v type="int" >       56 </v>
   <v type="int" >       57 </v>
   <v type="int" >       58 </v>
   <v type="int" >       59 </v>
   <v type="int" >       60 </v>
   <v type="int" >       61 </v>
   <v type="int" >       62 </v>
   <v type="int" >       63 </v>
   <v type="int" >       64 </v>
   <v type="int" >       65 </v>
   <v type="int" >       66 </v>
   <v type="int" >       67 </v>
   <v type="int" >       68 </v>
   <v type="int" >       69 </v>
   <v type="int" >       70 </v>
   <v type="int" >       71 </v>
   <v type="int" >       72 </v>
   <v type="int" >       73 </v>
   <v type="int" >       74 </v>
   <v type="int" >       75 </v>
   <v type="int" >       76 </v>
   <v type="int" >       77 </v>
   <v type="int" >       78 </v>
   <v type="int" >       79 </v>
   <v type="int" >       80 </v>
   <v type="int" >       81 </v>
   <v type="int" >       82 </v>
   <v type="int" >       83 </v>
   <v type="int" >       84 </v>
   <v type="int" >       85 </v>
   <v type="int" >       86 </v>
   <v type="int" >       87 </v>
   <v type="int" >       88 </v>
   <v type="int" >       89 </v>
   <v type="int" >       90 </v>
   <v type="int" >       91 </v>
   <v type="int" >       92 </v>
   <v type="int" >       93 </v>
   <v type="int" >       94 </v>
   <v type="int" >       95 </v>
   <v type="int" >       96 </v>
   <v type="int" >       97 </v>
   <v type="int" >       98 </v>
   <v type="int" >       99 </v>
   <v type="int" >      100 </v>
   <v type="int" >      101 </v>
   <v type="int" >      102 </v>
   <v type="int" >      103 </v>
   <v type="int" >      104 </v>
   <v type="int" >      105 </v>
   <v type="int" >      106 </v>
   <v type="int" >      107 </v>
   <v type="int" >      108 </v>
   <v type="int" >      109 </v>
   <v type="int" >      110 </v>
   <v type="int" >      111 </v>
   <v type="int" >      112 </v>
   <v type="int" >      113 </v>
   <v type="int" >      114 </v>
   <v type="int" >      115 </v>
   <v type="int" >      116 </v>
   <v type="int" >      117 </v>
   <v type="int" >      118 </v>
   <v type="int" >      119 </v>
  </varray>
 </primitive_cell>
 <kpoints>
  <generation param="Gamma">
   <v type="int" name="divisions">       2        2        2 </v>
   <v name="usershift">      0.00000000       0.00000000       0.00000000 </v>
   <v name="genvec1">      0.50000000       0.00000000       0.00000000 </v>
   <v name="genvec2">      0.00000000       0.50000000       0.00000000 </v>
   <v name="genvec3">      0.00000000       0.00000000       0.50000000 </v>
   <v name="shift">      0.00000000       0.00000000       0.00000000 </v>
  </generation>
  <varray name="kpointlist" >
   <v>       0.00000000       0.00000000       0.00000000 </v>
   <v>       0.50000000       0.00000000       0.00000000 </v>
   <v>       0.00000000       0.50000000       0.00000000 </v>
   <v>       0.50000000       0.50000000       0.00000000 </v>
   <v>       0.00000000       0.00000000       0.50000000 </v>
   <v>       0.50000000       0.00000000       0.50000000 </v>
   <v>       0.00000000       0.50000000       0.50000000 </v>
   <v>       0.50000000       0.50000000       0.50000000 </v>
  </varray>
  <varray name="weights" >
   <v>       0.12500000 </v>
   <v>       0.12500000 </v>
   <v>       0.12500000 </v>
   <v>       0.12500000 </v>
   <v>       0.12500000 </v>
   <v>       0.12500000 </v>
   <v>       0.12500000 </v>
   <v>       0.12500000 </v>
  </varray>
 </kpoints>
 <parameters>
  <separator name="general" >
   <i type="string" name="SYSTEM">unknown system</i>
   <i type="logical" name="LCOMPAT"> F  </i>
  </separator>
  <separator name="electronic" >
   <i type="string" name="PREC">normal</i>
   <i name="ENMAX">    450.00000000</i>
   <i name="ENAUG">    605.39200000</i>
   <i name="EDIFF">      0.00001000</i>
   <i type="int" name="IALGO">    68</i>
   <i type="int" name="IWAVPR">    11</i>
   <i type="int" name="NBANDS">   625</i>
   <i type="int" name="NBANDSLOW">    -1</i>
   <i type="int" name="NBANDSHIGH">    -1</i>
   <i name="NELECT">   1043.00000000</i>
   <i type="int" name="TURBO">     0</i>
   <i type="int" name="IRESTART">     0</i>
   <i type="int" name="NREBOOT">     0</i>
   <i type="int" name="NMIN">     0</i>
   <i name="EREF">      0.00000000</i>
   <separator name="electronic smearing" >
    <i type="int" name="ISMEAR">     0</i>
    <i name="SIGMA">      0.05000000</i>
    <i name="KSPACING">      0.50000000</i>
    <i type="logical" name="KGAMMA"> T  </i>
    <i type="logical" name="KBLOWUP"> T  </i>
   </separator>
   <separator name="electronic projectors" >
    <i type="logical" name="LREAL"> T  </i>
    <v name="ROPT">     -0.00050000     -0.00050000</v>
    <i type="int" name="LMAXPAW">  -100</i>
    <i type="int" name="LMAXMIX">     2</i>
    <i type="logical" name="NLSPLINE"> F  </i>
   </separator>
   <separator name="electronic startup" >
    <i type="int" name="ISTART">     0</i>
    <i type="int" name="ICHARG">     2</i>
    <i type="int" name="INIWAV">     1</i>
   </separator>
   <separator name="electronic spin" >
    <i type="int" name="ISPIN">     1</i>
    <i type="logical" name="LNONCOLLINEAR"> F  </i>
    <v name="MAGMOM">      1.00000000      1.00000000      1.00000000      1.00000000      1.00000000      1.00000000      1.00000000      1.00000000      1.00000000      1.00000000      1.00000000      1.00000000      1.00000000      1.00000000      1.00000000      1.00000000      1.00000000      1.00000000      1.00000000      1.00000000
      1.00000000      1.00000000      1.00000000      1.00000000      1.00000000      1.00000000      1.00000000      1.00000000      1.00000000      1.00000000      1.00000000      1.00000000      1.00000000      1.00000000      1.00000000      1.00000000      1.00000000      1.00000000      1.00000000      1.00000000
      1.00000000      1.00000000      1.00000000      1.00000000      1.00000000      1.00000000      1.00000000      1.00000000      1.00000000      1.00000000      1.00000000      1.00000000      1.00000000      1.00000000      1.00000000      1.00000000      1.00000000      1.00000000      1.00000000      1.00000000
      1.00000000      1.00000000      1.00000000      1.00000000      1.00000000      1.00000000      1.00000000      1.00000000      1.00000000      1.00000000      1.00000000      1.00000000      1.00000000      1.00000000      1.00000000      1.00000000      1.00000000      1.00000000      1.00000000      1.00000000
      1.00000000      1.00000000      1.00000000      1.00000000      1.00000000      1.00000000      1.00000000      1.00000000      1.00000000      1.00000000      1.00000000      1.00000000      1.00000000      1.00000000      1.00000000      1.00000000      1.00000000      1.00000000      1.00000000      1.00000000
      1.00000000      1.00000000      1.00000000      1.00000000      1.00000000      1.00000000      1.00000000      1.00000000      1.00000000      1.00000000      1.00000000      1.00000000      1.00000000      1.00000000      1.00000000      1.00000000      1.00000000      1.00000000      1.00000000</v>
    <i name="NUPDOWN">     -1.00000000</i>
    <i type="logical" name="LSORBIT"> F  </i>
    <v name="SAXIS">      0.00000000      0.00000000      1.00000000</v>
    <i type="logical" name="LSPIRAL"> F  </i>
    <v name="QSPIRAL">      0.00000000      0.00000000      0.00000000</v>
    <i type="logical" name="LZEROZ"> F  </i>
   </separator>
   <separator name="electronic exchange-correlation" >
    <i type="logical" name="LASPH"> F  </i>
    <i type="logical" name="LMETAGGA"> F  </i>
   </separator>
   <separator name="electronic convergence" >
    <i type="int" name="NELM">    60</i>
    <i type="int" name="NELMDL">    -5</i>
    <i type="int" name="NELMIN">     2</i>
    <i name="ENINI">    450.00000000</i>
    <separator name="electronic convergence detail" >
     <i type="logical" name="LDIAG"> T  </i>
     <i type="logical" name="LSUBROT"> F  </i>
     <i name="WEIMIN">      0.00100000</i>
     <i name="EBREAK">      0.00000000</i>
     <i name="DEPER">      0.30000000</i>
     <i type="int" name="NRMM">     4</i>
     <i name="TIME">      0.40000000</i>
    </separator>
   </separator>
   <separator name="electronic mixer" >
    <i name="AMIX">      0.40000000</i>
    <i name="BMIX">      1.00000000</i>
    <i name="AMIN">      0.10000000</i>
    <i name="AMIX_MAG">      1.60000000</i>
    <i name="BMIX_MAG">      1.00000000</i>
    <separator name="electronic mixer details" >
     <i type="int" name="IMIX">     4</i>
     <i type="logical" name="MIXFIRST"> F  </i>
     <i type="int" name="MAXMIX">   -45</i>
     <i name="WC">    100.00000000</i>
     <i type="int" name="INIMIX">     1</i>
     <i type="int" name="MIXPRE">     1</i>
     <i type="int" name="MREMOVE">     5</i>
    </separator>
   </separator>
   <separator name="electronic dipolcorrection" >
    <i type="logical" name="LDIPOL"> F  </i>
    <i type="logical" name="LMONO"> F  </i>
    <i type="int" name="IDIPOL">     0</i>
    <i name="EPSILON">      1.00000000</i>
    <v name="DIPOL">   -100.00000000   -100.00000000   -100.00000000</v>
    <i name="EFIELD">      0.00000000</i>
   </separator>
  </separator>
  <separator name="grids" >
   <i type="int" name="NGX">    64</i>
   <i type="int" name="NGY">    48</i>
   <i type="int" name="NGZ">    60</i>
   <i type="int" name="NGXF">   128</i>
   <i type="int" name="NGYF">    96</i>
   <i type="int" name="NGZF">   120</i>
   <i type="logical" name="ADDGRID"> F  </i>
  </separator>
  <separator name="ionic" >
   <i type="int" name="NSW">   300</i>
   <i type="int" name="IBRION">     2</i>
   <i type="int" name="MDALGO">     0</i>
   <i type="int" name="ISIF">     2</i>
   <i name="PSTRESS">      0.00000000</i>
   <i name="EDIFFG">     -0.00500000</i>
   <i type="int" name="NFREE">     1</i>
   <i name="POTIM">      0.50000000</i>
   <i name="SMASS">     -3.00000000</i>
   <i name="SCALEE">      1.00000000</i>
  </separator>
  <separator name="ionic md" >
   <i name="TEBEG">      0.00010000</i>
   <i name="TEEND">      0.00010000</i>
   <i type="int" name="NBLOCK">     1</i>
   <i type="int" name="KBLOCK">   300</i>
   <i type="int" name="NPACO">   256</i>
   <i name="APACO">     10.00000000</i>
  </separator>
  <separator name="symmetry" >
   <i type="int" name="ISYM">     2</i>
   <i name="SYMPREC">      0.00001000</i>
  </separator>
  <separator name="dos" >
   <i type="int" name="LORBIT">     0</i>
   <v name="RWIGS">     -1.00000000     -1.00000000</v>
   <i type="int" name="NEDOS">   301</i>
   <i name="EMIN">     10.00000000</i>
   <i name="EMAX">    -10.00000000</i>
   <i name="EFERMI">      0.00000000</i>
  </separator>
  <separator name="writing" >
   <i type="int" name="NWRITE">     2</i>
   <i type="logical" name="LWAVE"> F  </i>
   <i type="logical" name="LDOWNSAMPLE"> F  </i>
   <i type="logical" name="LCHARG"> F  </i>
   <i type="logical" name="LPARD"> F  </i>
   <i type="logical" name="LVTOT"> F  </i>
   <i type="logical" name="LVHAR"> F  </i>
   <i type="logical" name="LELF"> F  </i>
   <i type="logical" name="LOPTICS"> F  </i>
   <v name="STM">      0.00000000      0.00000000      0.00000000      0.00000000      0.00000000      0.00000000      0.00000000</v>
  </separator>
  <separator name="performance" >
   <i type="int" name="NPAR">     1</i>
   <i type="int" name="NSIM">     4</i>
   <i type="int" name="NBLK">    -1</i>
   <i type="logical" name="LPLANE"> T  </i>
   <i type="logical" name="LSCALAPACK"> T  </i>
   <i type="logical" name="LSCAAWARE"> F  </i>
   <i type="logical" name="LSCALU"> F  </i>
   <i type="logical" name="LASYNC"> F  </i>
   <i type="logical" name="LORBITALREAL"> F  </i>
  </separator>
  <separator name="miscellaneous" >
   <i type="int" name="IDIOT">     3</i>
   <i type="int" name="PHON_NSTRUCT">    -1</i>
   <i type="logical" name="LMUSIC"> F  </i>
   <v name="POMASS">     69.72300000     16.00000000</v>
   <v name="DARWINR">      0.00000000      0.00000000</v>
   <v name="DARWINV">      1.00000000      1.00000000</v>
   <i type="logical" name="LCORR"> T  </i>
  </separator>
  <i type="logical" name="GGA_COMPAT"> T  </i>
  <i type="logical" name="LBERRY"> F  </i>
  <i type="int" name="ICORELEVEL">     0</i>
  <i type="logical" name="LDAU"> F  </i>
  <i type="int" name="I_CONSTRAINED_M">     0</i>
  <separator name="electronic exchange-correlation" >
   <i type="string" name="GGA">--</i>
   <i type="int" name="VOSKOWN">     0</i>
   <i type="logical" name="LHFCALC"> F  </i>
   <i type="string" name="PRECFOCK"></i>
   <i type="logical" name="LSYMGRAD"> F  </i>
   <i type="logical" name="LHFONE"> F  </i>
   <i type="logical" name="LRHFCALC"> F  </i>
   <i type="logical" name="LTHOMAS"> F  </i>
   <i type="logical" name="LMODELHF"> F  </i>
   <i type="logical" name="LFOCKACE"> F  </i>
   <i name="ENCUT4O">     -1.00000000</i>
   <i type="int" name="EXXOEP">     0</i>
   <i type="int" name="FOURORBIT">     0</i>
   <i name="AEXX">      0.00000000</i>
   <i name="HFALPHA">      0.00000000</i>
   <i name="MCALPHA">      0.00000000</i>
   <i name="ALDAX">      1.00000000</i>
   <i name="AGGAX">      1.00000000</i>
   <i name="ALDAC">      1.00000000</i>
   <i name="AGGAC">      1.00000000</i>
   <i type="int" name="NKREDX">     1</i>
   <i type="int" name="NKREDY">     1</i>
   <i type="int" name="NKREDZ">     1</i>
   <i type="logical" name="SHIFTRED"> F  </i>
   <i type="logical" name="ODDONLY"> F  </i>
   <i type="logical" name="EVENONLY"> F  </i>
   <i type="int" name="LMAXFOCK">     0</i>
   <i type="int" name="NMAXFOCKAE">     0</i>
   <i type="logical" name="LFOCKAEDFT"> F  </i>
   <i name="HFSCREEN">      0.00000000</i>
   <i name="HFSCREENC">      0.00000000</i>
   <i type="int" name="NBANDSGWLOW">     0</i>
  </separator>
  <separator name="vdW DFT" >
   <i type="logical" name="LUSE_VDW"> F  </i>
   <i type="int" name="IVDW_NL">     1</i>
   <i type="logical" name="LSPIN_VDW"> F  </i>
   <i name="Zab_VDW">     -0.84910000</i>
   <i name="PARAM1">      0.12340000</i>
   <i name="PARAM2">      1.00000000</i>
   <i name="PARAM3">      0.00000000</i>
  </separator>
  <separator name="model GW" >
   <i type="int" name="MODEL_GW">     0</i>
   <i name="MODEL_EPS0">      6.39733692</i>
   <i name="MODEL_ALPHA">      1.00000000</i>
  </separator>
  <separator name="linear response parameters" >
   <i type="logical" name="LEPSILON"> F  </i>
   <i type="logical" name="LRPA"> F  </i>
   <i type="logical" name="LNABLA"> F  </i>
   <i type="logical" name="LVEL"> F  </i>
   <i name="CSHIFT">      0.10000000</i>
   <i name="OMEGAMAX">     -1.00000000</i>
   <i name="DEG_THRESHOLD">      0.00200000</i>
   <i name="RTIME">     -0.10000000</i>
   <i name="WPLASMAI">      0.00000000</i>
   <v name="DFIELD">      0.00000000      0.00000000      0.00000000</v>
   <v name="WPLASMA">      0.00000000      0.00000000      0.00000000      0.00000000      0.00000000      0.00000000      0.00000000      0.00000000      0.00000000</v>
  </separator>
  <separator name="orbital magnetization" >
   <i type="logical" name="NUCIND"> F  </i>
   <v name="MAGPOS">      0.00000000      0.00000000      0.00000000</v>
   <i type="logical" name="LNICSALL"> T  </i>
   <i type="logical" name="ORBITALMAG"> F  </i>
   <i type="logical" name="LMAGBLOCH"> F  </i>
   <i type="logical" name="LCHIMAG"> F  </i>
   <i type="logical" name="LGAUGE"> T  </i>
   <i type="int" name="MAGATOM">     0</i>
   <v name="MAGDIPOL">      0.00000000      0.00000000      0.00000000</v>
   <v name="AVECCONST">      0.00000000      0.00000000      0.00000000</v>
  </separator>
  <separator name="response functions" >
   <i type="logical" name="LALL_IN_ONE"> F  </i>
   <i type="int" name="IALL_IN_ONE">    -1</i>
   <i type="int" name="NBANDS_WAVE">    -1</i>
   <i type="logical" name="LFINITE_TEMPERATURE"> F  </i>
   <i type="logical" name="LADDER"> F  </i>
   <i type="logical" name="LRPAFORCE"> F  </i>
   <i type="logical" name="LFXC"> F  </i>
   <i type="logical" name="LHARTREE"> T  </i>
   <i type="int" name="IBSE">     0</i>
   <v type="int" name="KPOINT">    -1     0     0     0</v>
   <i type="logical" name="LTCTC"> F  </i>
   <i type="logical" name="LTCTE"> F  </i>
   <i type="logical" name="LTETE"> F  </i>
   <i type="logical" name="LTRIPLET"> F  </i>
   <i type="logical" name="LFXCEPS"> F  </i>
   <i type="logical" name="LFXHEG"> F  </i>
   <i type="int" name="NATURALO">     2</i>
   <i type="logical" name="LHOLEGF"> F  </i>
   <i type="logical" name="L2ORDER"> F  </i>
   <i type="logical" name="LDMP1"> F  </i>
   <i type="logical" name="LMP2LT"> F  </i>
   <i type="logical" name="LSMP2LT"> F  </i>
   <i type="logical" name="LGWLF"> F  </i>
   <i name="ENCUTGW">     -1.60000002</i>
   <i name="ENCUTGWSOFT">     -1.60000002</i>
   <i name="ENCUTLF">     -1.00000000</i>
   <i type="logical" name="LESF_SPLINES"> F  </i>
   <i type="int" name="LMAXMP2">    -1</i>
   <i name="SCISSOR">      0.00000000</i>
   <i type="int" name="NOMEGA">     0</i>
   <i type="int" name="NOMEGAR">     0</i>
   <i type="int" name="NBANDSGW">    -1</i>
   <i type="int" name="NBANDSO">    -1</i>
   <i type="int" name="NBANDSV">    -1</i>
   <i type="int" name="NELMGW">     1</i>
   <i type="int" name="NELMHF">     1</i>
   <i type="int" name="DIM">     3</i>
   <i type="int" name="IESPILON">     4</i>
   <i type="int" name="ANTIRES">     0</i>
   <i name="OMEGAMAX">    -30.00000000</i>
   <i name="OMEGAMIN">    -30.00000000</i>
   <i name="OMEGATL">   -200.00000000</i>
   <i type="int" name="OMEGAGRID">     0</i>
   <i name="CSHIFT">     -0.10000000</i>
   <i type="logical" name="LSELFENERGY"> F  </i>
   <i type="logical" name="LSPECTRAL"> F  </i>
   <i type="logical" name="LSPECTRALGW"> F  </i>
   <i type="logical" name="LSINGLES"> F  </i>
   <i type="logical" name="LFERMIGW"> F  </i>
   <i type="logical" name="ODDONLYGW"> F  </i>
   <i type="logical" name="EVENONLYGW"> F  </i>
   <i type="int" name="NKREDLFX">     1</i>
   <i type="int" name="NKREDLFY">     1</i>
   <i type="int" name="NKREDLFZ">     1</i>
   <i type="int" name="MAXMEM">  2800</i>
   <i type="int" name="TELESCOPE">     0</i>
   <i type="int" name="NTAUPAR">    -1</i>
   <i type="int" name="NOMEGAPAR">    -1</i>
   <i name="DAMP_NEWTON">      0.80000001</i>
   <i name="LAMBDA">      1.00000000</i>
  </separator>
  <separator name="External order field" >
   <i name="OFIELD_KAPPA">      0.00000000</i>
   <v name="OFIELD_K">      0.00000000      0.00000000      0.00000000</v>
   <i name="OFIELD_Q6_NEAR">      0.00000000</i>
   <i name="OFIELD_Q6_FAR">      0.00000000</i>
   <i name="OFIELD_A">      0.00000000</i>
  </separator>
  <separator name="optional k-points parameters" >
   <i type="int" name="KPOINTS_OPT_MODE">     1</i>
   <i type="logical" name="LKPOINTS_OPT"> F  </i>
  </separator>
 </parameters>
 <atominfo>
  <atoms>     119 </atoms>
  <types>       2 </types>
  <array name="atoms" >
   <dimension dim="1">ion</dimension>
   <field type="string">element</field>
   <field type="int">atomtype</field>
   <set>
    <rc><c>Ga</c><c>   1</c></rc>
    <rc><c>Ga</c><c>   1</c></rc>
    <rc><c>Ga</c><c>   1</c></rc>
    <rc><c>Ga</c><c>   1</c></rc>
    <rc><c>Ga</c><c>   1</c></rc>
    <rc><c>Ga</c><c>   1</c></rc>
    <rc><c>Ga</c><c>   1</c></rc>
    <rc><c>Ga</c><c>   1</c></rc>
    <rc><c>Ga</c><c>   1</c></rc>
    <rc><c>Ga</c><c>   1</c></rc>
    <rc><c>Ga</c><c>   1</c></rc>
    <rc><c>Ga</c><c>   1</c></rc>
    <rc><c>Ga</c><c>   1</c></rc>
    <rc><c>Ga</c><c>   1</c></rc>
    <rc><c>Ga</c><c>   1</c></rc>
    <rc><c>Ga</c><c>   1</c></rc>
    <rc><c>Ga</c><c>   1</c></rc>
    <rc><c>Ga</c><c>   1</c></rc>
    <rc><c>Ga</c><c>   1</c></rc>
    <rc><c>Ga</c><c>   1</c></rc>
    <rc><c>Ga</c><c>   1</c></rc>
    <rc><c>Ga</c><c>   1</c></rc>
    <rc><c>Ga</c><c>   1</c></rc>
    <rc><c>Ga</c><c>   1</c></rc>
    <rc><c>Ga</c><c>   1</c></rc>
    <rc><c>Ga</c><c>   1</c></rc>
    <rc><c>Ga</c><c>   1</c></rc>
    <rc><c>Ga</c><c>   1</c></rc>
    <rc><c>Ga</c><c>   1</c></rc>
    <rc><c>Ga</c><c>   1</c></rc>
    <rc><c>Ga</c><c>   1</c></rc>
    <rc><c>Ga</c><c>   1</c></rc>
    <rc><c>Ga</c><c>   1</c></rc>
    <rc><c>Ga</c><c>   1</c></rc>
    <rc><c>Ga</c><c>   1</c></rc>
    <rc><c>Ga</c><c>   1</c></rc>
    <rc><c>Ga</c><c>   1</c></rc>
    <rc><c>Ga</c><c>   1</c></rc>
    <rc><c>Ga</c><c>   1</c></rc>
    <rc><c>Ga</c><c>   1</c></rc>
    <rc><c>Ga</c><c>   1</c></rc>
    <rc><c>Ga</c><c>   1</c></rc>
    <rc><c>Ga</c><c>   1</c></rc>
    <rc><c>Ga</c><c>   1</c></rc>
    <rc><c>Ga</c><c>   1</c></rc>
    <rc><c>Ga</c><c>   1</c></rc>
    <rc><c>Ga</c><c>   1</c></rc>
    <rc><c>O </c><c>   2</c></rc>
    <rc><c>O </c><c>   2</c></rc>
    <rc><c>O </c><c>   2</c></rc>
    <rc><c>O </c><c>   2</c></rc>
    <rc><c>O </c><c>   2</c></rc>
    <rc><c>O </c><c>   2</c></rc>
    <rc><c>O </c><c>   2</c></rc>
    <rc><c>O </c><c>   2</c></rc>
    <rc><c>O </c><c>   2</c></rc>
    <rc><c>O </c><c>   2</c></rc>
    <rc><c>O </c><c>   2</c></rc>
    <rc><c>O </c><c>   2</c></rc>
    <rc><c>O </c><c>   2</c></rc>
    <rc><c>O </c><c>   2</c></rc>
    <rc><c>O </c><c>   2</c></rc>
    <rc><c>O </c><c>   2</c></rc>
    <rc><c>O </c><c>   2</c></rc>
    <rc><c>O </c><c>   2</c></rc>
    <rc><c>O </c><c>   2</c></rc>
    <rc><c>O </c><c>   2</c></rc>
    <rc><c>O </c><c>   2</c></rc>
    <rc><c>O </c><c>   2</c></rc>
    <rc><c>O </c><c>   2</c></rc>
    <rc><c>O </c><c>   2</c></rc>
    <rc><c>O </c><c>   2</c></rc>
    <rc><c>O </c><c>   2</c></rc>
    <rc><c>O </c><c>   2</c></rc>
    <rc><c>O </c><c>   2</c></rc>
    <rc><c>O </c><c>   2</c></rc>
    <rc><c>O </c><c>   2</c></rc>
    <rc><c>O </c><c>   2</c></rc>
    <rc><c>O </c><c>   2</c></rc>
    <rc><c>O </c><c>   2</c></rc>
    <rc><c>O </c><c>   2</c></rc>
    <rc><c>O </c><c>   2</c></rc>
    <rc><c>O </c><c>   2</c></rc>
    <rc><c>O </c><c>   2</c></rc>
    <rc><c>O </c><c>   2</c></rc>
    <rc><c>O </c><c>   2</c></rc>
    <rc><c>O </c><c>   2</c></rc>
    <rc><c>O </c><c>   2</c></rc>
    <rc><c>O </c><c>   2</c></rc>
    <rc><c>O </c><c>   2</c></rc>
    <rc><c>O </c><c>   2</c></rc>
    <rc><c>O </c><c>   2</c></rc>
    <rc><c>O </c><c>   2</c></rc>
    <rc><c>O </c><c>   2</c></rc>
    <rc><c>O </c><c>   2</c></rc>
    <rc><c>O </c><c>   2</c></rc>
    <rc><c>O </c><c>   2</c></rc>
    <rc><c>O </c><c>   2</c></rc>
    <rc><c>O </c><c>   2</c></rc>
    <rc><c>O </c><c>   2</c></rc>
    <rc><c>O </c><c>   2</c></rc>
    <rc><c>O </c><c>   2</c></rc>
    <rc><c>O </c><c>   2</c></rc>
    <rc><c>O </c><c>   2</c></rc>
    <rc><c>O </c><c>   2</c></rc>
    <rc><c>O </c><c>   2</c></rc>
    <rc><c>O </c><c>   2</c></rc>
    <rc><c>O </c><c>   2</c></rc>
    <rc><c>O </c><c>   2</c></rc>
    <rc><c>O </c><c>   2</c></rc>
    <rc><c>O </c><c>   2</c></rc>
    <rc><c>O </c><c>   2</c></rc>
    <rc><c>O </c><c>   2</c></rc>
    <rc><c>O </c><c>   2</c></rc>
    <rc><c>O </c><c>   2</c></rc>
    <rc><c>O </c><c>   2</c></rc>
    <rc><c>O </c><c>   2</c></rc>
    <rc><c>O </c><c>   2</c></rc>
    <rc><c>O </c><c>   2</c></rc>
   </set>
  </array>
  <array name="atomtypes" >
   <dimension dim="1">type</dimension>
   <field type="int">atomspertype</field>
   <field type="string">element</field>
   <field>mass</field>
   <field>valence</field>
   <field type="string">pseudopotential</field>
   <set>
    <rc><c>  47</c><c>Ga</c><c>     69.72300000</c><c>     13.00000000</c><c>  PAW_PBE Ga_d 06Jul2010                </c></rc>
    <rc><c>  72</c><c>O </c><c>     16.00000000</c><c>      6.00000000</c><c>  PAW_PBE O 08Apr2002                   </c></rc>
   </set>
  </array>
 </atominfo>
 <structure name="initialpos" >
  <crystal>
   <varray name="basis" >
    <v>       0.00000000      12.28047342       0.00000000 </v>
    <v>       9.14270205       0.00000000       0.00000000 </v>
    <v>       0.00000000      -2.76826177     -11.30069772 </v>
   </varray>
   <i name="volume">   1268.80515525 </i>
   <varray name="rec_basis" >
    <v>       0.00000000       0.08143009      -0.01994742 </v>
    <v>       0.10937686      -0.00000000       0.00000000 </v>
    <v>       0.00000000       0.00000000      -0.08849011 </v>
   </varray>
  </crystal>
  <varray name="positions" >
   <v>       0.65883830       0.00000000       0.15736517 </v>
   <v>       0.65883830       0.00000000       0.65736517 </v>
   <v>       0.65883830       0.33333333       0.15736517 </v>
   <v>       0.65883830       0.33333333       0.65736517 </v>
   <v>       0.65883830       0.66666667       0.15736517 </v>
   <v>       0.65883830       0.66666667       0.65736517 </v>
   <v>       0.84116170       0.16666667       0.34263483 </v>
   <v>       0.84116170       0.16666667       0.84263483 </v>
   <v>       0.84116170       0.50000000       0.34263483 </v>
   <v>       0.84116170       0.50000000       0.84263483 </v>
   <v>       0.84116170       0.83333333       0.34263483 </v>
   <v>       0.84116170       0.83333333       0.84263483 </v>
   <v>       0.59047440       0.16666667       0.39739300 </v>
   <v>       0.59047440       0.16666667       0.89739300 </v>
   <v>       0.59047440       0.50000000       0.39739300 </v>
   <v>       0.59047440       0.50000000       0.89739300 </v>
   <v>       0.59047440       0.83333333       0.39739300 </v>
   <v>       0.59047440       0.83333333       0.89739300 </v>
   <v>       0.90952560       0.00000000       0.10260700 </v>
   <v>       0.90952560       0.00000000       0.60260700 </v>
   <v>       0.90952560       0.33333333       0.10260700 </v>
   <v>       0.90952560       0.33333333       0.60260700 </v>
   <v>       0.90952560       0.66666667       0.10260700 </v>
   <v>       0.90952560       0.66666667       0.60260700 </v>
   <v>       0.15883830       0.16666667       0.15736517 </v>
   <v>       0.15883830       0.16666667       0.65736517 </v>
   <v>       0.15883830       0.50000000       0.15736517 </v>
   <v>       0.15883830       0.50000000       0.65736517 </v>
   <v>       0.15883830       0.83333333       0.15736517 </v>
   <v>       0.15883830       0.83333333       0.65736517 </v>
   <v>       0.34116170       0.00000000       0.34263483 </v>
   <v>       0.34116170       0.00000000       0.84263483 </v>
   <v>       0.34116170       0.33333333       0.84263483 </v>
   <v>       0.34116170       0.66666667       0.34263483 </v>
   <v>       0.34116170       0.66666667       0.84263483 </v>
   <v>       0.09047440       0.00000000       0.39739300 </v>
   <v>       0.09047440       0.00000000       0.89739300 </v>
   <v>       0.09047440       0.33333333       0.39739300 </v>
   <v>       0.09047440       0.33333333       0.89739300 </v>
   <v>       0.09047440       0.66666667       0.39739300 </v>
   <v>       0.09047440       0.66666667       0.89739300 </v>
   <v>       0.40952560       0.16666667       0.10260700 </v>
   <v>       0.40952560       0.16666667       0.60260700 </v>
   <v>       0.40952560       0.50000000       0.10260700 </v>
   <v>       0.40952560       0.50000000       0.60260700 </v>
   <v>       0.40952560       0.83333333       0.10260700 </v>
   <v>       0.40952560       0.83333333       0.60260700 </v>
   <v>       0.99646913       0.16666667       0.12833205 </v>
   <v>       0.99646913       0.16666667       0.62833205 </v>
   <v>       0.99646913       0.50000000       0.12833205 </v>
   <v>       0.99646913       0.50000000       0.62833205 </v>
   <v>       0.99646913       0.83333333       0.12833205 </v>
   <v>       0.99646913       0.83333333       0.62833205 </v>
   <v>       0.50353087       0.00000000       0.37166795 </v>
   <v>       0.50353087       0.00000000       0.87166795 </v>
   <v>       0.50353087       0.33333333       0.37166795 </v>
   <v>       0.50353087       0.33333333       0.87166795 </v>
   <v>       0.50353087       0.66666667       0.37166795 </v>
   <v>       0.50353087       0.66666667       0.87166795 </v>
   <v>       0.67337106       0.16666667       0.28161508 </v>
   <v>       0.67337106       0.16666667       0.78161508 </v>
   <v>       0.67337106       0.50000000       0.28161508 </v>
   <v>       0.67337106       0.50000000       0.78161508 </v>
   <v>       0.67337106       0.83333333       0.28161508 </v>
   <v>       0.67337106       0.83333333       0.78161508 </v>
   <v>       0.82662894       0.00000000       0.21838492 </v>
   <v>       0.82662894       0.00000000       0.71838492 </v>
   <v>       0.82662894       0.33333333       0.21838492 </v>
   <v>       0.82662894       0.33333333       0.71838492 </v>
   <v>       0.82662894       0.66666667       0.21838492 </v>
   <v>       0.82662894       0.66666667       0.71838492 </v>
   <v>       0.83549502       0.00000000       0.44542296 </v>
   <v>       0.83549502       0.00000000       0.94542296 </v>
   <v>       0.83549502       0.33333333       0.44542296 </v>
   <v>       0.83549502       0.33333333       0.94542296 </v>
   <v>       0.83549502       0.66666667       0.44542296 </v>
   <v>       0.83549502       0.66666667       0.94542296 </v>
   <v>       0.66450498       0.16666667       0.05457704 </v>
   <v>       0.66450498       0.16666667       0.55457704 </v>
   <v>       0.66450498       0.50000000       0.05457704 </v>
   <v>       0.66450498       0.50000000       0.55457704 </v>
   <v>       0.66450498       0.83333333       0.05457704 </v>
   <v>       0.66450498       0.83333333       0.55457704 </v>
   <v>       0.49646913       0.00000000       0.12833205 </v>
   <v>       0.49646913       0.00000000       0.62833205 </v>
   <v>       0.49646913       0.33333333       0.12833205 </v>
   <v>       0.49646913       0.33333333       0.62833205 </v>
   <v>       0.49646913       0.66666667       0.12833205 </v>
   <v>       0.49646913       0.66666667       0.62833205 </v>
   <v>       0.00353087       0.16666667       0.37166795 </v>
   <v>       0.00353087       0.16666667       0.87166795 </v>
   <v>       0.00353087       0.50000000       0.37166795 </v>
   <v>       0.00353087       0.50000000       0.87166795 </v>
   <v>       0.00353087       0.83333333       0.37166795 </v>
   <v>       0.00353087       0.83333333       0.87166795 </v>
   <v>       0.17337106       0.00000000       0.28161508 </v>
   <v>       0.17337106       0.00000000       0.78161508 </v>
   <v>       0.17337106       0.33333333       0.28161508 </v>
   <v>       0.17337106       0.33333333       0.78161508 </v>
   <v>       0.17337106       0.66666667       0.28161508 </v>
   <v>       0.17337106       0.66666667       0.78161508 </v>
   <v>       0.32662894       0.16666667       0.21838492 </v>
   <v>       0.32662894       0.16666667       0.71838492 </v>
   <v>       0.32662894       0.50000000       0.21838492 </v>
   <v>       0.32662894       0.50000000       0.71838492 </v>
   <v>       0.32662894       0.83333333       0.21838492 </v>
   <v>       0.32662894       0.83333333       0.71838492 </v>
   <v>       0.33549502       0.16666667       0.44542296 </v>
   <v>       0.33549502       0.16666667       0.94542296 </v>
   <v>       0.33549502       0.50000000       0.44542296 </v>
   <v>       0.33549502       0.50000000       0.94542296 </v>
   <v>       0.33549502       0.83333333       0.44542296 </v>
   <v>       0.33549502       0.83333333       0.94542296 </v>
   <v>       0.16450498       0.00000000       0.05457704 </v>
   <v>       0.16450498       0.00000000       0.55457704 </v>
   <v>       0.16450498       0.33333333       0.05457704 </v>
   <v>       0.16450498       0.33333333       0.55457704 </v>
   <v>       0.16450498       0.66666667       0.05457704 </v>
   <v>       0.16450498       0.66666667       0.55457704 </v>
  </varray>
 </structure>
 <calculation>
  <scstep>
   <time name="dav">    6.26    6.26</time>
   <time name="total">    6.37    6.33</time>
   <energy>
    <i name="alphaZ">   5383.97153279 </i>
    <i name="ewald"> -86533.86774599 </i>
    <i name="hartreedc"> -33521.19275718 </i>
    <i name="XCdc">   4100.33921513 </i>
    <i name="pawpsdc"> 100299.88141059 </i>
    <i name="pawaedc">-116106.37837638 </i>
    <i name="eentropy">     -0.01325558 </i>
    <i name="bandstr">  16023.74352867 </i>
    <i name="atom"> 132123.29149048 </i>
    <i name="e_fr_energy">  21769.77504252 </i>
    <i name="e_wo_entrp">  21769.78829811 </i>
    <i name="e_0_energy">  21769.78167032 </i>
   </energy>
  </scstep>
  <scstep>
   <time name="dav">    6.05    6.04</time>
   <time name="total">    6.05    6.05</time>
   <energy>
    <i name="e_fr_energy">   4831.10488765 </i>
    <i name="e_wo_entrp">   4831.12702151 </i>
    <i name="e_0_energy">   4831.11595458 </i>
   </energy>
  </scstep>
  <scstep>
   <time name="dav">    7.51    7.50</time>
   <time name="total">    7.51    7.51</time>
   <energy>
    <i name="e_fr_energy">   -146.84813336 </i>
    <i name="e_wo_entrp">   -146.83431365 </i>
    <i name="e_0_energy">   -146.84122350 </i>
   </energy>
  </scstep>
  <scstep>
   <time name="dav">    7.27    7.26</time>
   <time name="total">    7.27    7.26</time>
   <energy>
    <i name="e_fr_energy">   -765.77782050 </i>
    <i name="e_wo_entrp">   -765.75745163 </i>
    <i name="e_0_energy">   -765.76763607 </i>
   </energy>
  </scstep>
  <scstep>
   <time name="dav">    8.17    8.17</time>
   <time name="total">    8.47    8.45</time>
   <energy>
    <i name="e_fr_energy">   -807.28055440 </i>
    <i name="e_wo_entrp">   -807.26044522 </i>
    <i name="e_0_energy">   -807.27049981 </i>
   </energy>
  </scstep>
  <scstep>
   <time name="diag">    0.88    0.88</time>
   <time name="diis">    2.77    2.76</time>
   <time name="orth">    0.40    0.40</time>
   <time name="total">    4.44    4.38</time>
   <energy>
    <i name="e_fr_energy">   -702.10220122 </i>
    <i name="e_wo_entrp">   -702.09748740 </i>
    <i name="e_0_energy">   -702.09984431 </i>
   </energy>
  </scstep>
  <scstep>
   <time name="diag">    0.87    0.87</time>
   <time name="diis">    2.93    2.92</time>
   <time name="orth">    0.40    0.40</time>
   <time name="total">    4.60    4.54</time>
   <energy>
    <i name="e_fr_energy">   -708.22029846 </i>
    <i name="e_wo_entrp">   -708.21780066 </i>
    <i name="e_0_energy">   -708.21904956 </i>
   </energy>
  </scstep>
  <scstep>
   <time name="diag">    0.88    0.88</time>
   <time name="diis">    3.19    3.18</time>
   <time name="orth">    0.40    0.40</time>
   <time name="total">    4.87    4.82</time>
   <energy>
    <i name="e_fr_energy">   -703.50305175 </i>
    <i name="e_wo_entrp">   -703.45590191 </i>
    <i name="e_0_energy">   -703.47947683 </i>
   </energy>
  </scstep>
  <scstep>
   <time name="diag">    0.87    0.87</time>
   <time name="diis">    3.03    3.02</time>
   <time name="orth">    0.40    0.40</time>
   <time name="total">    4.70    4.64</time>
   <energy>
    <i name="e_fr_energy">   -702.40664962 </i>
    <i name="e_wo_entrp">   -702.39328568 </i>
    <i name="e_0_energy">   -702.39996765 </i>
   </energy>
  </scstep>
  <scstep>
   <time name="diag">    0.87    0.87</time>
   <time name="diis">    2.55    2.54</time>
   <time name="orth">    0.41    0.41</time>
   <time name="total">    4.20    4.15</time>
   <energy>
    <i name="e_fr_energy">   -707.34075144 </i>
    <i name="e_wo_entrp">   -707.33358318 </i>
    <i name="e_0_energy">   -707.33716731 </i>
   </energy>
  </scstep>
  <scstep>
   <time name="diag">    0.88    0.88</time>
   <time name="diis">    2.98    2.97</time>
   <time name="orth">    0.41    0.41</time>
   <time name="total">    4.66    4.60</time>
   <energy>
    <i name="e_fr_energy">   -702.57841691 </i>
    <i name="e_wo_entrp">   -702.57103888 </i>
    <i name="e_0_energy">   -702.57472790 </i>
   </energy>
  </scstep>
  <scstep>
   <time name="diag">    0.87    0.87</time>
   <time name="diis">    3.09    3.08</time>
   <time name="orth">    0.41    0.41</time>
   <time name="total">    4.75    4.70</time>
   <energy>
    <i name="e_fr_energy">   -702.35749447 </i>
    <i name="e_wo_entrp">   -702.33230844 </i>
    <i name="e_0_energy">   -702.34490146 </i>
   </energy>
  </scstep>
  <scstep>
   <time name="diag">    0.87    0.87</time>
   <time name="diis">    2.78    2.77</time>
   <time name="orth">    0.41    0.41</time>
   <time name="total">    4.47    4.41</time>
   <energy>
    <i name="e_fr_energy">   -702.24018798 </i>
    <i name="e_wo_entrp">   -702.23203368 </i>
    <i name="e_0_energy">   -702.23611083 </i>
   </energy>
  </scstep>
  <scstep>
   <time name="diag">    0.88    0.87</time>
   <time name="diis">    2.86    2.85</time>
   <time name="orth">    0.41    0.41</time>
   <time name="total">    4.53    4.48</time>
   <energy>
    <i name="e_fr_energy">   -701.95737068 </i>
    <i name="e_wo_entrp">   -701.93859673 </i>
    <i name="e_0_energy">   -701.94798371 </i>
   </energy>
  </scstep>
  <scstep>
   <time name="diag">    0.87    0.87</time>
   <time name="diis">    3.34    3.33</time>
   <time name="orth">    0.41    0.41</time>
   <time name="total">    5.02    4.96</time>
   <energy>
    <i name="e_fr_energy">   -701.90089032 </i>
    <i name="e_wo_entrp">   -701.88290093 </i>
    <i name="e_0_energy">   -701.89189563 </i>
   </energy>
  </scstep>
  <scstep>
   <time name="diag">    0.87    0.87</time>
   <time name="diis">    2.88    2.87</time>
   <time name="orth">    0.41    0.41</time>
   <time name="total">    4.54    4.49</time>
   <energy>
    <i name="e_fr_energy">   -701.85040427 </i>
    <i name="e_wo_entrp">   -701.82955414 </i>
    <i name="e_0_energy">   -701.83997921 </i>
   </energy>
  </scstep>
  <scstep>
   <time name="diag">    0.89    0.89</time>
   <time name="diis">    2.75    2.74</time>
   <time name="orth">    0.41    0.41</time>
   <time name="total">    4.43    4.38</time>
   <energy>
    <i name="e_fr_energy">   -701.78866476 </i>
    <i name="e_wo_entrp">   -701.76474650 </i>
    <i name="e_0_energy">   -701.77670563 </i>
   </energy>
  </scstep>
  <scstep>
   <time name="diag">    0.87    0.87</time>
   <time name="diis">    3.16    3.15</time>
   <time name="orth">    0.41    0.41</time>
   <time name="total">    4.83    4.78</time>
   <energy>
    <i name="e_fr_energy">   -701.78775563 </i>
    <i name="e_wo_entrp">   -701.76466061 </i>
    <i name="e_0_energy">   -701.77620812 </i>
   </energy>
  </scstep>
  <scstep>
   <time name="diag">    0.87    0.87</time>
   <time name="diis">    2.85    2.84</time>
   <time name="orth">    0.41    0.41</time>
   <time name="total">    4.52    4.46</time>
   <energy>
    <i name="e_fr_energy">   -701.76876639 </i>
    <i name="e_wo_entrp">   -701.73677625 </i>
    <i name="e_0_energy">   -701.75277132 </i>
   </energy>
  </scstep>
  <scstep>
   <time name="diag">    0.87    0.87</time>
   <time name="diis">    2.93    2.92</time>
   <time name="orth">    0.41    0.41</time>
   <time name="total">    4.60    4.54</time>
   <energy>
    <i name="e_fr_energy">   -701.77918520 </i>
    <i name="e_wo_entrp">   -701.74582347 </i>
    <i name="e_0_energy">   -701.76250433 </i>
   </energy>
  </scstep>
  <scstep>
   <time name="diag">    0.87    0.87</time>
   <time name="diis">    3.41    3.42</time>
   <time name="orth">    0.41    0.41</time>
   <time name="total">    5.20    5.17</time>
   <energy>
    <i name="e_fr_energy">   -701.76521525 </i>
    <i name="e_wo_entrp">   -701.72886426 </i>
    <i name="e_0_energy">   -701.74703976 </i>
   </energy>
  </scstep>
  <scstep>
   <time name="diag">    0.86    0.95</time>
   <time name="diis">    3.46    3.49</time>
   <time name="orth">    0.41    0.41</time>
   <time name="total">    5.26    5.34</time>
   <energy>
    <i name="e_fr_energy">   -701.76267562 </i>
    <i name="e_wo_entrp">   -701.72647475 </i>
    <i name="e_0_energy">   -701.74457518 </i>
   </energy>
  </scstep>
  <scstep>
   <time name="diag">    0.89    0.89</time>
   <time name="diis">    3.52    3.53</time>
   <time name="orth">    0.61    0.61</time>
   <time name="total">    5.82    5.81</time>
   <energy>
    <i name="e_fr_energy">   -701.76103644 </i>
    <i name="e_wo_entrp">   -701.72651505 </i>
    <i name="e_0_energy">   -701.74377574 </i>
   </energy>
  </scstep>
  <scstep>
   <time name="diag">    0.89    0.89</time>
   <time name="diis">    7.14    7.19</time>
   <time name="orth">    0.51    0.51</time>
   <time name="total">   12.63   12.67</time>
   <energy>
    <i name="e_fr_energy">   -701.76190388 </i>
    <i name="e_wo_entrp">   -701.72802639 </i>
    <i name="e_0_energy">   -701.74496513 </i>
   </energy>
  </scstep>
  <scstep>
   <time name="diag">    1.44    1.76</time>
   <time name="diis">    2.47    2.46</time>
   <time name="orth">    0.41    0.41</time>
   <time name="total">    4.84    5.11</time>
   <energy>
    <i name="e_fr_energy">   -701.76168844 </i>
    <i name="e_wo_entrp">   -701.72887922 </i>
    <i name="e_0_energy">   -701.74528383 </i>
   </energy>
  </scstep>
  <scstep>
   <time name="diag">    0.89    0.88</time>
   <time name="diis">    2.03    2.02</time>
   <time name="orth">    0.41    0.41</time>
   <time name="total">    3.74    3.68</time>
   <energy>
    <i name="e_fr_energy">   -701.76184430 </i>
    <i name="e_wo_entrp">   -701.72916417 </i>
    <i name="e_0_energy">   -701.74550424 </i>
   </energy>
  </scstep>
  <scstep>
   <time name="diag">    0.88    0.88</time>
   <time name="diis">    1.79    1.78</time>
   <time name="orth">    0.41    0.41</time>
   <time name="total">    3.17    3.13</time>
   <energy>
    <i name="alphaZ">   5383.97153279 </i>
    <i name="ewald"> -86533.86774599 </i>
    <i name="hartreedc"> -33974.83776531 </i>
    <i name="XCdc">   4159.68281824 </i>
    <i name="pawpsdc"> 117799.01490135 </i>
    <i name="pawaedc">-133856.40788387 </i>
    <i name="eentropy">     -0.03218810 </i>
    <i name="bandstr">  -5802.57700124 </i>
    <i name="atom"> 132123.29149048 </i>
    <i name="e_fr_energy">   -701.76184166 </i>
    <i name="e_wo_entrp">   -701.72965356 </i>
    <i name="e_0_energy">   -701.74574761 </i>
   </energy>
  </scstep>
  <structure>
   <crystal>
    <varray name="basis" >
     <v>       0.00000000      12.28047342       0.00000000 </v>
     <v>       9.14270205       0.00000000       0.00000000 </v>
     <v>       0.00000000      -2.76826177     -11.30069772 </v>
    </varray>
    <i name="volume">   1268.80515525 </i>
    <varray name="rec_basis" >
     <v>       0.00000000       0.08143009      -0.01994742 </v>
     <v>       0.10937686      -0.00000000       0.00000000 </v>
     <v>       0.00000000       0.00000000      -0.08849011 </v>
    </varray>
   </crystal>
   <varray name="positions" >
    <v>       0.65883830       0.00000000       0.15736517 </v>
    <v>       0.65883830       0.00000000       0.65736517 </v>
    <v>       0.65883830       0.33333333       0.15736517 </v>
    <v>       0.65883830       0.33333333       0.65736517 </v>
    <v>       0.65883830       0.66666667       0.15736517 </v>
    <v>       0.65883830       0.66666667       0.65736517 </v>
    <v>       0.84116170       0.16666667       0.34263483 </v>
    <v>       0.84116170       0.16666667       0.84263483 </v>
    <v>       0.84116170       0.50000000       0.34263483 </v>
    <v>       0.84116170       0.50000000       0.84263483 </v>
    <v>       0.84116170       0.83333333       0.34263483 </v>
    <v>       0.84116170       0.83333333       0.84263483 </v>
    <v>       0.59047440       0.16666667       0.39739300 </v>
    <v>       0.59047440       0.16666667       0.89739300 </v>
    <v>       0.59047440       0.50000000       0.39739300 </v>
    <v>       0.59047440       0.50000000       0.89739300 </v>
    <v>       0.59047440       0.83333333       0.39739300 </v>
    <v>       0.59047440       0.83333333       0.89739300 </v>
    <v>       0.90952560       0.00000000       0.10260700 </v>
    <v>       0.90952560       0.00000000       0.60260700 </v>
    <v>       0.90952560       0.33333333       0.10260700 </v>
    <v>       0.90952560       0.33333333       0.60260700 </v>
    <v>       0.90952560       0.66666667       0.10260700 </v>
    <v>       0.90952560       0.66666667       0.60260700 </v>
    <v>       0.15883830       0.16666667       0.15736517 </v>
    <v>       0.15883830       0.16666667       0.65736517 </v>
    <v>       0.15883830       0.50000000       0.15736517 </v>
    <v>       0.15883830       0.50000000       0.65736517 </v>
    <v>       0.15883830       0.83333333       0.15736517 </v>
    <v>       0.15883830       0.83333333       0.65736517 </v>
    <v>       0.34116170       0.00000000       0.34263483 </v>
    <v>       0.34116170       0.00000000       0.84263483 </v>
    <v>       0.34116170       0.33333333       0.84263483 </v>
    <v>       0.34116170       0.66666667       0.34263483 </v>
    <v>       0.34116170       0.66666667       0.84263483 </v>
    <v>       0.09047440       0.00000000       0.39739300 </v>
    <v>       0.09047440       0.00000000       0.89739300 </v>
    <v>       0.09047440       0.33333333       0.39739300 </v>
    <v>       0.09047440       0.33333333       0.89739300 </v>
    <v>       0.09047440       0.66666667       0.39739300 </v>
    <v>       0.09047440       0.66666667       0.89739300 </v>
    <v>       0.40952560       0.16666667       0.10260700 </v>
    <v>       0.40952560       0.16666667       0.60260700 </v>
    <v>       0.40952560       0.50000000       0.10260700 </v>
    <v>       0.40952560       0.50000000       0.60260700 </v>
    <v>       0.40952560       0.83333333       0.10260700 </v>
    <v>       0.40952560       0.83333333       0.60260700 </v>
    <v>       0.99646913       0.16666667       0.12833205 </v>
    <v>       0.99646913       0.16666667       0.62833205 </v>
    <v>       0.99646913       0.50000000       0.12833205 </v>
    <v>       0.99646913       0.50000000       0.62833205 </v>
    <v>       0.99646913       0.83333333       0.12833205 </v>
    <v>       0.99646913       0.83333333       0.62833205 </v>
    <v>       0.50353087       0.00000000       0.37166795 </v>
    <v>       0.50353087       0.00000000       0.87166795 </v>
    <v>       0.50353087       0.33333333       0.37166795 </v>
    <v>       0.50353087       0.33333333       0.87166795 </v>
    <v>       0.50353087       0.66666667       0.37166795 </v>
    <v>       0.50353087       0.66666667       0.87166795 </v>
    <v>       0.67337106       0.16666667       0.28161508 </v>
    <v>       0.67337106       0.16666667       0.78161508 </v>
    <v>       0.67337106       0.50000000       0.28161508 </v>
    <v>       0.67337106       0.50000000       0.78161508 </v>
    <v>       0.67337106       0.83333333       0.28161508 </v>
    <v>       0.67337106       0.83333333       0.78161508 </v>
    <v>       0.82662894       0.00000000       0.21838492 </v>
    <v>       0.82662894       0.00000000       0.71838492 </v>
    <v>       0.82662894       0.33333333       0.21838492 </v>
    <v>       0.82662894       0.33333333       0.71838492 </v>
    <v>       0.82662894       0.66666667       0.21838492 </v>
    <v>       0.82662894       0.66666667       0.71838492 </v>
    <v>       0.83549502       0.00000000       0.44542296 </v>
    <v>       0.83549502       0.00000000       0.94542296 </v>
    <v>       0.83549502       0.33333333       0.44542296 </v>
    <v>       0.83549502       0.33333333       0.94542296 </v>
    <v>       0.83549502       0.66666667       0.44542296 </v>
    <v>       0.83549502       0.66666667       0.94542296 </v>
    <v>       0.66450498       0.16666667       0.05457704 </v>
    <v>       0.66450498       0.16666667       0.55457704 </v>
    <v>       0.66450498       0.50000000       0.05457704 </v>
    <v>       0.66450498       0.50000000       0.55457704 </v>
    <v>       0.66450498       0.83333333       0.05457704 </v>
    <v>       0.66450498       0.83333333       0.55457704 </v>
    <v>       0.49646913       0.00000000       0.12833205 </v>
    <v>       0.49646913       0.00000000       0.62833205 </v>
    <v>       0.49646913       0.33333333       0.12833205 </v>
    <v>       0.49646913       0.33333333       0.62833205 </v>
    <v>       0.49646913       0.66666667       0.12833205 </v>
    <v>       0.49646913       0.66666667       0.62833205 </v>
    <v>       0.00353087       0.16666667       0.37166795 </v>
    <v>       0.00353087       0.16666667       0.87166795 </v>
    <v>       0.00353087       0.50000000       0.37166795 </v>
    <v>       0.00353087       0.50000000       0.87166795 </v>
    <v>       0.00353087       0.83333333       0.37166795 </v>
    <v>       0.00353087       0.83333333       0.87166795 </v>
    <v>       0.17337106       0.00000000       0.28161508 </v>
    <v>       0.17337106       0.00000000       0.78161508 </v>
    <v>       0.17337106       0.33333333       0.28161508 </v>
    <v>       0.17337106       0.33333333       0.78161508 </v>
    <v>       0.17337106       0.66666667       0.28161508 </v>
    <v>       0.17337106       0.66666667       0.78161508 </v>
    <v>       0.32662894       0.16666667       0.21838492 </v>
    <v>       0.32662894       0.16666667       0.71838492 </v>
    <v>       0.32662894       0.50000000       0.21838492 </v>
    <v>       0.32662894       0.50000000       0.71838492 </v>
    <v>       0.32662894       0.83333333       0.21838492 </v>
    <v>       0.32662894       0.83333333       0.71838492 </v>
    <v>       0.33549502       0.16666667       0.44542296 </v>
    <v>       0.33549502       0.16666667       0.94542296 </v>
    <v>       0.33549502       0.50000000       0.44542296 </v>
    <v>       0.33549502       0.50000000       0.94542296 </v>
    <v>       0.33549502       0.83333333       0.44542296 </v>
    <v>       0.33549502       0.83333333       0.94542296 </v>
    <v>       0.16450498       0.00000000       0.05457704 </v>
    <v>       0.16450498       0.00000000       0.55457704 </v>
    <v>       0.16450498       0.33333333       0.05457704 </v>
    <v>       0.16450498       0.33333333       0.55457704 </v>
    <v>       0.16450498       0.66666667       0.05457704 </v>
    <v>       0.16450498       0.66666667       0.55457704 </v>
   </varray>
  </structure>
  <varray name="forces" >
   <v>       0.01187316      -0.06201970      -0.05671947 </v>
   <v>       0.02238062      -0.06052596       0.14515479 </v>
   <v>      -0.00000000       0.01438630      -0.12028163 </v>
   <v>      -0.00000000      -0.10476639       0.18940582 </v>
   <v>      -0.01187316      -0.06201970      -0.05671947 </v>
   <v>      -0.02238062      -0.06052596       0.14515479 </v>
   <v>       0.02217051       0.05729994      -0.06288456 </v>
   <v>       0.00280508       0.03970534      -0.01599658 </v>
   <v>      -0.02217051       0.05729994      -0.06288456 </v>
   <v>      -0.00280508       0.03970534      -0.01599658 </v>
   <v>      -0.00000000       0.04990393      -0.05550049 </v>
   <v>      -0.00000000       0.02349682      -0.01442612 </v>
   <v>       0.49248217      -0.42169652       0.05857765 </v>
   <v>      -0.04378774       0.03614835      -0.00176466 </v>
   <v>      -0.49248217      -0.42169652       0.05857765 </v>
   <v>       0.04378774       0.03614835      -0.00176466 </v>
   <v>      -0.00000000      -0.10381503      -0.04018507 </v>
   <v>      -0.00000000       0.00128687      -0.01921704 </v>
   <v>      -0.01619767       0.00527310      -0.03515047 </v>
   <v>       0.00533681      -0.02472398       0.07593694 </v>
   <v>      -0.00000000       0.04116365      -0.05682707 </v>
   <v>      -0.00000000      -0.03074375       0.09450821 </v>
   <v>       0.01619767       0.00527310      -0.03515047 </v>
   <v>      -0.00533681      -0.02472398       0.07593694 </v>
   <v>       0.65628574       0.76473980      -0.97530363 </v>
   <v>       0.02326750       0.00120486       0.03386399 </v>
   <v>      -0.65628574       0.76473980      -0.97530363 </v>
   <v>      -0.02326750       0.00120486       0.03386399 </v>
   <v>      -0.00000000      -0.03256799      -0.22148219 </v>
   <v>      -0.00000000      -0.01494396       0.00617501 </v>
   <v>       1.16660430       0.03412762       0.21480193 </v>
   <v>       0.01043347       0.03887887      -0.03108357 </v>
   <v>      -0.00000000      -0.02261780      -0.01049406 </v>
   <v>      -1.16660430       0.03412762       0.21480193 </v>
   <v>      -0.01043347       0.03887887      -0.03108357 </v>
   <v>       0.08806629       0.08593302       0.17224404 </v>
   <v>       0.02580893       0.00374026      -0.00622829 </v>
   <v>      -0.00000000       0.86613880       0.46206326 </v>
   <v>      -0.00000000       0.02764619      -0.11974363 </v>
   <v>      -0.08806629       0.08593302       0.17224404 </v>
   <v>      -0.02580893       0.00374026      -0.00622829 </v>
   <v>       0.10086302      -0.61347544      -0.63856716 </v>
   <v>       0.21824975      -0.04260787       0.55422876 </v>
   <v>      -0.10086302      -0.61347544      -0.63856716 </v>
   <v>      -0.21824975      -0.04260787       0.55422876 </v>
   <v>      -0.00000000      -0.04104518      -0.05438329 </v>
   <v>      -0.00000000       0.03717094       0.10059778 </v>
   <v>      -0.02230295      -0.08366362       0.05523661 </v>
   <v>      -0.00044606       0.02191956      -0.05643961 </v>
   <v>       0.02230295      -0.08366362       0.05523661 </v>
   <v>       0.00044606       0.02191956      -0.05643961 </v>
   <v>      -0.00000000      -0.03514896       0.01440593 </v>
   <v>      -0.00000000       0.02850457      -0.05318570 </v>
   <v>      -0.16850430       0.14238555       0.00782025 </v>
   <v>       0.00378708       0.01162875       0.02919160 </v>
   <v>      -0.00000000       0.11292167       0.13189751 </v>
   <v>      -0.00000000       0.00251799       0.00580713 </v>
   <v>       0.16850430       0.14238555       0.00782025 </v>
   <v>      -0.00378708       0.01162875       0.02919160 </v>
   <v>      -0.09569067       0.13832968       0.19355910 </v>
   <v>      -0.00060745      -0.02411330      -0.04928890 </v>
   <v>       0.09569067       0.13832968       0.19355910 </v>
   <v>       0.00060745      -0.02411330      -0.04928890 </v>
   <v>      -0.00000000       0.02461045       0.04719546 </v>
   <v>      -0.00000000      -0.00890300      -0.02708972 </v>
   <v>      -0.01715693       0.02867317       0.01881273 </v>
   <v>      -0.00669186       0.04748658      -0.04891043 </v>
   <v>      -0.00000000       0.02752496       0.03185885 </v>
   <v>      -0.00000000       0.03897326      -0.04654435 </v>
   <v>       0.01715693       0.02867317       0.01881273 </v>
   <v>       0.00669186       0.04748658      -0.04891043 </v>
   <v>      -0.01743507      -0.16930686      -0.05585645 </v>
   <v>       0.00122817      -0.17175326      -0.02249874 </v>
   <v>      -0.00000000      -0.14495941      -0.06338023 </v>
   <v>      -0.00000000      -0.17475372      -0.02369307 </v>
   <v>       0.01743507      -0.16930686      -0.05585645 </v>
   <v>      -0.00122817      -0.17175326      -0.02249874 </v>
   <v>       0.01053726       0.16136883       0.07328419 </v>
   <v>      -0.12297061       0.23801450      -0.19683788 </v>
   <v>      -0.01053726       0.16136883       0.07328419 </v>
   <v>       0.12297061       0.23801450      -0.19683788 </v>
   <v>      -0.00000000       0.17814582       0.06002750 </v>
   <v>      -0.00000000       0.20405387      -0.04094937 </v>
   <v>      -0.08231140       0.16074406       0.00900731 </v>
   <v>      -0.09824641       0.12161649      -0.16895435 </v>
   <v>      -0.00000000       0.30736952      -0.11807698 </v>
   <v>      -0.00000000       0.15975701      -0.25192413 </v>
   <v>       0.08231140       0.16074406       0.00900731 </v>
   <v>       0.09824641       0.12161649      -0.16895435 </v>
   <v>      -0.11438175      -0.16121005      -0.01967700 </v>
   <v>      -0.02905858      -0.02278244       0.05644420 </v>
   <v>       0.11438175      -0.16121005      -0.01967700 </v>
   <v>       0.02905858      -0.02278244       0.05644420 </v>
   <v>      -0.00000000      -0.04917306       0.00695824 </v>
   <v>      -0.00000000       0.00629005       0.03206652 </v>
   <v>      -0.20390740      -0.19142993       0.02119089 </v>
   <v>      -0.00761282      -0.03654364       0.01892758 </v>
   <v>      -0.00000000      -1.03401621       0.49930336 </v>
   <v>      -0.00000000      -0.03751035       0.02202878 </v>
   <v>       0.20390740      -0.19142993       0.02119089 </v>
   <v>       0.00761282      -0.03654364       0.01892758 </v>
   <v>      -1.05763757      -0.01148719       0.65074995 </v>
   <v>       0.01425276      -0.02285921      -0.13611788 </v>
   <v>       1.05763757      -0.01148719       0.65074995 </v>
   <v>      -0.01425276      -0.02285921      -0.13611788 </v>
   <v>      -0.00000000       0.06093500       0.02473500 </v>
   <v>      -0.00000000      -0.00483934      -0.03685659 </v>
   <v>      -0.54400421      -0.28761182      -0.25723414 </v>
   <v>       0.02038530      -0.12284066       0.09585238 </v>
   <v>       0.54400421      -0.28761182      -0.25723414 </v>
   <v>      -0.02038530      -0.12284066       0.09585238 </v>
   <v>      -0.00000000      -0.19130273      -0.09380871 </v>
   <v>      -0.00000000      -0.16997877      -0.00743818 </v>
   <v>      -0.08620383       0.13159504       0.12851591 </v>
   <v>       0.01316078       0.17609522      -0.02001672 </v>
   <v>      -0.00000000       0.05882256       0.35029571 </v>
   <v>      -0.00000000       0.09695119      -0.11958310 </v>
   <v>       0.08620383       0.13159504       0.12851591 </v>
   <v>      -0.01316078       0.17609522      -0.02001672 </v>
  </varray>
  <varray name="stress" >
   <v>      62.27656092       0.00000000       0.00000000 </v>
   <v>       0.00000000      57.33407076      -2.67655962 </v>
   <v>       0.00000000      -2.67656024      53.72311337 </v>
  </varray>
  <energy>
   <i name="e_fr_energy">   -701.76184166 </i>
   <i name="e_wo_entrp">   -701.72965356 </i>
   <i name="e_0_energy">   -701.74574761 </i>
  </energy>
  <time name="totalsc">  157.50  155.82</time>
 </calculation>
 <calculation>
  <scstep>
   <time name="dav">    6.76    6.76</time>
   <time name="total">    7.14    7.09</time>
   <energy>
    <i name="alphaZ">   5383.97153279 </i>
    <i name="ewald"> -86582.00662795 </i>
    <i name="hartreedc"> -33926.72035207 </i>
    <i name="XCdc">   4159.72587349 </i>
    <i name="pawpsdc"> 117798.98808576 </i>
    <i name="pawaedc">-133856.37679343 </i>
    <i name="eentropy">     -0.06947231 </i>
    <i name="bandstr">  -5802.00959992 </i>
    <i name="atom"> 132123.29149048 </i>
    <i name="e_fr_energy">   -701.20586316 </i>
    <i name="e_wo_entrp">   -701.13639085 </i>
    <i name="e_0_energy">   -701.17112700 </i>
   </energy>
  </scstep>
  <scstep>
   <time name="diag">    0.87    0.87</time>
   <time name="diis">    2.96    2.95</time>
   <time name="orth">    0.41    0.41</time>
   <time name="total">    4.62    4.56</time>
   <energy>
    <i name="e_fr_energy">   -702.83491941 </i>
    <i name="e_wo_entrp">   -702.79840119 </i>
    <i name="e_0_energy">   -702.81666030 </i>
   </energy>
  </scstep>
  <scstep>
   <time name="diag">    0.87    0.87</time>
   <time name="diis">    3.17    3.16</time>
   <time name="orth">    0.41    0.41</time>
   <time name="total">    4.83    4.77</time>
   <energy>
    <i name="e_fr_energy">   -702.65387028 </i>
    <i name="e_wo_entrp">   -702.64549596 </i>
    <i name="e_0_energy">   -702.64968312 </i>
   </energy>
  </scstep>
  <scstep>
   <time name="diag">    0.87    0.87</time>
   <time name="diis">    3.32    3.31</time>
   <time name="orth">    0.41    0.41</time>
   <time name="total">    4.97    4.92</time>
   <energy>
    <i name="e_fr_energy">   -702.31701410 </i>
    <i name="e_wo_entrp">   -702.28554778 </i>
    <i name="e_0_energy">   -702.30128094 </i>
   </energy>
  </scstep>
  <scstep>
   <time name="diag">    0.88    0.88</time>
   <time name="diis">    3.30    3.29</time>
   <time name="orth">    0.41    0.41</time>
   <time name="total">    4.96    4.90</time>
   <energy>
    <i name="e_fr_energy">   -702.27414620 </i>
    <i name="e_wo_entrp">   -702.23510747 </i>
    <i name="e_0_energy">   -702.25462683 </i>
   </energy>
  </scstep>
  <scstep>
   <time name="diag">    0.87    0.87</time>
   <time name="diis">    2.80    2.79</time>
   <time name="orth">    0.41    0.41</time>
   <time name="total">    4.45    4.39</time>
   <energy>
    <i name="e_fr_energy">   -702.26437711 </i>
    <i name="e_wo_entrp">   -702.22807167 </i>
    <i name="e_0_energy">   -702.24622439 </i>
   </energy>
  </scstep>
  <scstep>
   <time name="diag">    0.87    0.87</time>
   <time name="diis">    2.96    2.95</time>
   <time name="orth">    0.41    0.41</time>
   <time name="total">    4.62    4.56</time>
   <energy>
    <i name="e_fr_energy">   -702.22906387 </i>
    <i name="e_wo_entrp">   -702.18275794 </i>
    <i name="e_0_energy">   -702.20591091 </i>
   </energy>
  </scstep>
  <scstep>
   <time name="diag">    0.87    0.87</time>
   <time name="diis">    2.86    2.85</time>
   <time name="orth">    0.41    0.41</time>
   <time name="total">    4.52    4.47</time>
   <energy>
    <i name="e_fr_energy">   -702.21932141 </i>
    <i name="e_wo_entrp">   -702.17390164 </i>
    <i name="e_0_energy">   -702.19661153 </i>
   </energy>
  </scstep>
  <scstep>
   <time name="diag">    0.87    0.87</time>
   <time name="diis">    2.82    2.81</time>
   <time name="orth">    0.41    0.41</time>
   <time name="total">    4.49    4.43</time>
   <energy>
    <i name="e_fr_energy">   -702.21411929 </i>
    <i name="e_wo_entrp">   -702.15977230 </i>
    <i name="e_0_energy">   -702.18694579 </i>
   </energy>
  </scstep>
  <scstep>
   <time name="diag">    0.87    0.87</time>
   <time name="diis">    3.17    3.15</time>
   <time name="orth">    0.41    0.41</time>
   <time name="total">    4.83    4.77</time>
   <energy>
    <i name="e_fr_energy">   -702.21397545 </i>
    <i name="e_wo_entrp">   -702.16109970 </i>
    <i name="e_0_energy">   -702.18753757 </i>
   </energy>
  </scstep>
  <scstep>
   <time name="diag">    0.87    0.87</time>
   <time name="diis">    2.76    2.75</time>
   <time name="orth">    0.41    0.41</time>
   <time name="total">    4.43    4.37</time>
   <energy>
    <i name="e_fr_energy">   -702.21406992 </i>
    <i name="e_wo_entrp">   -702.16104886 </i>
    <i name="e_0_energy">   -702.18755939 </i>
   </energy>
  </scstep>
  <scstep>
   <time name="diag">    0.87    0.87</time>
   <time name="diis">    2.45    2.44</time>
   <time name="orth">    0.41    0.41</time>
   <time name="total">    4.14    4.08</time>
   <energy>
    <i name="e_fr_energy">   -702.21401100 </i>
    <i name="e_wo_entrp">   -702.16215611 </i>
    <i name="e_0_energy">   -702.18808355 </i>
   </energy>
  </scstep>
  <scstep>
   <time name="diag">    0.87    0.87</time>
   <time name="diis">    2.02    2.01</time>
   <time name="orth">    0.41    0.41</time>
   <time name="total">    3.39    3.35</time>
   <energy>
    <i name="alphaZ">   5383.97153279 </i>
    <i name="ewald"> -86582.00662795 </i>
    <i name="hartreedc"> -33927.85856341 </i>
    <i name="XCdc">   4159.75694013 </i>
    <i name="pawpsdc"> 117810.36854500 </i>
    <i name="pawaedc">-133867.96996776 </i>
    <i name="eentropy">     -0.05219909 </i>
    <i name="bandstr">  -5801.71515780 </i>
    <i name="atom"> 132123.29149048 </i>
    <i name="e_fr_energy">   -702.21400762 </i>
    <i name="e_wo_entrp">   -702.16180853 </i>
    <i name="e_0_energy">   -702.18790808 </i>
   </energy>
  </scstep>
  <structure>
   <crystal>
    <varray name="basis" >
     <v>       0.00000000      12.28047342       0.00000000 </v>
     <v>       9.14270205       0.00000000       0.00000000 </v>
     <v>       0.00000000      -2.76826177     -11.30069772 </v>
    </varray>
    <i name="volume">   1268.80515525 </i>
    <varray name="rec_basis" >
     <v>       0.00000000       0.08143009      -0.01994742 </v>
     <v>       0.10937686      -0.00000000       0.00000000 </v>
     <v>       0.00000000       0.00000000      -0.08849011 </v>
    </varray>
   </crystal>
   <varray name="positions" >
    <v>       0.65864924       0.00006265       0.15760731 </v>
    <v>       0.65846084       0.00011809       0.65674550 </v>
    <v>       0.65901056       0.33333333       0.15787865 </v>
    <v>       0.65824447       0.33333333       0.65655660 </v>
    <v>       0.65864924       0.66660402       0.15760731 </v>
    <v>       0.65846084       0.66654857       0.65674550 </v>
    <v>       0.84144731       0.16678365       0.34290328 </v>
    <v>       0.84133307       0.16668147       0.84270312 </v>
    <v>       0.84144731       0.49988301       0.34290328 </v>
    <v>       0.84133307       0.49998520       0.84270312 </v>
    <v>       0.84141115       0.83333333       0.34287176 </v>
    <v>       0.84126789       0.83333333       0.84269642 </v>
    <v>       0.58876144       0.16926531       0.39714293 </v>
    <v>       0.59061810       0.16643561       0.89740053 </v>
    <v>       0.58876144       0.49740135       0.39714293 </v>
    <v>       0.59061810       0.50023105       0.89740053 </v>
    <v>       0.59010524       0.83333333       0.39756455 </v>
    <v>       0.59049795       0.83333333       0.89747504 </v>
    <v>       0.90958014      -0.00008547       0.10275706 </v>
    <v>       0.90935540       0.00002816       0.60228283 </v>
    <v>       0.90974199       0.33333333       0.10284959 </v>
    <v>       0.90931388       0.33333333       0.60220354 </v>
    <v>       0.90958014       0.66675214       0.10275706 </v>
    <v>       0.90935540       0.66663851       0.60228283 </v>
    <v>       0.16278106       0.17012964       0.16152874 </v>
    <v>       0.15881045       0.16678944       0.65722060 </v>
    <v>       0.16278106       0.49653702       0.16152874 </v>
    <v>       0.15881045       0.49987723       0.65722060 </v>
    <v>       0.15892350       0.83333333       0.15831068 </v>
    <v>       0.15877365       0.83333333       0.65733881 </v>
    <v>       0.34108906       0.00615574       0.34171784 </v>
    <v>       0.34134434       0.00005505       0.84276753 </v>
    <v>       0.34108295       0.33333333       0.84267963 </v>
    <v>       0.34108906       0.66051093       0.34171784 </v>
    <v>       0.34134434       0.66661161       0.84276753 </v>
    <v>       0.09064623       0.00046469       0.39665769 </v>
    <v>       0.09049509       0.00013618       0.89741959 </v>
    <v>       0.09343229       0.33333333       0.39542045 </v>
    <v>       0.09069824       0.33333333       0.89790419 </v>
    <v>       0.09064623       0.66620197       0.39665769 </v>
    <v>       0.09049509       0.66653048       0.89741959 </v>
    <v>       0.40773012       0.16719888       0.10533304 </v>
    <v>       0.40882488       0.16781829       0.60024100 </v>
    <v>       0.40773012       0.49946778       0.10533304 </v>
    <v>       0.40882488       0.49884838       0.60024100 </v>
    <v>       0.40941669       0.83333333       0.10283916 </v>
    <v>       0.40957482       0.83333333       0.60217755 </v>
    <v>       0.99608731       0.16654898       0.12809624 </v>
    <v>       0.99660955       0.16666431       0.62857299 </v>
    <v>       0.99608731       0.50011768       0.12809624 </v>
    <v>       0.99660955       0.50000235       0.62857299 </v>
    <v>       0.99631719       0.83333333       0.12827055 </v>
    <v>       0.99663229       0.83333333       0.62855909 </v>
    <v>       0.50408269      -0.00088913       0.37163457 </v>
    <v>       0.50354846       0.00001998       0.87154334 </v>
    <v>       0.50384754       0.33333333       0.37110488 </v>
    <v>       0.50353517       0.33333333       0.87164316 </v>
    <v>       0.50408269       0.66755580       0.37163457 </v>
    <v>       0.50354846       0.66664668       0.87154334 </v>
    <v>       0.67372821       0.16616174       0.28078878 </v>
    <v>       0.67332377       0.16666346       0.78182549 </v>
    <v>       0.67372821       0.50050492       0.28078878 </v>
    <v>       0.67332377       0.50000321       0.78182549 </v>
    <v>       0.67342233       0.83333333       0.28141360 </v>
    <v>       0.67336216       0.83333333       0.78173073 </v>
[...]
       <r>   -10.0639     0.0000   144.0000 </r>
       <r>    -9.9542     0.0000   144.0000 </r>
       <r>    -9.8444     0.0000   144.0000 </r>
       <r>    -9.7347     0.0000   144.0000 </r>
       <r>    -9.6249     0.0000   144.0000 </r>
       <r>    -9.5152     0.0000   144.0000 </r>
       <r>    -9.4055     0.1283   144.0141 </r>
       <r>    -9.2957    54.3602   149.9797 </r>
       <r>    -9.1860   304.5827   183.4051 </r>
       <r>    -9.0762   670.6346   257.0017 </r>
       <r>    -8.9665   759.9056   340.3950 </r>
       <r>    -8.8567   664.4700   413.3151 </r>
       <r>    -8.7470   650.4887   484.7008 </r>
       <r>    -8.6373   234.5884   510.4449 </r>
       <r>    -8.5275   188.6805   531.1510 </r>
       <r>    -8.4178   247.2864   558.2887 </r>
       <r>    -8.3080   121.4872   571.6209 </r>
       <r>    -8.1983   116.3155   584.3855 </r>
       <r>    -8.0886   130.8524   598.7455 </r>
       <r>    -7.9788    67.8864   606.1955 </r>
       <r>    -7.8691    45.9812   611.2415 </r>
       <r>    -7.7593    24.2921   613.9074 </r>
       <r>    -7.6496     0.8440   614.0000 </r>
       <r>    -7.5398     0.0000   614.0000 </r>
       <r>    -7.4301     0.0000   614.0000 </r>
       <r>    -7.3204     0.0000   614.0000 </r>
       <r>    -7.2106     0.0000   614.0000 </r>
       <r>    -7.1009     0.0000   614.0000 </r>
       <r>    -6.9911     0.0000   614.0000 </r>
       <r>    -6.8814     0.0000   614.0000 </r>
       <r>    -6.7717     0.0000   614.0000 </r>
       <r>    -6.6619     0.0000   614.0000 </r>
       <r>    -6.5522     0.0000   614.0000 </r>
       <r>    -6.4424     0.0000   614.0000 </r>
       <r>    -6.3327     0.0000   614.0000 </r>
       <r>    -6.2229     0.0000   614.0000 </r>
       <r>    -6.1132     0.0000   614.0000 </r>
       <r>    -6.0035     0.0000   614.0000 </r>
       <r>    -5.8937     0.0000   614.0000 </r>
       <r>    -5.7840     0.0000   614.0000 </r>
       <r>    -5.6742     0.0000   614.0000 </r>
       <r>    -5.5645     0.0000   614.0000 </r>
       <r>    -5.4548     0.0000   614.0000 </r>
       <r>    -5.3450     0.0000   614.0000 </r>
       <r>    -5.2353     0.0000   614.0000 </r>
       <r>    -5.1255     0.0000   614.0000 </r>
       <r>    -5.0158     0.0000   614.0000 </r>
       <r>    -4.9060     0.0000   614.0000 </r>
       <r>    -4.7963     0.0000   614.0000 </r>
       <r>    -4.6866     0.0000   614.0000 </r>
       <r>    -4.5768     0.0000   614.0000 </r>
       <r>    -4.4671     0.0000   614.0000 </r>
       <r>    -4.3573     0.0000   614.0000 </r>
       <r>    -4.2476     0.0000   614.0000 </r>
       <r>    -4.1379     0.0000   614.0000 </r>
       <r>    -4.0281     0.0000   614.0000 </r>
       <r>    -3.9184     0.0000   614.0000 </r>
       <r>    -3.8086     0.0000   614.0000 </r>
       <r>    -3.6989     0.0000   614.0000 </r>
       <r>    -3.5891     0.0000   614.0000 </r>
       <r>    -3.4794     0.0070   614.0008 </r>
       <r>    -3.3697     2.8742   614.3162 </r>
       <r>    -3.2599     8.6330   615.2636 </r>
       <r>    -3.1502    18.9879   617.3473 </r>
       <r>    -3.0404    25.0384   620.0951 </r>
       <r>    -2.9307    36.4118   624.0910 </r>
       <r>    -2.8210    27.5767   627.1173 </r>
       <r>    -2.7112    45.7268   632.1355 </r>
       <r>    -2.6015    40.9501   636.6294 </r>
       <r>    -2.4917    48.0079   641.8979 </r>
       <r>    -2.3820    63.3870   648.8540 </r>
       <r>    -2.2722    54.4665   654.8313 </r>
       <r>    -2.1625    39.8561   659.2052 </r>
       <r>    -2.0528    52.1736   664.9308 </r>
       <r>    -1.9430    55.2115   670.9898 </r>
       <r>    -1.8333    30.5219   674.3393 </r>
       <r>    -1.7235    29.0755   677.5301 </r>
       <r>    -1.6138    27.3839   680.5353 </r>
       <r>    -1.5040    32.2916   684.0790 </r>
       <r>    -1.3943    31.8209   687.5711 </r>
       <r>    -1.2846    36.2515   691.5494 </r>
       <r>    -1.1748    44.3960   696.4215 </r>
       <r>    -1.0651    29.8402   699.6962 </r>
       <r>    -0.9553    40.5067   704.1415 </r>
       <r>    -0.8456    30.2139   707.4572 </r>
       <r>    -0.7359    35.5293   711.3562 </r>
       <r>    -0.6261    35.8659   715.2922 </r>
       <r>    -0.5164    53.9202   721.2095 </r>
       <r>    -0.4066    43.4426   725.9770 </r>
       <r>    -0.2969    35.5199   729.8750 </r>
       <r>    -0.1871    47.7381   735.1138 </r>
       <r>    -0.0774    76.6129   743.5215 </r>
       <r>     0.0323    80.5770   752.3641 </r>
       <r>     0.1421    64.5250   759.4452 </r>
       <r>     0.2518    67.1225   766.8114 </r>
       <r>     0.3616    66.1812   774.0742 </r>
       <r>     0.4713    54.0233   780.0028 </r>
       <r>     0.5810    63.7829   787.0024 </r>
       <r>     0.6908    69.6607   794.6471 </r>
       <r>     0.8005    72.1644   802.5666 </r>
       <r>     0.9103    77.6213   811.0849 </r>
       <r>     1.0200    82.3484   820.1219 </r>
       <r>     1.1298    72.0935   828.0336 </r>
       <r>     1.2395    57.8111   834.3779 </r>
       <r>     1.3492    76.1856   842.7386 </r>
       <r>     1.4590    74.9258   850.9611 </r>
       <r>     1.5687    83.3763   860.1109 </r>
       <r>     1.6785    90.1779   870.0072 </r>
       <r>     1.7882    73.6641   878.0912 </r>
       <r>     1.8979    60.7974   884.7632 </r>
       <r>     2.0077    51.9570   890.4651 </r>
       <r>     2.1174    89.7948   900.3193 </r>
       <r>     2.2272    94.7188   910.7139 </r>
       <r>     2.3369   101.8625   921.8925 </r>
       <r>     2.4467    93.6942   932.1747 </r>
       <r>     2.5564    95.9498   942.7043 </r>
       <r>     2.6661   104.8747   954.2135 </r>
       <r>     2.7759   111.8817   966.4915 </r>
       <r>     2.8856   133.6808   981.1619 </r>
       <r>     2.9954   125.6249   994.9482 </r>
       <r>     3.1051   106.2111  1006.6040 </r>
       <r>     3.2148    87.2825  1016.1825 </r>
       <r>     3.3246    70.3172  1023.8992 </r>
       <r>     3.4343    61.3311  1030.6298 </r>
       <r>     3.5441    78.6709  1039.2633 </r>
       <r>     3.6538    48.9952  1044.6401 </r>
       <r>     3.7636    12.3737  1045.9980 </r>
       <r>     3.8733     0.0180  1046.0000 </r>
       <r>     3.9830     0.0000  1046.0000 </r>
       <r>     4.0928     0.0000  1046.0000 </r>
       <r>     4.2025     0.0000  1046.0000 </r>
       <r>     4.3123     0.0000  1046.0000 </r>
       <r>     4.4220     0.0000  1046.0000 </r>
       <r>     4.5317     0.0000  1046.0000 </r>
       <r>     4.6415     0.0000  1046.0000 </r>
       <r>     4.7512     0.0000  1046.0000 </r>
       <r>     4.8610     0.0000  1046.0000 </r>
       <r>     4.9707     0.0000  1046.0000 </r>
       <r>     5.0805     0.0000  1046.0000 </r>
       <r>     5.1902     0.0000  1046.0000 </r>
       <r>     5.2999     0.0000  1046.0000 </r>
       <r>     5.4097     0.0000  1046.0000 </r>
       <r>     5.5194     0.0000  1046.0000 </r>
       <r>     5.6292     0.0000  1046.0000 </r>
       <r>     5.7389     0.0000  1046.0000 </r>
       <r>     5.8486     0.0008  1046.0001 </r>
       <r>     5.9584     0.8943  1046.0982 </r>
       <r>     6.0681     1.3777  1046.2494 </r>
       <r>     6.1779     0.0053  1046.2500 </r>
       <r>     6.2876     0.0000  1046.2500 </r>
       <r>     6.3974     0.0000  1046.2500 </r>
       <r>     6.5071     0.0000  1046.2500 </r>
       <r>     6.6168     0.0001  1046.2500 </r>
       <r>     6.7266     0.5046  1046.3054 </r>
       <r>     6.8363     3.6716  1046.7083 </r>
       <r>     6.9461     3.4472  1047.0866 </r>
       <r>     7.0558     1.6179  1047.2642 </r>
       <r>     7.1655     2.7612  1047.5672 </r>
       <r>     7.2753     5.5212  1048.1731 </r>
       <r>     7.3850     0.7006  1048.2500 </r>
       <r>     7.4948     0.0139  1048.2515 </r>
       <r>     7.6045     3.1226  1048.5942 </r>
       <r>     7.7143     6.9855  1049.3608 </r>
       <r>     7.8240     7.9146  1050.2293 </r>
       <r>     7.9337     3.9699  1050.6650 </r>
       <r>     8.0435     7.8256  1051.5238 </r>
       <r>     8.1532     4.0544  1051.9687 </r>
       <r>     8.2630     4.5566  1052.4688 </r>
       <r>     8.3727    10.4448  1053.6150 </r>
       <r>     8.4824     9.2076  1054.6255 </r>
       <r>     8.5922     5.0199  1055.1764 </r>
       <r>     8.7019     2.6654  1055.4689 </r>
       <r>     8.8117    16.1196  1057.2379 </r>
       <r>     8.9214    15.5194  1058.9410 </r>
       <r>     9.0312    11.3199  1060.1833 </r>
       <r>     9.1409     5.1778  1060.7515 </r>
       <r>     9.2506    17.4393  1062.6653 </r>
       <r>     9.3604    27.0524  1065.6341 </r>
       <r>     9.4701    34.6218  1069.4335 </r>
       <r>     9.5799    33.6265  1073.1237 </r>
       <r>     9.6896    43.4545  1077.8925 </r>
       <r>     9.7993    50.1586  1083.3970 </r>
       <r>     9.9091    37.3265  1087.4933 </r>
       <r>    10.0188    28.5228  1090.6234 </r>
       <r>    10.1286    29.6920  1093.8819 </r>
       <r>    10.2383    29.3444  1097.1022 </r>
       <r>    10.3481    33.1824  1100.7437 </r>
       <r>    10.4578    46.3519  1105.8304 </r>
       <r>    10.5675    39.8612  1110.2048 </r>
       <r>    10.6773    28.9876  1113.3860 </r>
       <r>    10.7870    34.5631  1117.1790 </r>
       <r>    10.8968    31.6611  1120.6535 </r>
       <r>    11.0065    33.9708  1124.3816 </r>
       <r>    11.1162    34.2420  1128.1393 </r>
       <r>    11.2260    41.7811  1132.7245 </r>
       <r>    11.3357    40.8784  1137.2105 </r>
       <r>    11.4455    26.7258  1140.1434 </r>
       <r>    11.5552    50.5266  1145.6883 </r>
       <r>    11.6650    31.2932  1149.1225 </r>
       <r>    11.7747    10.5536  1150.2807 </r>
       <r>    11.8844    10.0680  1151.3855 </r>
       <r>    11.9942    24.7665  1154.1035 </r>
       <r>    12.1039    33.7439  1157.8066 </r>
       <r>    12.2137    38.1809  1161.9966 </r>
       <r>    12.3234    42.3411  1166.6432 </r>
       <r>    12.4331    45.2277  1171.6066 </r>
       <r>    12.5429    46.9370  1176.7575 </r>
       <r>    12.6526    33.3656  1180.4191 </r>
       <r>    12.7624    39.6827  1184.7739 </r>
       <r>    12.8721    27.9622  1187.8426 </r>
       <r>    12.9819    35.5335  1191.7421 </r>
       <r>    13.0916    40.9575  1196.2368 </r>
       <r>    13.2013    39.8952  1200.6150 </r>
       <r>    13.3111    54.2371  1206.5670 </r>
       <r>    13.4208    38.8488  1210.8304 </r>
       <r>    13.5306    31.9478  1214.3364 </r>
       <r>    13.6403    41.4314  1218.8831 </r>
       <r>    13.7500    31.1809  1222.3050 </r>
       <r>    13.8598    30.7302  1225.6774 </r>
       <r>    13.9695    33.3083  1229.3327 </r>
       <r>    14.0793    30.0360  1232.6289 </r>
       <r>    14.1890    30.3409  1235.9585 </r>
       <r>    14.2988    27.5126  1238.9778 </r>
       <r>    14.4085    31.7386  1242.4609 </r>
       <r>    14.5182    43.6040  1247.2460 </r>
       <r>    14.6280    20.9397  1249.5440 </r>
       <r>    14.7377     4.0987  1249.9938 </r>
       <r>    14.8475     0.0565  1250.0000 </r>
       <r>    14.9572     0.0000  1250.0000 </r>
       <r>    15.0669     0.0000  1250.0000 </r>
       <r>    15.1767     0.0000  1250.0000 </r>
       <r>    15.2864     0.0000  1250.0000 </r>
       <r>    15.3962     0.0000  1250.0000 </r>
       <r>    15.5059     0.0000  1250.0000 </r>
       <r>    15.6157     0.0000  1250.0000 </r>
       <r>    15.7254     0.0000  1250.0000 </r>
       <r>    15.8351     0.0000  1250.0000 </r>
       <r>    15.9449     0.0000  1250.0000 </r>
       <r>    16.0546     0.0000  1250.0000 </r>
       <r>    16.1644     0.0000  1250.0000 </r>
      </set>
     </set>
    </array>
   </total>
  </dos>
 </calculation>
 <structure name="finalpos" >
  <crystal>
   <varray name="basis" >
    <v>       0.00000000      12.28047342       0.00000000 </v>
    <v>       9.14270205       0.00000000       0.00000000 </v>
    <v>       0.00000000      -2.76826177     -11.30069772 </v>
   </varray>
   <i name="volume">   1268.80515525 </i>
   <varray name="rec_basis" >
    <v>       0.00000000       0.08143009      -0.01994742 </v>
    <v>       0.10937686      -0.00000000       0.00000000 </v>
    <v>       0.00000000       0.00000000      -0.08849011 </v>
   </varray>
  </crystal>
  <varray name="positions" >
   <v>       0.66111882       0.00006166       0.15791890 </v>
   <v>       0.65816862       0.00028259       0.65546779 </v>
   <v>       0.66171156       0.33333333       0.15834412 </v>
   <v>       0.65805543       0.33333333       0.65507326 </v>
   <v>       0.66111882       0.66660501       0.15791890 </v>
   <v>       0.65816862       0.66638408       0.65546779 </v>
   <v>       0.84341632       0.16710099       0.34444804 </v>
   <v>       0.84028454       0.16719618       0.84256033 </v>
   <v>       0.84341632       0.49956568       0.34444804 </v>
   <v>       0.84028454       0.49947049       0.84256033 </v>
   <v>       0.84218338       0.83333333       0.34425296 </v>
   <v>       0.83983557       0.83333333       0.84242805 </v>
   <v>       0.58910643       0.17033043       0.39581358 </v>
   <v>       0.59210173       0.16649431       0.89788334 </v>
   <v>       0.58910643       0.49633624       0.39581358 </v>
   <v>       0.59210173       0.50017236       0.89788334 </v>
   <v>       0.59036158       0.83333333       0.39712202 </v>
   <v>       0.59278784       0.83333333       0.89864598 </v>
   <v>       0.90878182       0.00028605       0.10171453 </v>
   <v>       0.90952004       0.00013192       0.60297146 </v>
   <v>       0.91102480       0.33333333       0.10270135 </v>
   <v>       0.91002083       0.33333333       0.60271749 </v>
   <v>       0.90878182       0.66638061       0.10171453 </v>
   <v>       0.90952004       0.66653474       0.60297146 </v>
   <v>       0.16318792       0.16960134       0.16109644 </v>
   <v>       0.16016040       0.16703497       0.65816303 </v>
   <v>       0.16318792       0.49706532       0.16109644 </v>
   <v>       0.16016040       0.49963169       0.65816303 </v>
   <v>       0.15841957       0.83333333       0.15790966 </v>
   <v>       0.16010443       0.83333333       0.65972673 </v>
   <v>       0.33994053       0.00391574       0.34078920 </v>
   <v>       0.34271447       0.00016343       0.84403055 </v>
   <v>       0.34207034       0.33333333       0.84371657 </v>
   <v>       0.33994053       0.66275092       0.34078920 </v>
   <v>       0.34271447       0.66650324       0.84403055 </v>
   <v>       0.09193926       0.00051796       0.39761167 </v>
   <v>       0.08997964       0.00019149       0.89740231 </v>
   <v>       0.09873370       0.33333333       0.39706467 </v>
   <v>       0.09104337       0.33333333       0.89823402 </v>
   <v>       0.09193926       0.66614871       0.39761167 </v>
   <v>       0.08997964       0.66647518       0.89740231 </v>
   <v>       0.40981616       0.16579533       0.10497427 </v>
   <v>       0.40572104       0.16634412       0.59825407 </v>
   <v>       0.40981616       0.50087134       0.10497427 </v>
   <v>       0.40572104       0.50032255       0.59825407 </v>
   <v>       0.40998373       0.83333333       0.10395615 </v>
   <v>       0.40872426       0.83333333       0.60055225 </v>
   <v>       0.99693340       0.16580364       0.12442406 </v>
   <v>       0.99734499       0.16649373       0.62892118 </v>
   <v>       0.99693340       0.50086303       0.12442406 </v>
   <v>       0.99734499       0.50017294       0.62892118 </v>
   <v>       0.99486971       0.83333333       0.12577253 </v>
   <v>       0.99706682       0.83333333       0.62950934 </v>
   <v>       0.50382878       0.00090604       0.37317578 </v>
   <v>       0.50515242      -0.00037026       0.87318525 </v>
   <v>       0.50020452       0.33333333       0.37122535 </v>
   <v>       0.50488044       0.33333333       0.87252198 </v>
   <v>       0.50382878       0.66576062       0.37317578 </v>
   <v>       0.50515242       0.66703692       0.87318525 </v>
   <v>       0.67432431       0.16639246       0.28077826 </v>
   <v>       0.67198803       0.16768626       0.77950249 </v>
   <v>       0.67432431       0.50027421       0.28077826 </v>
   <v>       0.67198803       0.49898040       0.77950249 </v>
   <v>       0.67391026       0.83333333       0.28145293 </v>
   <v>       0.67238819       0.83333333       0.77990153 </v>
   <v>       0.82903336       0.00042248       0.22037867 </v>
   <v>       0.82674747       0.00037631       0.71888343 </v>
   <v>       0.82965694       0.33333333       0.22019316 </v>
   <v>       0.82701138       0.33333333       0.71868464 </v>
   <v>       0.82903336       0.66624419       0.22037867 </v>
   <v>       0.82674747       0.66629035       0.71888343 </v>
   <v>       0.83350318       0.00025141       0.44650264 </v>
   <v>       0.83117029       0.00033988       0.94496116 </v>
   <v>       0.83270607       0.33333333       0.44654353 </v>
   <v>       0.83215414       0.33333333       0.94589319 </v>
   <v>       0.83350318       0.66641526       0.44650264 </v>
   <v>       0.83117029       0.66632679       0.94496116 </v>
   <v>       0.66861728       0.16727096       0.05459229 </v>
   <v>       0.66715319       0.16664095       0.55324896 </v>
   <v>       0.66861728       0.49939571       0.05459229 </v>
   <v>       0.66715319       0.50002572       0.55324896 </v>
   <v>       0.67074523       0.83333333       0.05493544 </v>
   <v>       0.66753909       0.83333333       0.55376233 </v>
   <v>       0.49917087      -0.00072396       0.12692229 </v>
   <v>       0.49621920       0.00074592       0.62803521 </v>
   <v>       0.49777795       0.33333333       0.13314310 </v>
   <v>       0.49356221       0.33333333       0.62083230 </v>
   <v>       0.49917087       0.66739063       0.12692229 </v>
   <v>       0.49621920       0.66592075       0.62803521 </v>
   <v>       0.00580992       0.16814971       0.37516335 </v>
   <v>       0.00280335       0.16707673       0.87114173 </v>
   <v>       0.00580992       0.49851695       0.37516335 </v>
   <v>       0.00280335       0.49958993       0.87114173 </v>
   <v>       0.00414564       0.83333333       0.37474879 </v>
   <v>       0.00234755       0.83333333       0.87074703 </v>
   <v>       0.16912188      -0.00324852       0.27855822 </v>
   <v>       0.17365884       0.00011100       0.78210242 </v>
   <v>       0.16179821       0.33333333       0.27009922 </v>
   <v>       0.17343989       0.33333333       0.78179944 </v>
   <v>       0.16912188       0.66991519       0.27855822 </v>
   <v>       0.17365884       0.66655567       0.78210242 </v>
   <v>       0.32477075       0.14757264       0.21327691 </v>
   <v>       0.32856136       0.16690372       0.72057354 </v>
   <v>       0.32477075       0.51909402       0.21327691 </v>
   <v>       0.32856136       0.49976294       0.72057354 </v>
   <v>       0.32746054       0.83333333       0.21906535 </v>
   <v>       0.32836781       0.83333333       0.71972841 </v>
   <v>       0.31438380       0.14825078       0.45076105 </v>
   <v>       0.33574815       0.16703191       0.94685884 </v>
   <v>       0.31438380       0.51841589       0.45076105 </v>
   <v>       0.33574815       0.49963476       0.94685884 </v>
   <v>       0.33248900       0.83333333       0.44401145 </v>
   <v>       0.33410827       0.83333333       0.94655806 </v>
   <v>       0.16482124      -0.00042947       0.05358543 </v>
   <v>       0.16638505      -0.00091163       0.55585349 </v>
   <v>       0.17067248       0.33333333       0.05266579 </v>
   <v>       0.16805792       0.33333333       0.55615267 </v>
   <v>       0.16482124       0.66709614       0.05358543 </v>
   <v>       0.16638505       0.66757829       0.55585349 </v>
  </varray>
 </structure>
</modeling>
