 running    4 mpi-ranks, on    1 nodes
 distrk:  each k-point on    1 cores,    4 groups
 distr:  one band on    1 cores,    1 groups
 OpenACC runtime initialized ...    4 GPUs detected
 vasp.6.4.2 20Jul23 (build Nov 12 2023 22:16:35) complex                         
 POSCAR found type information on POSCAR GaO P 
 POSCAR found :  3 types and     119 ions
 scaLAPACK will be used selectively (only on CPU)
 LDA part: xc-table for Pade appr. of Perdew
 POSCAR, INCAR and KPOINTS ok, starting setup
 FFT: planning ... GRIDC
 FFT: planning ... GRID_SOFT
 FFT: planning ... GRID
 WAVECAR not read
 initial charge from wavefunction
 entering main loop
       N       E                     dE             d eps       ncg     rms          ort
DAV:   1    -0.179514996371E+05   -0.17951E+05   -0.54358E+05  5064   0.751E+03
DAV:   2    -0.638418971233E+05   -0.45890E+05   -0.44133E+05  5064   0.127E+03
DAV:   3    -0.698704055987E+05   -0.60285E+04   -0.54195E+04  5064   0.398E+02
DAV:   4    -0.708431198093E+05   -0.97271E+03   -0.89430E+03  5064   0.137E+02
DAV:   5    -0.412411117150E+05    0.29602E+05   -0.68398E+02  5064   0.590E+01
 gam= 0.000 g(H,U,f)=  0.930E+05 0.960E+04 0.376E+00 ort(H,U,f) = 0.000E+00 0.000E+00 0.000E+00
SDA:   6     0.417524464324E+05    0.82994E+05   -0.68398E+02  5064   0.103E+06 0.000E+00
 gam= 0.000 trial= 0.400  step= 0.925 mean= 0.400
 gam= 0.931 g(H,U,f)=  0.881E+05 0.741E+04 0.446E+02 ort(H,U,f) =-0.176E+05-0.371E+04-0.515E+02
CGA:   7     0.221310195123E+05   -0.19621E+05   -0.47424E+05  5064   0.955E+05-0.214E+05
 gam= 0.931 trial= 0.426  step= 0.270 mean= 0.426
 gam= 0.597 g(H,U,f)=  0.438E+05 0.115E+05 0.172E+04 ort(H,U,f) = 0.191E+05-0.175E+04-0.131E+04
CGA:   8     0.154699368942E+05   -0.66611E+04   -0.10202E+05  5064   0.570E+05 0.160E+05
 gam= 0.597 trial= 0.418  step= 0.215 mean= 0.418
 gam= 0.527 g(H,U,f)=  0.264E+05 0.354E+04 0.900E+02 ort(H,U,f) = 0.131E+05 0.611E+02-0.365E+03
CGA:   9     0.112832613766E+05   -0.41867E+04   -0.71577E+04  5064   0.301E+05 0.128E+05
 gam= 0.527 trial= 0.408  step= 0.229 mean= 0.408
 gam= 1.575 g(H,U,f)=  0.404E+05 0.667E+04 0.274E+03 ort(H,U,f) = 0.100E+05-0.638E+04-0.418E+03
CGA:  10     0.909355394337E+04   -0.21897E+04   -0.42181E+04  5064   0.474E+05 0.324E+04
 gam= 1.575 trial= 0.399  step= 0.211 mean= 0.399
 gam= 0.746 g(H,U,f)=  0.327E+05 0.262E+04 0.786E+00 ort(H,U,f) = 0.230E+05-0.339E+03-0.171E+02
CGA:  11     0.805363174586E+04   -0.10399E+04   -0.55262E+04  5064   0.353E+05 0.226E+05
 gam= 0.746 trial= 0.390  step= 0.195 mean= 0.390
 gam= 0.000 g(H,U,f)=  0.185E+05 0.246E+04 0.106E+02 ort(H,U,f) = 0.203E+05 0.316E+03-0.869E+01
CGA:  12     0.675144720322E+04   -0.13022E+04   -0.50994E+04  5064   0.209E+05 0.206E+05
 gam= 0.000 trial= 0.380  step= 0.272 mean= 0.380
 gam= 0.807 g(H,U,f)=  0.158E+05 0.105E+04 0.168E+00 ort(H,U,f) = 0.903E+03 0.691E+02 0.386E-02
CGA:  13     0.410505598678E+04   -0.26464E+04   -0.28468E+04  5064   0.169E+05 0.972E+03
 gam= 0.807 trial= 0.375  step= 0.269 mean= 0.375
 gam= 0.199 g(H,U,f)=  0.302E+04 0.342E+03 0.719E+00 ort(H,U,f) = 0.157E+04 0.526E+03-0.505E+00
CGA:  14     0.213378433009E+04   -0.19713E+04   -0.23812E+04  5064   0.336E+04 0.209E+04
 gam= 0.199 trial= 0.369  step= 0.718 mean= 0.369
 gam= 0.532 g(H,U,f)=  0.145E+04 0.338E+03 0.347E+00 ort(H,U,f) = 0.379E+02 0.405E+03-0.545E+00
CGA:  15     0.695273879348E+03   -0.14385E+04   -0.13557E+04  5064   0.179E+04 0.442E+03
 gam= 0.532 trial= 0.387  step= 0.777 mean= 0.387
 gam= 0.698 g(H,U,f)=  0.961E+03 0.281E+03 0.397E+01 ort(H,U,f) =-0.300E+03 0.371E+03 0.321E+01
CGA:  16    -0.125224209888E+03   -0.82050E+03   -0.78528E+03  5064   0.125E+04 0.744E+02
 gam= 0.698 trial= 0.406  step= 0.486 mean= 0.406
 gam= 0.601 g(H,U,f)=  0.512E+03 0.236E+03 0.976E+00 ort(H,U,f) =-0.153E+02-0.161E+03-0.759E+00
CGA:  17    -0.431702251546E+03   -0.30648E+03   -0.31548E+03  5064   0.749E+03-0.177E+03
 gam= 0.601 trial= 0.410  step= 0.401 mean= 0.410
 gam= 0.573 g(H,U,f)=  0.269E+03 0.159E+03 0.122E+01 ort(H,U,f) = 0.989E+02-0.118E+03 0.295E+00
CGA:  18    -0.560668910611E+03   -0.12897E+03   -0.12890E+03  5064   0.429E+03-0.189E+02
 gam= 0.573 trial= 0.410  step= 0.401 mean= 0.410
 gam= 0.568 g(H,U,f)=  0.152E+03 0.906E+02 0.727E+00 ort(H,U,f) = 0.519E+02-0.363E+02-0.356E+00
CGA:  19    -0.644301832374E+03   -0.83633E+02   -0.83776E+02  5064   0.244E+03 0.153E+02
 gam= 0.568 trial= 0.409  step= 0.496 mean= 0.409
 gam= 0.656 g(H,U,f)=  0.940E+02 0.656E+02 0.194E+00 ort(H,U,f) =-0.701E+01 0.177E+02 0.212E+00
CGA:  20    -0.707492650756E+03   -0.63191E+02   -0.62662E+02  5064   0.160E+03 0.109E+02
 gam= 0.656 trial= 0.414  step= 0.548 mean= 0.414
 gam= 0.708 g(H,U,f)=  0.715E+02 0.416E+02 0.171E-01 ort(H,U,f) =-0.320E+02 0.413E+02-0.987E-02
CGA:  21    -0.753802173837E+03   -0.46310E+02   -0.45728E+02  5064   0.113E+03 0.933E+01
 gam= 0.708 trial= 0.421  step= 0.555 mean= 0.421
 gam= 0.679 g(H,U,f)=  0.557E+02 0.211E+02 0.571E-01 ort(H,U,f) =-0.253E+02 0.322E+02 0.252E-01
CGA:  22    -0.787417535030E+03   -0.33615E+02   -0.33215E+02  5064   0.768E+02 0.694E+01
 gam= 0.679 trial= 0.427  step= 0.516 mean= 0.427
 gam= 0.616 g(H,U,f)=  0.366E+02 0.106E+02 0.444E-01 ort(H,U,f) =-0.549E+01 0.997E+01 0.897E-01
CGA:  23    -0.808633183649E+03   -0.21216E+02   -0.21040E+02  5064   0.473E+02 0.456E+01
 gam= 0.616 trial= 0.432  step= 0.468 mean= 0.432
 gam= 0.557 g(H,U,f)=  0.190E+02 0.739E+01 0.967E-02 ort(H,U,f) = 0.374E+01-0.564E+00-0.510E-01
CGA:  24    -0.820436621677E+03   -0.11803E+02   -0.11741E+02  5064   0.264E+02 0.313E+01
 gam= 0.557 trial= 0.434  step= 0.478 mean= 0.434
 gam= 0.607 g(H,U,f)=  0.973E+01 0.621E+01 0.762E-01 ort(H,U,f) = 0.152E+01 0.105E+00-0.665E-01
CGA:  25    -0.827197932397E+03   -0.67613E+01   -0.67211E+01  5064   0.160E+02 0.156E+01
 gam= 0.607 trial= 0.436  step= 0.525 mean= 0.436
 gam= 0.682 g(H,U,f)=  0.631E+01 0.459E+01 0.183E-01 ort(H,U,f) =-0.155E+01 0.226E+01 0.211E-01
CGA:  26    -0.831684881596E+03   -0.44869E+01   -0.44480E+01  5064   0.109E+02 0.732E+00
 gam= 0.682 trial= 0.440  step= 0.542 mean= 0.440
 gam= 0.669 g(H,U,f)=  0.455E+01 0.275E+01 0.825E-02 ort(H,U,f) =-0.225E+01 0.255E+01-0.229E-01
CGA:  27    -0.834798381828E+03   -0.31135E+01   -0.30955E+01  5064   0.731E+01 0.287E+00
 gam= 0.669 trial= 0.445  step= 0.539 mean= 0.445
 gam= 0.664 g(H,U,f)=  0.337E+01 0.148E+01 0.416E-02 ort(H,U,f) =-0.140E+01 0.144E+01-0.606E-02
CGA:  28    -0.836818587950E+03   -0.20202E+01   -0.20189E+01  5064   0.485E+01 0.335E-01
 gam= 0.664 trial= 0.450  step= 0.528 mean= 0.450
 gam= 0.671 g(H,U,f)=  0.235E+01 0.904E+00 0.519E-02 ort(H,U,f) =-0.304E+00 0.315E+00-0.304E-02
CGA:  29    -0.838106253292E+03   -0.12877E+01   -0.12878E+01  5064   0.326E+01 0.801E-02
 gam= 0.671 trial= 0.454  step= 0.503 mean= 0.454
 gam= 0.616 g(H,U,f)=  0.134E+01 0.668E+00 0.426E-03 ort(H,U,f) = 0.972E-01-0.797E-01 0.363E-03
CGA:  30    -0.838926656000E+03   -0.82040E+00   -0.82005E+00  5064   0.201E+01 0.179E-01
 gam= 0.616 trial= 0.456  step= 0.518 mean= 0.456
 gam= 0.655 g(H,U,f)=  0.794E+00 0.520E+00 0.574E-03 ort(H,U,f) =-0.407E-02 0.164E-01 0.464E-05
CGA:  31    -0.839448989026E+03   -0.52233E+00   -0.52202E+00  5064   0.131E+01 0.123E-01
 gam= 0.655 trial= 0.459  step= 0.543 mean= 0.459
 gam= 0.676 g(H,U,f)=  0.514E+00 0.374E+00 0.126E-02 ort(H,U,f) =-0.134E+00 0.141E+00 0.731E-03
CGA:  32    -0.839808265941E+03   -0.35928E+00   -0.35900E+00  5064   0.889E+00 0.783E-02
 gam= 0.676 trial= 0.464  step= 0.562 mean= 0.464
 gam= 0.698 g(H,U,f)=  0.394E+00 0.227E+00 0.187E-03 ort(H,U,f) =-0.150E+00 0.154E+00 0.543E-03
CGA:  33    -0.840059617913E+03   -0.25135E+00   -0.25114E+00  5064   0.620E+00 0.490E-02
 gam= 0.698 trial= 0.468  step= 0.553 mean= 0.468
 gam= 0.694 g(H,U,f)=  0.295E+00 0.135E+00 0.255E-03 ort(H,U,f) =-0.796E-01 0.839E-01-0.676E-03
CGA:  34    -0.840232144277E+03   -0.17253E+00   -0.17239E+00  5064   0.430E+00 0.362E-02
 gam= 0.694 trial= 0.473  step= 0.534 mean= 0.473
 gam= 0.687 g(H,U,f)=  0.208E+00 0.878E-01 0.225E-03 ort(H,U,f) =-0.227E-01 0.256E-01-0.244E-03
CGA:  35    -0.840347878920E+03   -0.11573E+00   -0.11566E+00  5064   0.296E+00 0.264E-02
 gam= 0.687 trial= 0.476  step= 0.506 mean= 0.476
 gam= 0.680 g(H,U,f)=  0.138E+00 0.634E-01 0.340E-05 ort(H,U,f) =-0.167E-02 0.342E-02-0.378E-05
CGA:  36    -0.840423274592E+03   -0.75396E-01   -0.75369E-01  5064   0.201E+00 0.175E-02
 gam= 0.680 trial= 0.477  step= 0.491 mean= 0.477
 gam= 0.666 g(H,U,f)=  0.844E-01 0.496E-01 0.226E-04 ort(H,U,f) =-0.476E-02 0.587E-02-0.182E-04
CGA:  37    -0.840472955798E+03   -0.49681E-01   -0.49674E-01  5064   0.134E+00 0.109E-02
 gam= 0.666 trial= 0.478  step= 0.502 mean= 0.478
 gam= 0.675 g(H,U,f)=  0.548E-01 0.357E-01 0.509E-05 ort(H,U,f) =-0.144E-01 0.151E-01-0.216E-05
CGA:  38    -0.840506762418E+03   -0.33807E-01   -0.33798E-01  5064   0.905E-01 0.635E-03
 gam= 0.675 trial= 0.479  step= 0.534 mean= 0.479
 gam= 0.680 g(H,U,f)=  0.391E-01 0.223E-01 0.579E-04 ort(H,U,f) =-0.144E-01 0.148E-01 0.717E-05
CGA:  39    -0.840531058648E+03   -0.24296E-01   -0.24286E-01  5064   0.615E-01 0.331E-03
 gam= 0.680 trial= 0.482  step= 0.547 mean= 0.482
 gam= 0.654 g(H,U,f)=  0.267E-01 0.135E-01 0.225E-04 ort(H,U,f) =-0.827E-02 0.834E-02 0.360E-04
CGA:  40    -0.840547936669E+03   -0.16878E-01   -0.16874E-01  5064   0.402E-01 0.108E-03
 gam= 0.654 trial= 0.485  step= 0.557 mean= 0.485
 gam= 0.685 g(H,U,f)=  0.190E-01 0.855E-02 0.730E-05 ort(H,U,f) =-0.301E-02 0.303E-02-0.220E-04
CGA:  41    -0.840559165430E+03   -0.11229E-01   -0.11229E-01  5064   0.275E-01-0.232E-05
 gam= 0.685 trial= 0.489  step= 0.554 mean= 0.489
 gam= 0.699 g(H,U,f)=  0.132E-01 0.604E-02 0.170E-04 ort(H,U,f) =-0.299E-03 0.290E-03-0.192E-04
CGA:  42    -0.840566797768E+03   -0.76323E-02   -0.76333E-02  5064   0.192E-01-0.283E-04
 gam= 0.699 trial= 0.492  step= 0.532 mean= 0.492
 gam= 0.000 g(H,U,f)=  0.841E-02 0.464E-02 0.159E-05 ort(H,U,f) = 0.593E-04-0.752E-04 0.250E-07
SDA:  43    -0.840571914894E+03   -0.51171E-02   -0.51175E-02  5064   0.131E-01-0.159E-04
 gam= 0.000 trial= 0.494  step= 1.193 mean= 0.494
 gam= 0.528 g(H,U,f)=  0.543E-02 0.145E-02 0.782E-06 ort(H,U,f) =-0.214E-02 0.217E-02-0.390E-06
CGA:  44    -0.840579710844E+03   -0.77960E-02   -0.77869E-02  5064   0.689E-02 0.260E-04
 gam= 0.528 trial= 0.529  step= 0.796 mean= 0.529
 gam= 0.254 g(H,U,f)=  0.156E-02 0.192E-03 0.410E-07 ort(H,U,f) =-0.957E-03 0.943E-03 0.172E-06
CGA:  45    -0.840582454809E+03   -0.27440E-02   -0.27458E-02  5064   0.175E-02-0.138E-04
 gam= 0.254 trial= 0.542  step= 0.722 mean= 0.542
 gam= 0.309 g(H,U,f)=  0.511E-03 0.304E-04 0.546E-07 ort(H,U,f) =-0.125E-03 0.116E-03 0.113E-07
CGA:  46    -0.840583084722E+03   -0.62991E-03   -0.63068E-03  5064   0.541E-03-0.846E-05
 gam= 0.309 trial= 0.551  step= 0.673 mean= 0.551
 gam= 0.284 g(H,U,f)=  0.150E-03 0.405E-05 0.169E-08 ort(H,U,f) =-0.131E-04 0.105E-04-0.104E-07
CGA:  47    -0.840583265797E+03   -0.18108E-03   -0.18123E-03  5064   0.154E-03-0.254E-05
 gam= 0.284 trial= 0.557  step= 0.643 mean= 0.557
 gam= 0.289 g(H,U,f)=  0.431E-04 0.131E-05 0.710E-08 ort(H,U,f) = 0.316E-05-0.253E-05-0.377E-08
CGA:  48    -0.840583314999E+03   -0.49201E-04   -0.49172E-04  5064   0.444E-04 0.624E-06
 gam= 0.289 trial= 0.562  step= 0.767 mean= 0.562
 gam= 0.462 g(H,U,f)=  0.194E-04 0.110E-05 0.883E-10 ort(H,U,f) = 0.768E-06-0.375E-06 0.543E-09
CGA:  49    -0.840583332158E+03   -0.17160E-04   -0.17118E-04  5064   0.205E-04 0.393E-06
 gam= 0.462 trial= 0.572  step= 0.844 mean= 0.572
 gam= 0.493 g(H,U,f)=  0.956E-05 0.555E-06 0.170E-08 ort(H,U,f) =-0.699E-06 0.208E-06-0.955E-09
CGA:  50    -0.840583340824E+03   -0.86655E-05   -0.87302E-05  5064   0.101E-04-0.492E-06
 gam= 0.493 trial= 0.586  step= 0.915 mean= 0.586
 final diagonalization
   1 F= -.84058334E+03 E0= -.84057977E+03  d E =-.714831E-02
 writing wavefunctions
Warning: ieee_invalid is signaling
Warning: ieee_divide_by_zero is signaling
Warning: ieee_underflow is signaling
Warning: ieee_inexact is signaling
FORTRAN STOP
Warning: ieee_invalid is signaling
Warning: ieee_divide_by_zero is signaling
Warning: ieee_underflow is signaling
Warning: ieee_inexact is signaling
FORTRAN STOP
Warning: ieee_invalid is signaling
Warning: ieee_divide_by_zero is signaling
Warning: ieee_underflow is signaling
Warning: ieee_inexact is signaling
FORTRAN STOP
Warning: ieee_invalid is signaling
Warning: ieee_divide_by_zero is signaling
Warning: ieee_underflow is signaling
Warning: ieee_inexact is signaling
FORTRAN STOP
