 running    4 mpi-ranks, on    1 nodes
 distrk:  each k-point on    1 cores,    4 groups
 distr:  one band on    1 cores,    1 groups
 OpenACC runtime initialized ...    4 GPUs detected
 vasp.6.4.2 20Jul23 (build Nov 12 2023 22:16:35) complex                         
 POSCAR found type information on POSCAR GaO P 
 POSCAR found :  3 types and     119 ions
 scaLAPACK will be used selectively (only on CPU)
 LDA part: xc-table for Pade appr. of Perdew
 POSCAR, INCAR and KPOINTS ok, starting setup
 FFT: planning ... GRIDC
 FFT: planning ... GRID_SOFT
 FFT: planning ... GRID
 WAVECAR not read
 initial charge from wavefunction
 entering main loop
       N       E                     dE             d eps       ncg     rms          ort
DAV:   1    -0.182801967593E+05   -0.18280E+05   -0.55137E+05   625   0.748E+03
DAV:   2    -0.626530478117E+05   -0.44373E+05   -0.42866E+05   625   0.123E+03
DAV:   3    -0.676025639245E+05   -0.49495E+04   -0.45238E+04   625   0.375E+02
DAV:   4    -0.683347360339E+05   -0.73217E+03   -0.65570E+03   625   0.119E+02
DAV:   5    -0.387816649806E+05    0.29553E+05   -0.62000E+02   625   0.558E+01
 gam= 0.000 g(H,U,f)=  0.770E+05 0.119E+05 0.254E-04 ort(H,U,f) = 0.000E+00 0.000E+00 0.000E+00
SDA:   6     0.293180753805E+05    0.68100E+05   -0.62000E+02   625   0.890E+05 0.000E+00
 gam= 0.000 trial= 0.400  step= 0.417 mean= 0.400
 gam= 0.681 g(H,U,f)=  0.360E+05 0.245E+05 0.801E-02 ort(H,U,f) =-0.745E+04-0.139E+05-0.105E-01
CGA:   7     0.115530916185E+05   -0.17765E+05   -0.18543E+05   625   0.606E+05-0.213E+05
 gam= 0.681 trial= 0.401  step= 0.265 mean= 0.401
 gam= 0.404 g(H,U,f)=  0.148E+05 0.956E+04 0.145E+03 ort(H,U,f) =-0.300E+04 0.155E+05 0.483E+03
CGA:   8     0.505361314725E+04   -0.64995E+04   -0.60980E+04   625   0.245E+05 0.130E+05
 gam= 0.404 trial= 0.394  step= 0.206 mean= 0.394
 gam= 0.723 g(H,U,f)=  0.138E+05 0.386E+04 0.246E+01 ort(H,U,f) = 0.243E+04-0.110E+04 0.178E+01
CGA:   9     0.373978180098E+04   -0.13138E+04   -0.30542E+04   625   0.177E+05 0.133E+04
 gam= 0.723 trial= 0.385  step= 0.254 mean= 0.385
 gam= 0.388 g(H,U,f)=  0.548E+04 0.137E+04 0.272E+01 ort(H,U,f) = 0.839E+03 0.564E+03 0.154E+01
CGA:  10     0.182898976766E+04   -0.19108E+04   -0.23651E+04   625   0.685E+04 0.140E+04
 gam= 0.388 trial= 0.378  step= 0.343 mean= 0.378
 gam= 0.545 g(H,U,f)=  0.265E+04 0.109E+04 0.181E-01 ort(H,U,f) = 0.707E+03-0.259E+02-0.863E-02
CGA:  11     0.589193804738E+03   -0.12398E+04   -0.12702E+04   625   0.374E+04 0.681E+03
 gam= 0.545 trial= 0.376  step= 0.361 mean= 0.376
 gam= 0.376 g(H,U,f)=  0.113E+04 0.271E+03 0.152E-05 ort(H,U,f) = 0.362E+03 0.239E+03 0.789E-06
CGA:  12    -0.141993211750E+03   -0.73119E+03   -0.74116E+03   625   0.141E+04 0.600E+03
 gam= 0.376 trial= 0.376  step= 0.474 mean= 0.376
 gam= 0.441 g(H,U,f)=  0.522E+03 0.977E+02 0.218E-33 ort(H,U,f) = 0.104E+03 0.138E+03-0.954E-33
CGA:  13    -0.548704845057E+03   -0.40671E+03   -0.38673E+03   625   0.620E+03 0.242E+03
 gam= 0.441 trial= 0.380  step= 0.609 mean= 0.380
 gam= 0.522 g(H,U,f)=  0.276E+03 0.468E+02 0.446E+00 ort(H,U,f) =-0.126E+03 0.950E+02 0.818E+00
CGA:  14    -0.765657636216E+03   -0.21695E+03   -0.22122E+03   625   0.324E+03-0.306E+02
 gam= 0.522 trial= 0.392  step= 0.608 mean= 0.392
 gam= 0.514 g(H,U,f)=  0.152E+03 0.141E+02 0.757E-13 ort(H,U,f) =-0.476E+02 0.207E+02-0.164E-12
CGA:  15    -0.855887302333E+03   -0.90230E+02   -0.93444E+02   625   0.166E+03-0.269E+02
 gam= 0.514 trial= 0.403  step= 0.499 mean= 0.403
 gam= 0.479 g(H,U,f)=  0.667E+02 0.129E+02 0.338E-07 ort(H,U,f) = 0.592E+01-0.689E+01 0.183E-06
CGA:  16    -0.893875434503E+03   -0.37988E+02   -0.38008E+02   625   0.796E+02-0.972E+00
 gam= 0.479 trial= 0.408  step= 0.512 mean= 0.408
 gam= 0.511 g(H,U,f)=  0.323E+02 0.838E+01-0.368E-14 ort(H,U,f) =-0.246E+01 0.853E+00-0.111E-13
CGA:  17    -0.914017453902E+03   -0.20142E+02   -0.20272E+02   625   0.407E+02-0.161E+01
 gam= 0.511 trial= 0.413  step= 0.542 mean= 0.413
 gam= 0.561 g(H,U,f)=  0.178E+02 0.505E+01-0.795E-15 ort(H,U,f) =-0.330E+01 0.352E+01-0.559E-14
CGA:  18    -0.924829806805E+03   -0.10812E+02   -0.10793E+02   625   0.228E+02 0.216E+00
 gam= 0.561 trial= 0.419  step= 0.550 mean= 0.419
 gam= 0.564 g(H,U,f)=  0.102E+02 0.263E+01-0.292-223 ort(H,U,f) =-0.338E+01 0.336E+01-0.623-222
CGA:  19    -0.931127595378E+03   -0.62978E+01   -0.62984E+01   625   0.129E+02-0.197E-01
 gam= 0.564 trial= 0.426  step= 0.566 mean= 0.426
 gam= 0.544 g(H,U,f)=  0.562E+01 0.138E+01 0.170-141 ort(H,U,f) =-0.199E+01 0.196E+01-0.179-140
CGA:  20    -0.934763447644E+03   -0.36359E+01   -0.36394E+01   625   0.700E+01-0.365E-01
 gam= 0.544 trial= 0.433  step= 0.570 mean= 0.433
 gam= 0.526 g(H,U,f)=  0.314E+01 0.539E+00-0.532-107 ort(H,U,f) =-0.656E+00 0.651E+00 0.106-106
CGA:  21    -0.936751468295E+03   -0.19880E+01   -0.19900E+01   625   0.368E+01-0.464E-02
 gam= 0.526 trial= 0.440  step= 0.544 mean= 0.440
 gam= 0.545 g(H,U,f)=  0.166E+01 0.343E+00-0.196-104 ort(H,U,f) =-0.577E-01 0.962E-01 0.134-105
CGA:  22    -0.937753822607E+03   -0.10024E+01   -0.10003E+01   625   0.201E+01 0.385E-01
 gam= 0.545 trial= 0.445  step= 0.534 mean= 0.445
 gam= 0.562 g(H,U,f)=  0.953E+00 0.176E+00-0.218E-15 ort(H,U,f) =-0.273E-01 0.429E-01-0.350E-15
CGA:  23    -0.938295985868E+03   -0.54216E+00   -0.54137E+00   625   0.113E+01 0.156E-01
 gam= 0.562 trial= 0.449  step= 0.483 mean= 0.449
 gam= 0.481 g(H,U,f)=  0.425E+00 0.118E+00-0.405E-16 ort(H,U,f) =-0.401E-01 0.437E-01-0.210E-15
CGA:  24    -0.938570813060E+03   -0.27483E+00   -0.27475E+00   625   0.543E+00 0.359E-02
 gam= 0.481 trial= 0.451  step= 0.539 mean= 0.451
 gam= 0.566 g(H,U,f)=  0.238E+00 0.696E-01-0.489-125 ort(H,U,f) =-0.720E-01 0.720E-01-0.315-124
CGA:  25    -0.938717508041E+03   -0.14669E+00   -0.14670E+00   625   0.307E+00-0.116E-04
 gam= 0.566 trial= 0.455  step= 0.597 mean= 0.455
 gam= 0.557 g(H,U,f)=  0.140E+00 0.313E-01-0.291E-17 ort(H,U,f) =-0.495E-01 0.495E-01-0.249E-16
CGA:  26    -0.938809281048E+03   -0.91773E-01   -0.91785E-01   625   0.171E+00-0.918E-04
 gam= 0.557 trial= 0.462  step= 0.586 mean= 0.462
 gam= 0.568 g(H,U,f)=  0.836E-01 0.136E-01-0.795E-18 ort(H,U,f) =-0.198E-01 0.198E-01 0.840E-17
CGA:  27    -0.938859388232E+03   -0.50107E-01   -0.50107E-01   625   0.972E-01-0.135E-04
 gam= 0.568 trial= 0.469  step= 0.587 mean= 0.469
 gam= 0.597 g(H,U,f)=  0.503E-01 0.770E-02-0.299-132 ort(H,U,f) =-0.361E-02 0.349E-02 0.412-132
CGA:  28    -0.938887919068E+03   -0.28531E-01   -0.28538E-01   625   0.580E-01-0.116E-03
 gam= 0.597 trial= 0.475  step= 0.509 mean= 0.475
 gam= 0.488 g(H,U,f)=  0.234E-01 0.489E-02-0.259-132 ort(H,U,f) =-0.182E-03 0.116E-03-0.472-133
CGA:  29    -0.938902671476E+03   -0.14752E-01   -0.14754E-01   625   0.283E-01-0.655E-04
 gam= 0.488 trial= 0.476  step= 0.522 mean= 0.476
 gam= 0.536 g(H,U,f)=  0.118E-01 0.334E-02-0.764-132 ort(H,U,f) =-0.836E-03 0.899E-03-0.123-131
CGA:  30    -0.938910058326E+03   -0.73869E-02   -0.73855E-02   625   0.152E-01 0.629E-04
 gam= 0.536 trial= 0.479  step= 0.579 mean= 0.479
 gam= 0.563 g(H,U,f)=  0.649E-02 0.206E-02 0.229-131 ort(H,U,f) =-0.159E-02 0.169E-02 0.819-131
CGA:  31    -0.938914465947E+03   -0.44076E-02   -0.44024E-02   625   0.855E-02 0.104E-03
 gam= 0.563 trial= 0.484  step= 0.581 mean= 0.484
 gam= 0.580 g(H,U,f)=  0.404E-02 0.923E-03-0.197-132 ort(H,U,f) =-0.131E-02 0.137E-02-0.137-131
CGA:  32    -0.938916969848E+03   -0.25039E-02   -0.25011E-02   625   0.496E-02 0.570E-04
 gam= 0.580 trial= 0.488  step= 0.606 mean= 0.488
 gam= 0.620 g(H,U,f)=  0.267E-02 0.406E-03-0.320E-20 ort(H,U,f) =-0.548E-03 0.555E-03-0.105E-18
CGA:  33    -0.938918483747E+03   -0.15139E-02   -0.15135E-02   625   0.307E-02 0.702E-05
 gam= 0.620 trial= 0.494  step= 0.548 mean= 0.494
 gam= 0.538 g(H,U,f)=  0.145E-02 0.200E-03-0.131E-18 ort(H,U,f) =-0.113E-03 0.107E-03 0.544E-18
CGA:  34    -0.938919326786E+03   -0.84304E-03   -0.84321E-03   625   0.165E-02-0.634E-05
 gam= 0.538 trial= 0.497  step= 0.530 mean= 0.497
 gam= 0.535 g(H,U,f)=  0.735E-03 0.150E-03-0.201E-18 ort(H,U,f) =-0.394E-05 0.406E-05 0.162E-18
CGA:  35    -0.938919764291E+03   -0.43750E-03   -0.43750E-03   625   0.885E-03 0.124E-06
 gam= 0.535 trial= 0.499  step= 0.554 mean= 0.499
 gam= 0.542 g(H,U,f)=  0.381E-03 0.990E-04-0.160E-18 ort(H,U,f) =-0.367E-04 0.371E-04-0.114E-18
CGA:  36    -0.938920009569E+03   -0.24528E-03   -0.24527E-03   625   0.480E-03 0.371E-06
 gam= 0.542 trial= 0.501  step= 0.582 mean= 0.501
 gam= 0.000 g(H,U,f)=  0.224E-03 0.586E-04-0.835-133 ort(H,U,f) =-0.501E-04 0.454E-04-0.186-132
SDA:  37    -0.938920148955E+03   -0.13939E-03   -0.13957E-03   625   0.283E-03-0.464E-05
 gam= 0.000 trial= 0.505  step= 0.912 mean= 0.505
 gam= 0.497 g(H,U,f)=  0.113E-03 0.271E-04-0.162-131 ort(H,U,f) =-0.385E-04 0.320E-04-0.209-131
CGA:  38    -0.938920276537E+03   -0.12758E-03   -0.12890E-03   625   0.140E-03-0.649E-05
 gam= 0.497 trial= 0.526  step= 0.657 mean= 0.526
 gam= 0.380 g(H,U,f)=  0.457E-04 0.761E-05-0.671-133 ort(H,U,f) =-0.245E-04 0.232E-04-0.236-132
CGA:  39    -0.938920321548E+03   -0.45011E-04   -0.45099E-04   625   0.533E-04-0.131E-05
 gam= 0.380 trial= 0.532  step= 0.621 mean= 0.532
 gam= 0.328 g(H,U,f)=  0.153E-04 0.213E-05 0.389-133 ort(H,U,f) =-0.542E-05 0.700E-05 0.262-132
CGA:  40    -0.938920338009E+03   -0.16461E-04   -0.16392E-04   625   0.175E-04 0.158E-05
 gam= 0.328 trial= 0.537  step= 0.642 mean= 0.537
 gam= 0.390 g(H,U,f)=  0.647E-05 0.335E-06-0.170-133 ort(H,U,f) =-0.224E-05 0.154E-05-0.108-132
CGA:  41    -0.938920343752E+03   -0.57426E-05   -0.57796E-05   625   0.681E-05-0.698E-06
 gam= 0.390 trial= 0.542  step= 0.637 mean= 0.542
 final diagonalization
   1 F= -.93892034E+03 E0= -.93890624E+03  d E =-.282095E-01
 writing wavefunctions
Warning: ieee_invalid is signaling
Warning: ieee_divide_by_zero is signaling
Warning: ieee_underflow is signaling
Warning: ieee_inexact is signaling
FORTRAN STOP
Warning: ieee_invalid is signaling
Warning: ieee_divide_by_zero is signaling
Warning: ieee_underflow is signaling
Warning: ieee_inexact is signaling
FORTRAN STOP
Warning: ieee_invalid is signaling
Warning: ieee_divide_by_zero is signaling
Warning: ieee_underflow is signaling
Warning: ieee_inexact is signaling
FORTRAN STOP
Warning: ieee_invalid is signaling
Warning: ieee_divide_by_zero is signaling
Warning: ieee_underflow is signaling
Warning: ieee_inexact is signaling
FORTRAN STOP
