       N       E                     dE             d eps       ncg     rms          ort
DAV:   1    -0.179514996371E+05   -0.17951E+05   -0.54358E+05  5064   0.751E+03
DAV:   2    -0.638418971233E+05   -0.45890E+05   -0.44133E+05  5064   0.127E+03
DAV:   3    -0.698704055987E+05   -0.60285E+04   -0.54195E+04  5064   0.398E+02
DAV:   4    -0.708431198093E+05   -0.97271E+03   -0.89430E+03  5064   0.137E+02
DAV:   5    -0.412411117150E+05    0.29602E+05   -0.68398E+02  5064   0.590E+01
SDA:   6     0.417524464324E+05    0.82994E+05   -0.68398E+02  5064   0.103E+06 0.000E+00
CGA:   7     0.221310195123E+05   -0.19621E+05   -0.47424E+05  5064   0.955E+05-0.214E+05
CGA:   8     0.154699368942E+05   -0.66611E+04   -0.10202E+05  5064   0.570E+05 0.160E+05
CGA:   9     0.112832613766E+05   -0.41867E+04   -0.71577E+04  5064   0.301E+05 0.128E+05
CGA:  10     0.909355394337E+04   -0.21897E+04   -0.42181E+04  5064   0.474E+05 0.324E+04
CGA:  11     0.805363174586E+04   -0.10399E+04   -0.55262E+04  5064   0.353E+05 0.226E+05
CGA:  12     0.675144720322E+04   -0.13022E+04   -0.50994E+04  5064   0.209E+05 0.206E+05
CGA:  13     0.410505598678E+04   -0.26464E+04   -0.28468E+04  5064   0.169E+05 0.972E+03
CGA:  14     0.213378433009E+04   -0.19713E+04   -0.23812E+04  5064   0.336E+04 0.209E+04
CGA:  15     0.695273879348E+03   -0.14385E+04   -0.13557E+04  5064   0.179E+04 0.442E+03
CGA:  16    -0.125224209888E+03   -0.82050E+03   -0.78528E+03  5064   0.125E+04 0.744E+02
CGA:  17    -0.431702251546E+03   -0.30648E+03   -0.31548E+03  5064   0.749E+03-0.177E+03
CGA:  18    -0.560668910611E+03   -0.12897E+03   -0.12890E+03  5064   0.429E+03-0.189E+02
CGA:  19    -0.644301832374E+03   -0.83633E+02   -0.83776E+02  5064   0.244E+03 0.153E+02
CGA:  20    -0.707492650756E+03   -0.63191E+02   -0.62662E+02  5064   0.160E+03 0.109E+02
CGA:  21    -0.753802173837E+03   -0.46310E+02   -0.45728E+02  5064   0.113E+03 0.933E+01
CGA:  22    -0.787417535030E+03   -0.33615E+02   -0.33215E+02  5064   0.768E+02 0.694E+01
CGA:  23    -0.808633183649E+03   -0.21216E+02   -0.21040E+02  5064   0.473E+02 0.456E+01
CGA:  24    -0.820436621677E+03   -0.11803E+02   -0.11741E+02  5064   0.264E+02 0.313E+01
CGA:  25    -0.827197932397E+03   -0.67613E+01   -0.67211E+01  5064   0.160E+02 0.156E+01
CGA:  26    -0.831684881596E+03   -0.44869E+01   -0.44480E+01  5064   0.109E+02 0.732E+00
CGA:  27    -0.834798381828E+03   -0.31135E+01   -0.30955E+01  5064   0.731E+01 0.287E+00
CGA:  28    -0.836818587950E+03   -0.20202E+01   -0.20189E+01  5064   0.485E+01 0.335E-01
CGA:  29    -0.838106253292E+03   -0.12877E+01   -0.12878E+01  5064   0.326E+01 0.801E-02
CGA:  30    -0.838926656000E+03   -0.82040E+00   -0.82005E+00  5064   0.201E+01 0.179E-01
CGA:  31    -0.839448989026E+03   -0.52233E+00   -0.52202E+00  5064   0.131E+01 0.123E-01
CGA:  32    -0.839808265941E+03   -0.35928E+00   -0.35900E+00  5064   0.889E+00 0.783E-02
CGA:  33    -0.840059617913E+03   -0.25135E+00   -0.25114E+00  5064   0.620E+00 0.490E-02
CGA:  34    -0.840232144277E+03   -0.17253E+00   -0.17239E+00  5064   0.430E+00 0.362E-02
CGA:  35    -0.840347878920E+03   -0.11573E+00   -0.11566E+00  5064   0.296E+00 0.264E-02
CGA:  36    -0.840423274592E+03   -0.75396E-01   -0.75369E-01  5064   0.201E+00 0.175E-02
CGA:  37    -0.840472955798E+03   -0.49681E-01   -0.49674E-01  5064   0.134E+00 0.109E-02
CGA:  38    -0.840506762418E+03   -0.33807E-01   -0.33798E-01  5064   0.905E-01 0.635E-03
CGA:  39    -0.840531058648E+03   -0.24296E-01   -0.24286E-01  5064   0.615E-01 0.331E-03
CGA:  40    -0.840547936669E+03   -0.16878E-01   -0.16874E-01  5064   0.402E-01 0.108E-03
CGA:  41    -0.840559165430E+03   -0.11229E-01   -0.11229E-01  5064   0.275E-01-0.232E-05
CGA:  42    -0.840566797768E+03   -0.76323E-02   -0.76333E-02  5064   0.192E-01-0.283E-04
SDA:  43    -0.840571914894E+03   -0.51171E-02   -0.51175E-02  5064   0.131E-01-0.159E-04
CGA:  44    -0.840579710844E+03   -0.77960E-02   -0.77869E-02  5064   0.689E-02 0.260E-04
CGA:  45    -0.840582454809E+03   -0.27440E-02   -0.27458E-02  5064   0.175E-02-0.138E-04
CGA:  46    -0.840583084722E+03   -0.62991E-03   -0.63068E-03  5064   0.541E-03-0.846E-05
CGA:  47    -0.840583265797E+03   -0.18108E-03   -0.18123E-03  5064   0.154E-03-0.254E-05
CGA:  48    -0.840583314999E+03   -0.49201E-04   -0.49172E-04  5064   0.444E-04 0.624E-06
CGA:  49    -0.840583332158E+03   -0.17160E-04   -0.17118E-04  5064   0.205E-04 0.393E-06
CGA:  50    -0.840583340824E+03   -0.86655E-05   -0.87302E-05  5064   0.101E-04-0.492E-06
   1 F= -.84058334E+03 E0= -.84057977E+03  d E =-.714831E-02
