 vasp.6.4.2 20Jul23 (build Nov 12 2023 22:16:35) complex                         
 executed on              LinuxNV date 2025.03.29  16:32:36
 running    4 mpi-ranks, on    1 nodes
 distrk:  each k-point on    1 cores,    4 groups
 distr:  one band on NCORE=   1 cores,    1 groups
 OpenACC runtime initialized ...    4 GPUs detected


--------------------------------------------------------------------------------------------------------


 INCAR:
   PREC = Normal
   ENCUT = 450
   NELM = 500
   IBRION = -1
   ISPIN = 1
   NSW = 0
   ISIF = 2
   EDIFF = 1E-5
   EDIFFG = -5E-3
   ISTART = 0
   ICHARG = 0
   ISMEAR = 0
   SIGMA = 0.05
   LWAVE = .T.
   LCHARG = .T.
   LREAL = Auto
   LPLANE = .TRUE.
   NPAR = 1
   KPAR = 4
   NCORE = 1
   ALGO = All
   LHFCALC = .TRUE.
   HSE06 = .TRUE.
   HFSCREEN = 0.2
   TIME = 0.4
   AEXX = 0.32
   LMAXFOCK = 4
   PRECFOCK = Fast
   NELECT = 1043

 POTCAR:    PAW_PBE Ga_d 06Jul2010                
 POTCAR:     PAW_PBE O 08Apr2002                  
 POTCAR:    PAW_PBE P 06Sep2000                   
 POTCAR:    PAW_PBE Ga_d 06Jul2010                
   SHA256 =  a60ddf36e14f00ea098d9e3914b3745f1b7105e68786148f49ae384e44b4226c Ga_d/POTCAR           
   COPYR  = (c) Copyright 06Jul2010 Georg Kresse                                                    
   COPYR  = This file is part of the software VASP. Any use, copying, and all other rights are regul
   COPYR  = If you do not have a valid VASP license, you may not use, copy or distribute this file. 
   VRHFIN =Ga: s2p1                                                                                 
   LEXCH  = PE                                                                                      
   EATOM  =  2148.8298 eV,  157.9345 Ry                                                             
                                                                                                    
   TITEL  = PAW_PBE Ga_d 06Jul2010                                                                  
   LULTRA =        F    use ultrasoft PP ?                                                          
   IUNSCR =        1    unscreen: 0-lin 1-nonlin 2-no                                               
   RPACOR =    1.700    partial core radius                                                         
   POMASS =   69.723; ZVAL   =   13.000    mass and valenz                                          
   RCORE  =    2.300    outmost cutoff radius                                                       
   RWIGS  =    2.300; RWIGS  =    1.217    wigner-seitz radius (au A)                               
   ENMAX  =  282.691; ENMIN  =  212.018 eV                                                          
   ICORE  =        3    local potential                                                             
   LCOR   =        T    correct aug charges                                                         
   LPAW   =        T    paw PP                                                                      
   EAUG   =  490.690                                                                                
   DEXC   =    0.000                                                                                
   RMAX   =    2.341    core radius for proj-oper                                                   
   RAUG   =    1.300    factor for augmentation sphere                                              
   RDEP   =    2.413    radius for radial grids                                                     
   RDEPT  =    1.856    core radius for aug-charge                                                  
                                                                                                    
   Atomic configuration                                                                             
    9 entries                                                                                       
     n  l   j            E        occ.                                                              
     1  0  0.50    -10228.7831   2.0000                                                             
     2  0  0.50     -1262.1604   2.0000                                                             
     2  1  1.50     -1098.6333   6.0000                                                             
     3  0  0.50      -148.1110   2.0000                                                             
     3  1  1.50       -98.8436   6.0000                                                             
     3  2  2.50       -19.1549  10.0000                                                             
     4  0  0.50        -8.9483   2.0000                                                             
     4  1  0.50        -2.5791   1.0000                                                             
     4  3  2.50        -2.7416   0.0000                                                             
   Description                                                                                      
     l       E           TYP  RCUT    TYP  RCUT                                                     
     2    -19.1549037     23  2.300                                                                 
     2     -5.4423304     23  2.300                                                                 
     0     -8.9483111     23  2.300                                                                 
     0     68.0291300     23  2.300                                                                 
     1     -2.5790802     23  2.100                                                                 
     1     81.6349560     23  2.300                                                                 
     3      6.8029130     23  2.300                                                                 
  local pseudopotential read in
  partial core-charges read in
  partial kinetic energy density read in
  atomic valenz-charges read in
  non local Contribution for L=            2  read in
    real space projection operators read in
  non local Contribution for L=            2  read in
    real space projection operators read in
  non local Contribution for L=            0  read in
    real space projection operators read in
  non local Contribution for L=            0  read in
    real space projection operators read in
  non local Contribution for L=            1  read in
    real space projection operators read in
  non local Contribution for L=            1  read in
    real space projection operators read in
    PAW grid and wavefunctions read in
 
   number of l-projection  operators is LMAX  =            6
   number of lm-projection operators is LMMAX =           18
 
 POTCAR:     PAW_PBE O 08Apr2002                  
   SHA256 =  818f92134a0a090dccd8ba1447fa70422a3b330e708bb4f08108d8ae51209ddf O/POTCAR              
   COPYR  = (c) Copyright 08Apr2002 Georg Kresse                                                    
   COPYR  = This file is part of the software VASP. Any use, copying, and all other rights are regul
   COPYR  = If you do not have a valid VASP license, you may not use, copy or distribute this file. 
   VRHFIN =O: s2p4                                                                                  
   LEXCH  = PE                                                                                      
   EATOM  =   432.3788 eV,   31.7789 Ry                                                             
                                                                                                    
   TITEL  = PAW_PBE O 08Apr2002                                                                     
   LULTRA =        F    use ultrasoft PP ?                                                          
   IUNSCR =        1    unscreen: 0-lin 1-nonlin 2-no                                               
   RPACOR =    1.200    partial core radius                                                         
   POMASS =   16.000; ZVAL   =    6.000    mass and valenz                                          
   RCORE  =    1.520    outmost cutoff radius                                                       
   RWIGS  =    1.550; RWIGS  =    0.820    wigner-seitz radius (au A)                               
   ENMAX  =  400.000; ENMIN  =  300.000 eV                                                          
   ICORE  =        2    local potential                                                             
   LCOR   =        T    correct aug charges                                                         
   LPAW   =        T    paw PP                                                                      
   EAUG   =  605.392                                                                                
   DEXC   =    0.000                                                                                
   RMAX   =    1.553    core radius for proj-oper                                                   
   RAUG   =    1.300    factor for augmentation sphere                                              
   RDEP   =    1.550    radius for radial grids                                                     
   RDEPT  =    1.329    core radius for aug-charge                                                  
                                                                                                    
   Atomic configuration                                                                             
    4 entries                                                                                       
     n  l   j            E        occ.                                                              
     1  0  0.50      -514.6923   2.0000                                                             
     2  0  0.50       -23.9615   2.0000                                                             
     2  1  0.50        -9.0305   4.0000                                                             
     3  2  1.50        -9.5241   0.0000                                                             
   Description                                                                                      
     l       E           TYP  RCUT    TYP  RCUT                                                     
     0    -23.9615318     23  1.200                                                                 
     0     -9.5240782     23  1.200                                                                 
     1     -9.0304911     23  1.520                                                                 
     1      8.1634956     23  1.520                                                                 
     2     -9.5240782      7  1.500                                                                 
  local pseudopotential read in
  partial core-charges read in
  partial kinetic energy density read in
  kinetic energy density of atom read in
  atomic valenz-charges read in
  non local Contribution for L=            0  read in
    real space projection operators read in
  non local Contribution for L=            0  read in
    real space projection operators read in
  non local Contribution for L=            1  read in
    real space projection operators read in
  non local Contribution for L=            1  read in
    real space projection operators read in
    PAW grid and wavefunctions read in
 
   number of l-projection  operators is LMAX  =            4
   number of lm-projection operators is LMMAX =            8
 
 POTCAR:    PAW_PBE P 06Sep2000                   
   SHA256 =  df60c54a93efe35c9e85ae94c010c75e9f6960a95d5595d7cdba4096d109af88 P/POTCAR              
   COPYR  = (c) Copyright 06Sep2000 Georg Kresse                                                    
   COPYR  = This file is part of the software VASP. Any use, copying, and all other rights are regul
   COPYR  = If you do not have a valid VASP license, you may not use, copy or distribute this file. 
   VRHFIN =P : s2p3                                                                                 
   LEXCH  = PE                                                                                      
   EATOM  =   176.0430 eV,   12.9388 Ry                                                             
                                                                                                    
   TITEL  = PAW_PBE P 06Sep2000                                                                     
   LULTRA =        F    use ultrasoft PP ?                                                          
   IUNSCR =        1    unscreen: 0-lin 1-nonlin 2-no                                               
   RPACOR =    1.500    partial core radius                                                         
   POMASS =   30.974; ZVAL   =    5.000    mass and valenz                                          
   RCORE  =    1.900    outmost cutoff radius                                                       
   RWIGS  =    2.330; RWIGS  =    1.233    wigner-seitz radius (au A)                               
   ENMAX  =  255.040; ENMIN  =  191.280 eV                                                          
   ICORE  =        2    local potential                                                             
   LCOR   =        T    correct aug charges                                                         
   LPAW   =        T    paw PP                                                                      
   EAUG   =  342.924                                                                                
   DEXC   =    0.000                                                                                
   RMAX   =    1.935    core radius for proj-oper                                                   
   RAUG   =    1.300    factor for augmentation sphere                                              
   RDEP   =    1.931    radius for radial grids                                                     
   RDEPT  =    1.794    core radius for aug-charge                                                  
                                                                                                    
   Atomic configuration                                                                             
    6 entries                                                                                       
     n  l   j            E        occ.                                                              
     1  0  0.50     -2084.0982   2.0000                                                             
     2  0  0.50      -173.9859   2.0000                                                             
     2  1  1.50      -124.4865   6.0000                                                             
     3  0  0.50       -13.9692   2.0000                                                             
     3  1  0.50        -5.5067   3.0000                                                             
     3  2  1.50        -5.4423   0.0000                                                             
   Description                                                                                      
     l       E           TYP  RCUT    TYP  RCUT                                                     
     0    -13.9691527     23  1.900                                                                 
     0    -11.7794650     23  1.900                                                                 
     1     -5.5066937     23  1.900                                                                 
     1     -0.2556953     23  1.900                                                                 
     2     -5.4423304     23  1.900                                                                 
  local pseudopotential read in
  partial core-charges read in
  partial kinetic energy density read in
  atomic valenz-charges read in
  non local Contribution for L=            0  read in
    real space projection operators read in
  non local Contribution for L=            0  read in
    real space projection operators read in
  non local Contribution for L=            1  read in
    real space projection operators read in
  non local Contribution for L=            1  read in
    real space projection operators read in
    PAW grid and wavefunctions read in
 
   number of l-projection  operators is LMAX  =            4
   number of lm-projection operators is LMMAX =            8
 
 Optimization of the real space projectors (new method)

 maximal supplied QI-value         = 16.25
 optimisation between [QCUT,QGAM] = [ 10.73, 21.61] = [ 32.22,130.83] Ry 
 Optimized for a Real-space Cutoff    1.42 Angstroem

   l    n(q)    QCUT    max X(q) W(low)/X(q) W(high)/X(q)  e(spline) 
   2      8    10.726     7.143    0.22E-03    0.16E-03    0.73E-07
   2      8    10.726     5.586    0.40E-03    0.26E-03    0.10E-06
   0      9    10.726    12.382    0.25E-04    0.21E-05    0.37E-07
   0      9    10.726     6.622    0.42E-04    0.48E-05    0.77E-07
   1      9    10.726     7.935    0.27E-03    0.13E-04    0.16E-06
   1      9    10.726     2.425    0.23E-03    0.15E-04    0.14E-06
 Optimization of the real space projectors (new method)

 maximal supplied QI-value         = 24.76
 optimisation between [QCUT,QGAM] = [ 10.64, 21.54] = [ 31.73,129.89] Ry 
 Optimized for a Real-space Cutoff    1.23 Angstroem

   l    n(q)    QCUT    max X(q) W(low)/X(q) W(high)/X(q)  e(spline) 
   0      8    10.645    20.381    0.38E-03    0.60E-03    0.15E-06
   0      8    10.645    15.268    0.40E-03    0.65E-03    0.17E-06
   1      7    10.645     5.964    0.30E-03    0.63E-03    0.18E-06
   1      7    10.645     5.382    0.24E-03    0.53E-03    0.16E-06
 Optimization of the real space projectors (new method)

 maximal supplied QI-value         = 19.84
 optimisation between [QCUT,QGAM] = [ 10.71, 21.63] = [ 32.15,130.99] Ry 
 Optimized for a Real-space Cutoff    1.19 Angstroem

   l    n(q)    QCUT    max X(q) W(low)/X(q) W(high)/X(q)  e(spline) 
   0      8    10.715   160.924    0.37E-03    0.37E-04    0.63E-07
   0      8    10.715   130.086    0.37E-03    0.36E-04    0.63E-07
   1      7    10.715    74.434    0.19E-03    0.56E-03    0.65E-07
   1      7    10.715    49.120    0.19E-03    0.55E-03    0.63E-07
  PAW_PBE Ga_d 06Jul2010                :
 energy of atom  1       EATOM=-2148.8298
 kinetic energy error for atom=    0.0038 (will be added to EATOM!!)
   PAW_PBE O 08Apr2002                  :
 energy of atom  2       EATOM= -432.3788
 kinetic energy error for atom=    0.0389 (will be added to EATOM!!)
  PAW_PBE P 06Sep2000                   :
 energy of atom  3       EATOM= -176.0430
 kinetic energy error for atom=    0.0019 (will be added to EATOM!!)
 
 
 POSCAR: Ga48 O72
  positions in direct lattice
  velocities in cartesian coordinates
 exchange correlation table for  LEXCH =        8
   RHO(1)=    0.500       N(1)  =     2000
   RHO(2)=  100.500       N(2)  =     4000
 


--------------------------------------------------------------------------------------------------------


 ion  position               nearest neighbor table
   1  0.658  0.000  0.156-  84 1.94  82 1.95  78 1.95  66 2.04  60 2.09  64 2.09
   2  0.660  0.000  0.657-  85 1.94  83 1.96  79 1.96  67 2.01  61 2.08  65 2.08
   3  0.659  0.333  0.158-  86 1.95  80 1.95  78 1.95  68 2.06  60 2.07  62 2.09
   4  0.660  0.334  0.657-  87 1.94  79 1.96  81 1.96  69 2.02  63 2.07  61 2.08
   5  0.659  0.667  0.158-  88 1.95  80 1.95  82 1.95  70 2.06  64 2.07  62 2.09
   6  0.660  0.666  0.657-  89 1.94  83 1.96  81 1.96  71 2.02  63 2.07  65 2.08
   7  0.839  0.164  0.342-  74 1.93  72 1.94  60 2.00  66 2.04  68 2.06  90 2.13
   8  0.840  0.167  0.844-  91 1.94  75 1.95  73 1.95  61 2.01  67 2.07  69 2.08
   9  0.844  0.500  0.344-  92 1.95  76 1.96  74 1.96  62 2.02  70 2.08  68 2.08
  10  0.841  0.500  0.844-  93 1.94  77 1.95  75 1.95  63 2.02  71 2.07  69 2.07
  11  0.839  0.836  0.342-  76 1.93  72 1.94  64 2.00  66 2.04  70 2.06  94 2.13
  12  0.840  0.833  0.844-  95 1.94  77 1.95  73 1.95  65 2.01  67 2.07  71 2.08
  13  0.591  0.167  0.399-  79 1.84  54 1.85  56 1.85  60 1.87
  14  0.592  0.167  0.899-  78 1.84  55 1.85  57 1.85  61 1.87
  15  0.590  0.500  0.398-  81 1.84  58 1.85  56 1.85  62 1.88
  16  0.593  0.500  0.899-  80 1.85  59 1.85  57 1.85  63 1.88
  17  0.591  0.833  0.399-  83 1.84  54 1.85  58 1.85  64 1.87
  18  0.592  0.833  0.899-  82 1.84  55 1.85  59 1.85  65 1.87
  19  0.910  0.000  0.103-  73 1.84  52 1.85  48 1.85  66 1.88
  20  0.907  0.000  0.603-  49 1.84  53 1.84  72 1.84  67 1.87
  21  0.908  0.334  0.101-  75 1.83  50 1.85  48 1.85  68 1.87
  22  0.911  0.333  0.605-  74 1.84  51 1.85  49 1.85  69 1.87
  23  0.908  0.666  0.101-  77 1.83  50 1.85  52 1.85  70 1.87
  24  0.911  0.667  0.605-  76 1.84  51 1.85  53 1.85  71 1.87
  25  0.157  0.171  0.155-  48 1.93 115 1.93 114 1.93 102 2.01  98 2.05  96 2.19
  26  0.160  0.161  0.661-  49 1.94 116 1.98 103 2.03  99 2.07  97 2.08
  27  0.159  0.500  0.156-  50 1.94 115 1.95 117 1.95 104 2.01 100 2.09  98 2.09
  28  0.160  0.500  0.657-  51 1.94 116 1.97 118 1.97 105 2.01 101 2.08  99 2.08
  29  0.157  0.829  0.155-  52 1.93 117 1.93 114 1.93 106 2.01 100 2.05  96 2.19
  30  0.160  0.839  0.661-  53 1.94 118 1.98 107 2.03 101 2.07  97 2.08
  31  0.343  0.000  0.347-  54 1.93 108 1.95 112 1.95 102 2.05 106 2.05  96 2.17
  32  0.343  0.000  0.848-  55 1.94 109 1.95 113 1.95  97 2.02 103 2.08 107 2.08
  33  0.340  0.333  0.345-  56 1.94 110 1.95 108 1.97  98 2.03 104 2.08 102 2.09
  34  0.341  0.333  0.845-  57 1.94 111 1.95 109 1.95  99 2.02 105 2.09 103 2.10
  35  0.340  0.667  0.345-  58 1.94 110 1.95 112 1.97 100 2.03 104 2.08 106 2.09
  36  0.341  0.667  0.845-  59 1.94 111 1.95 113 1.95 101 2.02 105 2.09 107 2.10
  37  0.089  0.000  0.903-  91 1.85  95 1.85 114 1.85  97 1.87
  38  0.093  0.329  0.399- 116 1.83  98 1.86  92 1.87  90 1.95
  39  0.091  0.334  0.897- 115 1.85  93 1.85  91 1.85  99 1.87
  40  0.093  0.671  0.399- 118 1.83 100 1.86  92 1.87  94 1.95
  41  0.091  0.666  0.897- 117 1.85  93 1.85  95 1.85 101 1.87
  42  0.408  0.167  0.105- 109 1.84  84 1.85  86 1.85 102 1.89
  43  0.411  0.167  0.605-  87 1.84  85 1.85 108 1.85 103 1.87
  44  0.408  0.500  0.104- 111 1.84  88 1.85  86 1.85 104 1.88
  45  0.409  0.500  0.603- 110 1.85  89 1.85  87 1.85 105 1.87
  46  0.408  0.833  0.105- 113 1.84  84 1.85  88 1.85 106 1.89
  47  0.411  0.833  0.605-  89 1.84  85 1.85 112 1.85 107 1.87
  48  0.996  0.168  0.129-  21 1.85  19 1.85  25 1.93
  49  0.997  0.165  0.627-  20 1.84  22 1.85  26 1.94
  50  0.997  0.500  0.127-  21 1.85  23 1.85  27 1.94
  51  0.998  0.500  0.629-  22 1.85  24 1.85  28 1.94
  52  0.996  0.832  0.129-  23 1.85  19 1.85  29 1.93
  53  0.997  0.835  0.627-  20 1.84  24 1.85  30 1.94
  54  0.504  0.000  0.374-  13 1.85  17 1.85  31 1.93
  55  0.505  0.000  0.875-  14 1.85  18 1.85  32 1.94
  56  0.502  0.333  0.374-  13 1.85  15 1.85  33 1.94
  57  0.504  0.334  0.874-  14 1.85  16 1.85  34 1.94
  58  0.502  0.667  0.374-  17 1.85  15 1.85  35 1.94
  59  0.504  0.666  0.874-  18 1.85  16 1.85  36 1.94
  60  0.673  0.167  0.282-  13 1.87   7 2.00   3 2.07   1 2.09
  61  0.673  0.167  0.781-  14 1.87   8 2.01   2 2.08   4 2.08
  62  0.676  0.500  0.284-  15 1.88   9 2.02   3 2.09   5 2.09
  63  0.673  0.500  0.780-  16 1.88  10 2.02   4 2.07   6 2.07
  64  0.673  0.833  0.282-  17 1.87  11 2.00   5 2.07   1 2.09
  65  0.673  0.833  0.781-  18 1.87  12 2.01   2 2.08   6 2.08
  66  0.828  0.000  0.221-  19 1.88  11 2.04   7 2.04   1 2.04
  67  0.827  0.000  0.721-  20 1.87   2 2.01  12 2.07   8 2.07
  68  0.831  0.331  0.222-  21 1.87   3 2.06   7 2.06   9 2.08
  69  0.828  0.333  0.720-  22 1.87   4 2.02  10 2.07   8 2.08
  70  0.831  0.669  0.222-  23 1.87   5 2.06  11 2.06   9 2.08
  71  0.828  0.667  0.720-  24 1.87   6 2.02  10 2.07  12 2.08
  72  0.832  0.000  0.446-  20 1.84  11 1.94   7 1.94
  73  0.832  0.000  0.947-  19 1.84  12 1.95   8 1.95
  74  0.843  0.330  0.445-  22 1.84   7 1.93   9 1.96
  75  0.830  0.334  0.946-  21 1.83   8 1.95  10 1.95
  76  0.843  0.670  0.445-  24 1.84  11 1.93   9 1.96
  77  0.830  0.666  0.946-  23 1.83  12 1.95  10 1.95
  78  0.669  0.167  0.056-  14 1.84   1 1.95   3 1.95
  79  0.670  0.167  0.555-  13 1.84   4 1.96   2 1.96
  80  0.669  0.500  0.056-  16 1.85   5 1.95   3 1.95
  81  0.671  0.500  0.553-  15 1.84   6 1.96   4 1.96
  82  0.669  0.833  0.056-  18 1.84   1 1.95   5 1.95
  83  0.670  0.833  0.555-  17 1.84   6 1.96   2 1.96
  84  0.496  0.000  0.130-  42 1.85  46 1.85   1 1.94
  85  0.498  0.000  0.627-  43 1.85  47 1.85   2 1.94
  86  0.496  0.334  0.130-  42 1.85  44 1.85   3 1.95
  87  0.498  0.334  0.627-  43 1.84  45 1.85   4 1.94
  88  0.496  0.666  0.130-  46 1.85  44 1.85   5 1.95
  89  0.498  0.666  0.627-  47 1.84  45 1.85   6 1.94
  90  0.017  0.141  0.373- 119 1.65  38 1.95   7 2.13
  91  0.003  0.167  0.875-  37 1.85  39 1.85   8 1.94
  92  0.007  0.500  0.373-  38 1.87  40 1.87   9 1.95
  93  0.004  0.500  0.874-  39 1.85  41 1.85  10 1.94
  94  0.017  0.859  0.373- 119 1.65  40 1.95  11 2.13
  95  0.003  0.833  0.875-  37 1.85  41 1.85  12 1.94
  96  0.161  0.000  0.288- 119 1.66  31 2.17  25 2.19  29 2.19
  97  0.175  0.000  0.790-  37 1.87  32 2.02  26 2.08  30 2.08
  98  0.171  0.332  0.281-  38 1.86  33 2.03  25 2.05  27 2.09
  99  0.173  0.332  0.781-  39 1.87  34 2.02  26 2.07  28 2.08
 100  0.171  0.668  0.281-  40 1.86  35 2.03  29 2.05  27 2.09
 101  0.173  0.668  0.781-  41 1.87  36 2.02  30 2.07  28 2.08
 102  0.324  0.163  0.222-  42 1.89  25 2.01  31 2.05  33 2.09
 103  0.329  0.164  0.721-  43 1.87  26 2.03  32 2.08  34 2.10
 104  0.326  0.500  0.221-  44 1.88  27 2.01  35 2.08  33 2.08
 105  0.327  0.500  0.720-  45 1.87  28 2.01  36 2.09  34 2.09
 106  0.324  0.837  0.222-  46 1.89  29 2.01  31 2.05  35 2.09
 107  0.329  0.836  0.721-  47 1.87  30 2.03  32 2.08  36 2.10
 108  0.331  0.165  0.448-  43 1.85  31 1.95  33 1.97
 109  0.333  0.168  0.948-  42 1.84  32 1.95  34 1.95
 110  0.329  0.500  0.447-  45 1.85  35 1.95  33 1.95
 111  0.332  0.500  0.947-  44 1.84  36 1.95  34 1.95
 112  0.331  0.835  0.448-  47 1.85  31 1.95  35 1.97
 113  0.333  0.832  0.948-  46 1.84  32 1.95  36 1.95
 114  0.166  0.000  0.060-  37 1.85  29 1.93  25 1.93
 115  0.169  0.334  0.054-  39 1.85  25 1.93  27 1.95
 116  0.167  0.329  0.555-  38 1.83  28 1.97  26 1.98
 117  0.169  0.666  0.054-  41 1.85  29 1.93  27 1.95
 118  0.167  0.671  0.555-  40 1.83  28 1.97  30 1.98
 119  0.103  0.000  0.403-  90 1.65  94 1.65  96 1.66
 
  LATTYP: Found a simple monoclinic cell.
 ALAT       =    11.6348202465
 B/A-ratio  =     0.7858051831
 C/A-ratio  =     1.0554931797
 COS(beta)  =    -0.2379290539
  
  Lattice vectors:
  
 A1 = (   0.0000000000,  -2.7682617730, -11.3006977184)
 A2 = (  -9.1427020537,   0.0000000000,   0.0000000000)
 A3 = (   0.0000000000,  12.2804734172,   0.0000000000)


Analysis of symmetry for initial positions (statically):
=====================================================================
 Subroutine PRICEL returns:
 Original cell was already a primitive cell.
 

 Routine SETGRP: Setting up the symmetry group for a 
 simple monoclinic supercell.


 Subroutine GETGRP returns: Found  2 space group operations
 (whereof  2 operations were pure point group operations)
 out of a pool of  4 trial point group operations.


The static configuration has the point symmetry C_1h.


Analysis of symmetry for dynamics (positions and initial velocities):
=====================================================================
 Subroutine PRICEL returns:
 Original cell was already a primitive cell.
 

 Routine SETGRP: Setting up the symmetry group for a 
 simple monoclinic supercell.


 Subroutine GETGRP returns: Found  2 space group operations
 (whereof  2 operations were pure point group operations)
 out of a pool of  4 trial point group operations.


The dynamic configuration has the point symmetry C_1h.


 Subroutine INISYM returns: Found  2 space group operations
 (whereof  2 operations are pure point group operations),
 and found     1 'primitive' translations


----------------------------------------------------------------------------------------

                                     Primitive cell                                     

  volume of cell :    1268.8052

  direct lattice vectors                    reciprocal lattice vectors
     0.000000000 12.280473417  0.000000000     0.000000000  0.081430085 -0.019947423
     9.142702054  0.000000000  0.000000000     0.109376855 -0.000000000  0.000000000
     0.000000000 -2.768261773-11.300697718     0.000000000  0.000000000 -0.088490111

  length of vectors
    12.280473417  9.142702054 11.634820246     0.083837691  0.109376855  0.088490111

  position of ions in fractional coordinates (direct lattice)
     0.657636082  0.000000000  0.156005158
     0.660216863  0.000000000  0.657260150
     0.659332389  0.333340808  0.158164523
     0.660314628  0.333798100  0.656920191
     0.659332389  0.666659192  0.158164523
     0.660314628  0.666201900  0.656920191
     0.839405665  0.163619016  0.342466726
     0.840184744  0.166747593  0.844499790
     0.844199804  0.500000000  0.343627768
     0.840890691  0.500000000  0.843641274
     0.839405665  0.836380984  0.342466726
     0.840184744  0.833252407  0.844499790
     0.591376816  0.167128742  0.398999092
     0.591985663  0.167246880  0.898609657
     0.590437183  0.500000000  0.397944516
     0.592569139  0.500000000  0.898931947
     0.591376816  0.832871258  0.398999092
     0.591985663  0.832753120  0.898609657
     0.909521643  0.000000000  0.103285387
     0.907244049  0.000000000  0.603447001
     0.908135246  0.334034710  0.101308371
     0.910772042  0.333000031  0.604744993
     0.908135246  0.665965290  0.101308371
     0.910772042  0.666999969  0.604744993
     0.157489143  0.170792749  0.155474148
     0.159584085  0.161434836  0.660886026
     0.158832413  0.500000000  0.156353164
     0.159954694  0.500000000  0.657119216
     0.157489143  0.829207251  0.155474148
     0.159584085  0.838565164  0.660886026
     0.342914386  0.000000000  0.346671240
     0.343039867  0.000000000  0.847795911
     0.340033547  0.333241137  0.345458865
     0.341391374  0.333313836  0.845251843
     0.340033547  0.666758863  0.345458865
     0.341391374  0.666686164  0.845251843
     0.089398733  0.000000000  0.902744085
     0.092726509  0.329253295  0.399228127
     0.091448747  0.333560196  0.897206080
     0.092726509  0.670746705  0.399228127
     0.091448747  0.666439804  0.897206080
     0.408299305  0.167018798  0.105475814
     0.411024334  0.166955631  0.604541546
     0.408081027  0.500000000  0.103610281
     0.409122597  0.500000000  0.603411259
     0.408299305  0.832981202  0.105475814
     0.411024334  0.833044369  0.604541546
     0.996235220  0.167719298  0.128823752
     0.996711472  0.164523606  0.627231862
     0.996683612  0.500000000  0.126677194
     0.998020199  0.500000000  0.628885236
     0.996235220  0.832280702  0.128823752
     0.996711472  0.835476394  0.627231862
     0.504076048  0.000000000  0.374346392
     0.504807694  0.000000000  0.874864032
     0.502255166  0.333111106  0.373787654
     0.503879956  0.333816061  0.873640211
     0.502255166  0.666888894  0.373787654
     0.503879956  0.666183939  0.873640211
     0.672683291  0.167284526  0.281580984
     0.672606200  0.167025772  0.780655683
     0.675760800  0.500000000  0.283554016
     0.672798590  0.500000000  0.780268786
     0.672683291  0.832715474  0.281580984
     0.672606200  0.832974228  0.780655683
     0.827666841  0.000000000  0.220726057
     0.827414394  0.000000000  0.721249238
     0.830545767  0.330770622  0.221862751
     0.828275364  0.333373082  0.720385155
     0.830545767  0.669229378  0.221862751
     0.828275364  0.666626918  0.720385155
     0.832096681  0.000000000  0.446028553
     0.831894058  0.000000000  0.947233620
     0.843073029  0.330088823  0.445371384
     0.830072423  0.333779610  0.945851955
     0.843073029  0.669911177  0.445371384
     0.830072423  0.666220390  0.945851955
     0.668593974  0.167091617  0.055603138
     0.670465886  0.167175711  0.554642102
     0.669407574  0.500000000  0.056397120
     0.671077919  0.500000000  0.553493762
     0.668593974  0.832908383  0.055603138
     0.670465886  0.832824289  0.554642102
     0.495884082  0.000000000  0.130016021
     0.498275604  0.000000000  0.626932628
     0.496433798  0.333576957  0.130308815
     0.497604536  0.334047316  0.626838460
     0.496433798  0.666423043  0.130308815
     0.497604536  0.665952684  0.626838460
     0.016631584  0.140979858  0.373285238
     0.002904424  0.167326660  0.874894649
     0.007216093  0.500000000  0.372547856
     0.003518648  0.500000000  0.873523425
     0.016631584  0.859020142  0.373285238
     0.002904424  0.832673340  0.874894649
     0.161079151  0.000000000  0.288251590
     0.174735803  0.000000000  0.789755808
     0.171310723  0.331692146  0.280512188
     0.173251434  0.331891531  0.780608170
     0.171310723  0.668307854  0.280512188
     0.173251434  0.668108469  0.780608170
     0.324241724  0.163148170  0.222201597
     0.328659808  0.163699435  0.720638132
     0.326160418  0.500000000  0.221128381
     0.326970947  0.500000000  0.719830628
     0.324241724  0.836851830  0.222201597
     0.328659808  0.836300565  0.720638132
     0.330966085  0.165383747  0.448284816
     0.332963586  0.167500797  0.948468360
     0.329459688  0.500000000  0.447224255
     0.331748875  0.500000000  0.946770778
     0.330966085  0.834616253  0.448284816
     0.332963586  0.832499203  0.948468360
     0.166228021  0.000000000  0.060076833
     0.169166161  0.334123781  0.053900045
     0.166634124  0.329369043  0.555341468
     0.169166161  0.665876219  0.053900045
     0.166634124  0.670630957  0.555341468
     0.103144749  0.000000000  0.403067714

  ion indices of the primitive-cell ions
   primitive index   ion index
                 1           1
                 2           2
                 3           3
                 4           4
                 5           5
                 6           6
                 7           7
                 8           8
                 9           9
                10          10
                11          11
                12          12
                13          13
                14          14
                15          15
                16          16
                17          17
                18          18
                19          19
                20          20
                21          21
                22          22
                23          23
                24          24
                25          25
                26          26
                27          27
                28          28
                29          29
                30          30
                31          31
                32          32
                33          33
                34          34
                35          35
                36          36
                37          37
                38          38
                39          39
                40          40
                41          41
                42          42
                43          43
                44          44
                45          45
                46          46
                47          47
                48          48
                49          49
                50          50
                51          51
                52          52
                53          53
                54          54
                55          55
                56          56
                57          57
                58          58
                59          59
                60          60
                61          61
                62          62
                63          63
                64          64
                65          65
                66          66
                67          67
                68          68
                69          69
                70          70
                71          71
                72          72
                73          73
                74          74
                75          75
                76          76
                77          77
                78          78
                79          79
                80          80
                81          81
                82          82
                83          83
                84          84
                85          85
                86          86
                87          87
                88          88
                89          89
                90          90
                91          91
                92          92
                93          93
                94          94
                95          95
                96          96
                97          97
                98          98
                99          99
               100         100
               101         101
               102         102
               103         103
               104         104
               105         105
               106         106
               107         107
               108         108
               109         109
               110         110
               111         111
               112         112
               113         113
               114         114
               115         115
               116         116
               117         117
               118         118
               119         119

----------------------------------------------------------------------------------------

 
 
 KPOINTS: Automatic mesh                          

Automatic generation of k-mesh.
 Grid dimensions read from file:
 generate k-points for:    1    1    1

 Generating k-lattice:

  Cartesian coordinates                     Fractional coordinates (reciprocal lattice)
     0.000000000  0.081430085 -0.019947423     1.000000000  0.000000000  0.000000000
     0.109376855 -0.000000000  0.000000000     0.000000000  1.000000000  0.000000000
     0.000000000  0.000000000 -0.088490111     0.000000000  0.000000000  1.000000000

  Length of vectors
     0.083837691  0.109376855  0.088490111

  Shift w.r.t. Gamma in fractional coordinates (k-lattice)
     0.000000000  0.000000000  0.000000000

 
 Subroutine IBZKPT returns following result:
 ===========================================
 
 Found      1 irreducible k-points:
 
 Following reciprocal coordinates:
            Coordinates               Weight
  0.000000  0.000000  0.000000      1.000000
 
 Following cartesian coordinates:
            Coordinates               Weight
  0.000000  0.000000 -0.000000      1.000000
 
 
 Subroutine IBZKPT_HF returns following result:
 ==============================================
 
 Found      1 k-points in 1st BZ
 the following      1 k-points will be used (e.g. in the exchange kernel)
 Following reciprocal coordinates:   # in IRBZ
  0.000000  0.000000  0.000000    1.00000000   1 t-inv F


--------------------------------------------------------------------------------------------------------




 Dimension of arrays:
   k-points           NKPTS =      1   k-points in BZ     NKDIM =      1   number of bands    NBANDS=    625
   number of dos      NEDOS =    301   number of ions     NIONS =    119
   non local maximal  LDIM  =      6   non local SUM 2l+1 LMDIM =     18
   total plane-waves  NPLWV = 184320
   max r-space proj   IRMAX =   1800   max aug-charges    IRDMAX=   5704
   dimension x,y,z NGX =    64 NGY =   48 NGZ =   60
   dimension x,y,z NGXF=   128 NGYF=   96 NGZF=  120
   support grid    NGXF=   128 NGYF=   96 NGZF=  120
   ions per type =              47  71   1
   NGX,Y,Z   is equivalent  to a cutoff of   8.66,  8.73,  8.57 a.u.
   NGXF,Y,Z  is equivalent  to a cutoff of  17.33, 17.46, 17.15 a.u.

 SYSTEM =  unknown system                          
 POSCAR =  Ga48 O72                                

 Startparameter for this run:
   NWRITE =      2    write-flag & timer
   PREC   = normal    normal or accurate (medium, high low for compatibility)
   ISTART =      0    job   : 0-new  1-cont  2-samecut
   ICHARG =      0    charge: 1-file 2-atom 10-const
   ISPIN  =      1    spin polarized calculation?
   LNONCOLLINEAR =      F non collinear calculations
   LSORBIT =      F    spin-orbit coupling
   INIWAV =      1    electr: 0-lowe 1-rand  2-diag
   LASPH  =      F    aspherical Exc in radial PAW
 Electronic Relaxation 1
   ENCUT  =  450.0 eV  33.07 Ry    5.75 a.u.  21.24 15.81 20.12*2*pi/ulx,y,z
   ENINI  =  450.0     initial cutoff
   ENAUG  =  605.4 eV  augmentation charge cutoff
   NELM   =    500;   NELMIN=  2; NELMDL= -5     # of ELM steps 
   EDIFF  = 0.1E-04   stopping-criterion for ELM
   LREAL  =      T    real-space projection
   NLSPLINE    = F    spline interpolate recip. space projectors
   LCOMPAT=      F    compatible to vasp.4.4
   GGA_COMPAT  = T    GGA compatible to vasp.4.4-vasp.4.6
   LMAXPAW     = -100 max onsite density
   LMAXMIX     =    2 max onsite mixed and CHGCAR
   VOSKOWN=      0    Vosko Wilk Nusair interpolation
   ROPT   =   -0.00050  -0.00050  -0.00050
 Ionic relaxation
   EDIFFG = -.5E-02   stopping-criterion for IOM
   NSW    =      0    number of steps for IOM
   NBLOCK =      1;   KBLOCK =      1    inner block; outer block 
   IBRION =     -1    ionic relax: 0-MD 1-quasi-New 2-CG
   NFREE  =      0    steps in history (QN), initial steepest desc. (CG)
   ISIF   =      2    stress and relaxation
   IWAVPR =     10    prediction:  0-non 1-charg 2-wave 3-comb
   ISYM   =      3    0-nonsym 1-usesym 2-fastsym
   LCORR  =      T    Harris-Foulkes like correction to forces

   POTIM  = 0.5000    time-step for ionic-motion
   TEIN   =    0.0    initial temperature
   TEBEG  =    0.0;   TEEND  =   0.0 temperature during run
   SMASS  =  -3.00    Nose mass-parameter (am)
   estimated Nose-frequenzy (Omega)   =  0.10E-29 period in steps = 0.13E+47 mass=  -0.345E-26a.u.
   SCALEE = 1.0000    scale energy and forces
   NPACO  =    256;   APACO  = 10.0  distance and # of slots for P.C.
   PSTRESS=    0.0 pullay stress

  Mass of Ions in am
   POMASS =  69.72 16.00 30.97
  Ionic Valenz
   ZVAL   =  13.00  6.00  5.00
  Atomic Wigner-Seitz radii
   RWIGS  =  -1.00 -1.00 -1.00
  virtual crystal weights 
   VCA    =   1.00  1.00  1.00
   NELECT =    1043.0000    total number of electrons
   NUPDOWN=      -1.0000    fix difference up-down

 DOS related values:
   EMIN   =  10.00;   EMAX   =-10.00  energy-range for DOS
   EFERMI =   0.00;   METHOD = LEGACY      
   ISMEAR =     0;   SIGMA  =   0.05  broadening in eV -4-tet -1-fermi 0-gaus

 Electronic relaxation 2 (details)
   IALGO  =     58    algorithm
   LDIAG  =      T    sub-space diagonalisation (order eigenvalues)
   LSUBROT=      F    optimize rotation matrix (better conditioning)
   TURBO    =      0    0=normal 1=particle mesh
   IRESTART =      0    0=no restart 2=restart with 2 vectors
   NREBOOT  =      0    no. of reboots
   NMIN     =      0    reboot dimension
   EREF     =   0.00    reference energy to select bands
   IMIX   =      4    mixing-type and parameters
     AMIX     =   0.40;   BMIX     =  1.00
     AMIX_MAG =   1.60;   BMIX_MAG =  1.00
     AMIN     =   0.10
     WC   =   100.;   INIMIX=   1;  MIXPRE=   1;  MAXMIX= -45

 Intra band minimization:
   WEIMIN = 0.0000     energy-eigenvalue tresh-hold
   EBREAK =  0.40E-08  absolut break condition
   DEPER  =   0.30     relativ break condition  

   TIME   =   0.40     timestep for ELM

  volume/ion in A,a.u.               =      10.66        71.95
  Fermi-wavevector in a.u.,A,eV,Ry     =   1.533574  2.898034 31.998834  2.351848
  Thomas-Fermi vector in A             =   2.640622
 
 Write flags
   LWAVE        =      T    write WAVECAR
   LDOWNSAMPLE  =      F    k-point downsampling of WAVECAR
   LCHARG       =      T    write CHGCAR
   LVTOT        =      F    write LOCPOT, total local potential
   LVHAR        =      F    write LOCPOT, Hartree potential only
   LELF         =      F    write electronic localiz. function (ELF)
   LORBIT       =      0    0 simple, 1 ext, 2 COOP (PROOUT), +10 PAW based schemes


 Dipole corrections
   LMONO  =      F    monopole corrections only (constant potential shift)
   LDIPOL =      F    correct potential (dipole corrections)
   IDIPOL =      0    1-x, 2-y, 3-z, 4-all directions 
   EPSILON=  1.0000000 bulk dielectric constant

 Exchange correlation treatment:
   GGA     =    --    GGA type
   LEXCH   =     8    internal setting for exchange type
   LIBXC   =     F    Libxc                    
   VOSKOWN =     0    Vosko Wilk Nusair interpolation
   EXXOEP  =     0    0=HF, 1=EXX-LHF (local Hartree Fock) 2=EXX OEP
   LHFCALC =     T    Hartree Fock is set to
   LSYMGRAD=     F    symmetrize gradient (conserves proper symmetry)
   PRECFOCK=fast      Normal, Fast or Accurate (Low or Medium for compatibility)
   LRHFCALC=     F    long range Hartree Fock
   LRSCOR  =     F    long range correlation only (use DFT for short range part)
   LTHOMAS =     F    Thomas Fermi screening in HF
   LMODELHF=     F    short range full HF, long range fraction AEXX
   FOCKCORR=     1    mode to apply convergence corrections
   LFOCKACE=     T    use Adeptively-Compressed-Exchange operator
   ENCUT4O =  -1.0   cutoff for four orbital integrals eV
   LMAXFOCK=     4    L truncation for augmentation on plane wave grid
   LMAXFOCKAE=  -1    L truncation for all-electron charge restoration on plane wave grid
   NMAXFOCKAE=   1    number of basis functions for all-electron charge restoration
   LFOCKAEDFT=     F  apply the AE augmentation even for DFT
   NKREDX  =     1    reduce k-point grid by
   NKREDY  =     1    reduce k-point grid by
   NKREDZ  =     1    reduce k-point grid by
   SHIFTRED=     F    shift reduced grid of Gamma
   HFKIDENT=     F    idential grid for each k-point
   ODDONLY =     F    use only odd q-grid points
   EVENONLY=     F    use only even q-grid points
   HFALPHA =   -1.0000 decay constant for conv. correction
   MCALPHA =    0.0000 extent of test-charge in conv. correction in multipole expansion
   AEXX    =    0.3200 exact exchange contribution
   HFSCREEN=    0.2000 screening length (either q_TF or 0.3 A-1)
   HFSCREENC=   0.2000 screening length for correlation (either q_TF or 0.3 A-1)
   HFRCUT  =    0.0000 spherical cutoff for potential kernel
   ALDAX   =    0.6800 LDA exchange part
   AGGAX   =    0.6800 GGA exchange part
   ALDAC   =    1.0000 LDA correlation
   AGGAC   =    1.0000 GGA correlation
   ENCUTFOCK=  -1.0 apply spherical cutoff to Coloumb kernel
   NBANDSGWLOW=     1    first orbital included in HF term
   NBLOCK_FOCK=    64    blocking factor in FOCK_ACC

 Linear response parameters
   LEPSILON=     F    determine dielectric tensor
   LRPA    =     F    only Hartree local field effects (RPA)
   LNABLA  =     F    use nabla operator in PAW spheres
   LVEL    =     F    velocity operator in full k-point grid
   CSHIFT  =0.1000    complex shift for real part using Kramers Kronig
   OMEGAMAX=  -1.0    maximum frequency
   DEG_THRESHOLD= 0.2000000E-02 threshold for treating states as degnerate
   RTIME   =   -0.100 relaxation time in fs
  (WPLASMAI=    0.000 imaginary part of plasma frequency in eV, 0.658/RTIME)
   DFIELD  = 0.0000000 0.0000000 0.0000000 field for delta impulse in time
 
  Optional k-point grid parameters
   LKPOINTS_OPT  =     F    use optional k-point grid
   KPOINTS_OPT_MODE=     1    mode for optional k-point grid
 
 Orbital magnetization related:
   ORBITALMAG=     F  switch on orbital magnetization
   LCHIMAG   =     F  perturbation theory with respect to B field
   DQ        =  0.001000  dq finite difference perturbation B field
   LLRAUG    =     F  two centre corrections for induced B field
   LBONE     =     F  B-component reconstruction in AE one-centre
   LVGVCALC  =     T  calculate vGv susceptibility
   LVGVAPPL  =     F  apply vGv susceptibility instead of pGv for G=0

 Random number generation:
   RANDOM_GENERATOR = DEFAULT
   PCG_SEED         = not used


--------------------------------------------------------------------------------------------------------


 Static calculation
 charge density and potential will be updated during run
 non-spin polarized calculation
 Conjugate gradient for all bands (Freysoldt, et al. PRB 79, 241103 (2009))
 preconditioned conjugated gradient                                        
 perform sub-space diagonalisation
    before iterative eigenvector-optimisation
 modified Broyden-mixing scheme, WC =      100.0
 initial mixing is a Kerker type mixing with AMIX =  0.4000 and BMIX =      1.0000
 Hartree-type preconditioning will be used
 using additional bands           103
 real space projection scheme for non local part
 use partial core corrections
 no Harris-corrections to forces 
 use gradient corrections 
 use of overlap-Matrix (Vanderbilt PP)
 Gauss-broadening in eV      SIGMA  =   0.05


--------------------------------------------------------------------------------------------------------


  energy-cutoff  :      450.00
  volume of cell :     1268.81
      direct lattice vectors                 reciprocal lattice vectors
     0.000000000 12.280473417  0.000000000     0.000000000  0.081430085 -0.019947423
     9.142702054  0.000000000  0.000000000     0.109376855 -0.000000000  0.000000000
     0.000000000 -2.768261773-11.300697718     0.000000000  0.000000000 -0.088490111

  length of vectors
    12.280473417  9.142702054 11.634820246     0.083837691  0.109376855  0.088490111


 
 k-points in units of 2pi/SCALE and weight: Automatic mesh                          
   0.00000000  0.00000000 -0.00000000       1.000
 
 k-points in reciprocal lattice and weights: Automatic mesh                          
   0.00000000  0.00000000  0.00000000       1.000
 
 position of ions in fractional coordinates (direct lattice) 
   0.65763608  0.00000000  0.15600516
   0.66021686  0.00000000  0.65726015
   0.65933239  0.33334081  0.15816452
   0.66031463  0.33379810  0.65692019
   0.65933239  0.66665919  0.15816452
   0.66031463  0.66620190  0.65692019
   0.83940566  0.16361902  0.34246673
   0.84018474  0.16674759  0.84449979
   0.84419980  0.50000000  0.34362777
   0.84089069  0.50000000  0.84364127
   0.83940566  0.83638098  0.34246673
   0.84018474  0.83325241  0.84449979
   0.59137682  0.16712874  0.39899909
   0.59198566  0.16724688  0.89860966
   0.59043718  0.50000000  0.39794452
   0.59256914  0.50000000  0.89893195
   0.59137682  0.83287126  0.39899909
   0.59198566  0.83275312  0.89860966
   0.90952164  0.00000000  0.10328539
   0.90724405  0.00000000  0.60344700
   0.90813525  0.33403471  0.10130837
   0.91077204  0.33300003  0.60474499
   0.90813525  0.66596529  0.10130837
   0.91077204  0.66699997  0.60474499
   0.15748914  0.17079275  0.15547415
   0.15958409  0.16143484  0.66088603
   0.15883241  0.50000000  0.15635316
   0.15995469  0.50000000  0.65711922
   0.15748914  0.82920725  0.15547415
   0.15958409  0.83856516  0.66088603
   0.34291439  0.00000000  0.34667124
   0.34303987  0.00000000  0.84779591
   0.34003355  0.33324114  0.34545886
   0.34139137  0.33331384  0.84525184
   0.34003355  0.66675886  0.34545886
   0.34139137  0.66668616  0.84525184
   0.08939873  0.00000000  0.90274408
   0.09272651  0.32925330  0.39922813
   0.09144875  0.33356020  0.89720608
   0.09272651  0.67074670  0.39922813
   0.09144875  0.66643980  0.89720608
   0.40829930  0.16701880  0.10547581
   0.41102433  0.16695563  0.60454155
   0.40808103  0.50000000  0.10361028
   0.40912260  0.50000000  0.60341126
   0.40829930  0.83298120  0.10547581
   0.41102433  0.83304437  0.60454155
   0.99623522  0.16771930  0.12882375
   0.99671147  0.16452361  0.62723186
   0.99668361  0.50000000  0.12667719
   0.99802020  0.50000000  0.62888524
   0.99623522  0.83228070  0.12882375
   0.99671147  0.83547639  0.62723186
   0.50407605  0.00000000  0.37434639
   0.50480769  0.00000000  0.87486403
   0.50225517  0.33311111  0.37378765
   0.50387996  0.33381606  0.87364021
   0.50225517  0.66688889  0.37378765
   0.50387996  0.66618394  0.87364021
   0.67268329  0.16728453  0.28158098
   0.67260620  0.16702577  0.78065568
   0.67576080  0.50000000  0.28355402
   0.67279859  0.50000000  0.78026879
   0.67268329  0.83271547  0.28158098
   0.67260620  0.83297423  0.78065568
   0.82766684  0.00000000  0.22072606
   0.82741439  0.00000000  0.72124924
   0.83054577  0.33077062  0.22186275
   0.82827536  0.33337308  0.72038515
   0.83054577  0.66922938  0.22186275
   0.82827536  0.66662692  0.72038515
   0.83209668  0.00000000  0.44602855
   0.83189406  0.00000000  0.94723362
   0.84307303  0.33008882  0.44537138
   0.83007242  0.33377961  0.94585196
   0.84307303  0.66991118  0.44537138
   0.83007242  0.66622039  0.94585196
   0.66859397  0.16709162  0.05560314
   0.67046589  0.16717571  0.55464210
   0.66940757  0.50000000  0.05639712
   0.67107792  0.50000000  0.55349376
   0.66859397  0.83290838  0.05560314
   0.67046589  0.83282429  0.55464210
   0.49588408  0.00000000  0.13001602
   0.49827560  0.00000000  0.62693263
   0.49643380  0.33357696  0.13030881
   0.49760454  0.33404732  0.62683846
   0.49643380  0.66642304  0.13030881
   0.49760454  0.66595268  0.62683846
   0.01663158  0.14097986  0.37328524
   0.00290442  0.16732666  0.87489465
   0.00721609  0.50000000  0.37254786
   0.00351865  0.50000000  0.87352342
   0.01663158  0.85902014  0.37328524
   0.00290442  0.83267334  0.87489465
   0.16107915  0.00000000  0.28825159
   0.17473580  0.00000000  0.78975581
   0.17131072  0.33169215  0.28051219
   0.17325143  0.33189153  0.78060817
   0.17131072  0.66830785  0.28051219
   0.17325143  0.66810847  0.78060817
   0.32424172  0.16314817  0.22220160
   0.32865981  0.16369943  0.72063813
   0.32616042  0.50000000  0.22112838
   0.32697095  0.50000000  0.71983063
   0.32424172  0.83685183  0.22220160
   0.32865981  0.83630057  0.72063813
   0.33096609  0.16538375  0.44828482
   0.33296359  0.16750080  0.94846836
   0.32945969  0.50000000  0.44722426
   0.33174887  0.50000000  0.94677078
   0.33096609  0.83461625  0.44828482
   0.33296359  0.83249920  0.94846836
   0.16622802  0.00000000  0.06007683
   0.16916616  0.33412378  0.05390004
   0.16663412  0.32936904  0.55534147
   0.16916616  0.66587622  0.05390004
   0.16663412  0.67063096  0.55534147
   0.10314475  0.00000000  0.40306771
 
 position of ions in cartesian coordinates  (Angst):
   0.00000000  7.64421931 -1.76296713
   0.00000000  6.28830749 -7.42749828
   3.04763569  7.65907307 -1.78736947
   3.05181658  6.29044918 -7.42365650
   6.09506636  7.65907307 -1.78736947
   6.09088548  6.29044918 -7.42365650
   1.49591991  9.36026141 -3.87011295
   1.52452356  7.98006993 -9.54343685
   4.57135103  9.41592164 -3.88323354
   4.57135103  7.99111589 -9.53373502
   7.64678214  9.36026141 -3.87011295
   7.61817849  7.98006993 -9.54343685
   1.52800829  6.15785334 -4.50896813
   1.52908839  4.78227743-10.15491610
   4.57135103  6.14923354 -4.49705068
   4.57135103  4.78855061-10.15855820
   7.61469376  6.15785334 -4.50896813
   7.61361366  4.78227743-10.15491610
   0.00000000 10.88343537 -1.16719694
   0.00000000  9.47088717 -6.81937214
   3.05397983 10.87188266 -1.14485528
   3.04452006  9.51061940 -6.83404036
   6.08872223 10.87188266 -1.14485528
   6.09818199  9.51061940 -6.83404036
   1.56150721  1.50364809 -1.75696635
   1.47595061  0.13026259 -7.46847320
   4.57135103  1.51771074 -1.76689985
   4.57135103  0.14524137 -7.42590562
   7.58119484  1.50364809 -1.75696635
   7.66675144  0.13026259 -7.46847320
   0.00000000  3.25147426 -3.91762689
   0.00000000  1.86577095 -9.58068532
   3.04672442  3.21945236 -3.90392621
   3.04738910  1.85256933 -9.55193557
   6.09597763  3.21945236 -3.90392621
   6.09531296  1.85256933 -9.55193557
   0.00000000 -1.40117317-10.20163802
   3.01026478  0.03355746 -4.51155638
   3.04964149 -1.36066739-10.13905470
   6.13243727  0.03355746 -4.51155638
   6.09306057 -1.36066739-10.13905470
   1.52700310  4.72212410 -1.19195029
   1.52642559  3.37404416 -6.83174126
   4.57135103  4.72460782 -1.17086846
   4.57135103  3.35381885 -6.81896823
   7.61569895  4.72212410 -1.19195029
   7.61627646  3.37404416 -6.83174126
   1.53340757 11.87762227 -1.45579828
   1.50419031 10.50374676 -7.08815767
   4.57135103 11.88907097 -1.43154068
   4.57135103 10.51524156 -7.10684195
   7.60929448 11.87762227 -1.45579828
   7.63851174 10.50374676 -7.08815767
   0.00000000  5.15400370 -4.23037541
   0.00000000  3.77742481 -9.88657397
   3.04553559  5.13318914 -4.22406129
   3.05198079  3.76941960 -9.87274394
   6.09716647  5.13318914 -4.22406129
   6.09072127  3.76941960 -9.87274394
   1.52943258  7.48137940 -3.18206158
   1.52706687  6.09886328 -8.82195389
   4.57135103  7.51371080 -3.20435822
   4.57135103  6.10229695 -8.81758169
   7.61326948  7.48137940 -3.18206158
   7.61563518  6.09886328 -8.82195389
   0.00000000  9.55311314 -2.49435845
   0.00000000  8.16443378 -8.15061962
   3.02413725  9.58532104 -2.50720388
   3.04793076  8.17739891 -8.14085487
   6.11856481  9.58532104 -2.50720388
   6.09477129  8.17739891 -8.14085487
   0.00000000  8.98381738 -5.04043385
   0.00000000  7.59386224-10.70440081
   3.01790376  9.12043134 -5.03300738
   3.05164753  7.57531652-10.68878703
   6.12479830  9.12043134 -5.03300738
   6.09105452  7.57531652-10.68878703
   1.52766887  8.05672649 -0.62835425
   1.52843772  6.69824396 -6.26784274
   4.57135103  8.06451992 -0.63732680
   4.57135103  6.70893892 -6.25486570
   7.61503319  8.05672649 -0.62835425
   7.61426434  6.69824396 -6.26784274
   0.00000000  5.72977291 -1.46927175
   0.00000000  4.38354668 -7.08477612
   3.04979473  5.73571315 -1.47258053
   3.05409508  4.37556633 -7.08371196
   6.09290732  5.73571315 -1.47258053
   6.08860697  4.37556633 -7.08371196
   1.28893684 -0.82910753 -4.21838363
   1.52981780 -2.38626972 -9.88691997
   4.57135103 -0.94269295 -4.21005071
   4.57135103 -2.37493084 -9.87142417
   7.85376521 -0.82910753 -4.21838363
   7.61288426 -2.38626972 -9.88691997
   0.00000000  1.18017238 -3.25744408
   0.00000000 -0.04041243 -8.92479166
   3.03256246  1.32724561 -3.16998344
   3.03438538 -0.03331813 -8.82141696
   6.11013959  1.32724561 -3.16998344
   6.10831667 -0.03331813 -8.82141696
   1.49161511  3.36672968 -2.51103308
   1.49665516  2.04118304 -8.14371370
   4.57135103  3.39326310 -2.49890499
   4.57135103  2.02267841 -8.13458833
   7.65108695  3.36672968 -2.51103308
   7.64604690  2.04118304 -8.14371370
   1.51205433  2.82345049 -5.06593120
   1.53140988  1.46334177-10.71835423
   4.57135103  2.80788713 -5.05394612
   4.57135103  1.45312388-10.69917037
   7.63064773  2.82345049 -5.06593120
   7.61129218  1.46334177-10.71835423
   0.00000000  1.87505039 -0.67891013
   3.05479418  1.92823111 -0.60910811
   3.01132302  0.50901537 -6.27574606
   6.08790787  1.92823111 -0.60910811
   6.13137903  0.50901537 -6.27574606
   0.00000000  0.15086940 -4.55494640
 


--------------------------------------------------------------------------------------------------------


 k-point   1 :   0.0000 0.0000 0.0000  plane waves:   27533

 maximum and minimum number of plane-waves per node :     27533    27533

 maximum number of plane-waves:     27533
 maximum index in each direction: 
   IXMAX=   21   IYMAX=   15   IZMAX=   20
   IXMIN=  -21   IYMIN=  -15   IZMIN=  -20


 serial   3D FFT for wavefunctions
 parallel 3D FFT for charge:
    minimum data exchange during FFTs selected (reduces bandwidth)


 FFT grid for exact exchange (Hartree Fock) 
  NGX = 48; NGY = 36; NGZ = 42

 
 Radii for the augmentation spheres in the non-local exchange
 for species   1 augmentation radius   1.392 (default was   1.031)
       energy cutoff for augmentation   1800.0
 for species   2 augmentation radius   0.974 (default was   0.722)
       energy cutoff for augmentation   1800.0
 for species   3 augmentation radius   1.294 (default was   0.959)
       energy cutoff for augmentation   1800.0
 Maximum index for augmentation-charges in exchange           655
  SETUP_FOCK is finished

 total amount of memory used by VASP MPI-rank0  1085860. kBytes
=======================================================================

   base      :      30000. kBytes
   nonlr-proj:      31181. kBytes
   fftplans  :      51012. kBytes
   grid      :     102973. kBytes
   one-center:       1850. kBytes
   HF        :        194. kBytes
   wavefun   :     868650. kBytes
 
     INWAV:  cpu time      0.0001: real time      0.0001
 Broyden mixing: mesh for mixing (old mesh)
   NGX = 43   NGY = 31   NGZ = 41
  (NGX  =128   NGY  = 96   NGZ  =120)
  gives a total of  54653 points

 charge density for first step will be calculated from the start-wavefunctions


--------------------------------------------------------------------------------------------------------


 Maximum index for non-local projection operator          1718
 Maximum index for augmentation-charges          5367 (set IRDMAX)


--------------------------------------------------------------------------------------------------------


 initial charge from wavefunction
 First call to EWALD:  gamma=   0.164
 Maximum number of real-space cells 3x 3x 3
 Maximum number of reciprocal cells 3x 2x 3

    FEWALD:  cpu time      0.0724: real time      0.0724


--------------------------------------- Ionic step        1  -------------------------------------------




--------------------------------------- Iteration      1(   1)  ---------------------------------------


    POTLOK:  cpu time      0.0341: real time      0.0341
    SETDIJ:  cpu time      0.1301: real time      0.1301
    TRIAL :  cpu time      1.1444: real time      1.1531
    CORREC:  cpu time      0.0008: real time      0.0008
    --------------------------------------------
      LOOP:  cpu time      1.4492: real time      1.4578

 eigenvalue-minimisations  :  1314
 total energy-change (2. order) :-0.1828020E+05  (-0.5513717E+05)
 number of electron    1042.9999522 magnetization 
 augmentation part      118.2429702 magnetization 

 Free energy of the ion-electron system (eV)
  ---------------------------------------------------
  alpha Z        PSCENC =      5376.25786726
  Ewald energy   TEWEN  =    -86622.35723278
  -Hartree energ DENC   =     -2084.26607214
  -exchange      EXHF   =         0.00000000
  -V(xc)+E(xc)   XCENC  =      2756.64165243
  PAW double counting   =    326852.27376384  -355612.56045630
  entropy T*S    EENTRO =        -0.02828010
  eigenvalues    EBANDS =    -40446.39696266
  atomic energy  EATOM  =    131500.23896116
  ---------------------------------------------------
  free energy    TOTEN  =    -18280.19675929 eV

  energy without entropy =   -18280.16847919  energy(sigma->0) =   -18280.18261924
  exchange ACFDT corr.  =         0.00000000  see jH, gK, PRB 81, 115126


--------------------------------------------------------------------------------------------------------




--------------------------------------- Iteration      1(   2)  ---------------------------------------


    TRIAL :  cpu time      1.1795: real time      1.1793
    CORREC:  cpu time      0.0008: real time      0.0008
    --------------------------------------------
      LOOP:  cpu time      1.1804: real time      1.1812

 eigenvalue-minimisations  :  1659
 total energy-change (2. order) :-0.4437285E+05  (-0.4286610E+05)
 number of electron    1042.9999522 magnetization 
 augmentation part      118.2429702 magnetization 

 Free energy of the ion-electron system (eV)
  ---------------------------------------------------
  alpha Z        PSCENC =      5376.25786726
  Ewald energy   TEWEN  =    -86622.35723278
  -Hartree energ DENC   =     -2084.26607214
  -exchange      EXHF   =         0.00000000
  -V(xc)+E(xc)   XCENC  =      2756.64165243
  PAW double counting   =    326852.27376384  -355612.56045630
  entropy T*S    EENTRO =        -0.02824554
  eigenvalues    EBANDS =    -84819.24804966
  atomic energy  EATOM  =    131500.23896116
  ---------------------------------------------------
  free energy    TOTEN  =    -62653.04781173 eV

  energy without entropy =   -62653.01956619  energy(sigma->0) =   -62653.03368896
  exchange ACFDT corr.  =         0.00000000  see jH, gK, PRB 81, 115126


--------------------------------------------------------------------------------------------------------




--------------------------------------- Iteration      1(   3)  ---------------------------------------


    TRIAL :  cpu time      1.5584: real time      1.8175
    CORREC:  cpu time      0.0008: real time      0.0008
    --------------------------------------------
      LOOP:  cpu time      1.5595: real time      1.8189

 eigenvalue-minimisations  :  1787
 total energy-change (2. order) :-0.4949516E+04  (-0.4523778E+04)
 number of electron    1042.9999522 magnetization 
 augmentation part      118.2429702 magnetization 

 Free energy of the ion-electron system (eV)
  ---------------------------------------------------
  alpha Z        PSCENC =      5376.25786726
  Ewald energy   TEWEN  =    -86622.35723278
  -Hartree energ DENC   =     -2084.26607214
  -exchange      EXHF   =         0.00000000
  -V(xc)+E(xc)   XCENC  =      2756.64165243
  PAW double counting   =    326852.27376384  -355612.56045630
  entropy T*S    EENTRO =        -0.04186227
  eigenvalues    EBANDS =    -89768.75054568
  atomic energy  EATOM  =    131500.23896116
  ---------------------------------------------------
  free energy    TOTEN  =    -67602.56392448 eV

  energy without entropy =   -67602.52206221  energy(sigma->0) =   -67602.54299334
  exchange ACFDT corr.  =         0.00000000  see jH, gK, PRB 81, 115126


--------------------------------------------------------------------------------------------------------




--------------------------------------- Iteration      1(   4)  ---------------------------------------


    TRIAL :  cpu time      1.5724: real time      1.5722
    CORREC:  cpu time      0.0008: real time      0.0008
    --------------------------------------------
      LOOP:  cpu time      1.5734: real time      1.5736

 eigenvalue-minimisations  :  2340
 total energy-change (2. order) :-0.7321721E+03  (-0.6556984E+03)
 number of electron    1042.9999522 magnetization 
 augmentation part      118.2429702 magnetization 

 Free energy of the ion-electron system (eV)
  ---------------------------------------------------
  alpha Z        PSCENC =      5376.25786726
  Ewald energy   TEWEN  =    -86622.35723278
  -Hartree energ DENC   =     -2084.26607214
  -exchange      EXHF   =         0.00000000
  -V(xc)+E(xc)   XCENC  =      2756.64165243
  PAW double counting   =    326852.27376384  -355612.56045630
  entropy T*S    EENTRO =        -0.05584999
  eigenvalues    EBANDS =    -90500.90866737
  atomic energy  EATOM  =    131500.23896116
  ---------------------------------------------------
  free energy    TOTEN  =    -68334.73603390 eV

  energy without entropy =   -68334.68018390  energy(sigma->0) =   -68334.70810890
  exchange ACFDT corr.  =         0.00000000  see jH, gK, PRB 81, 115126


--------------------------------------------------------------------------------------------------------




--------------------------------------- Iteration      1(   5)  ---------------------------------------


    POTLOK:  cpu time      1.4894: real time      1.4893
    SETDIJ:  cpu time      0.5360: real time      0.5359
    TRIAL :  cpu time     15.2028: real time     15.2000
    CORREC:  cpu time      0.0008: real time      0.0008
    CHARGE:  cpu time      0.1447: real time      0.1447
    --------------------------------------------
      LOOP:  cpu time     17.3739: real time     17.3712

 eigenvalue-minimisations  :  2244
 total energy-change (2. order) : 0.2955307E+05  (-0.6199968E+02)
 number of electron    1042.9998362 magnetization 
 augmentation part      486.5711980 magnetization 

 Free energy of the ion-electron system (eV)
  ---------------------------------------------------
  alpha Z        PSCENC =      5376.25786726
  Ewald energy   TEWEN  =    -86622.35723278
  -Hartree energ DENC   =     -2084.26607214
  -exchange      EXHF   =      4739.81582839
  -V(xc)+E(xc)   XCENC  =      1905.74049908
  PAW double counting   =    328057.73890495  -330060.02664771
  entropy T*S    EENTRO =        -0.02820948
  eigenvalues    EBANDS =    -91594.77887933
  atomic energy  EATOM  =    131500.23896116
  ---------------------------------------------------
  free energy    TOTEN  =    -38781.66498061 eV

  energy without entropy =   -38781.63677113  energy(sigma->0) =   -38781.65087587
  exchange ACFDT corr.  =        -1.41791647  see jH, gK, PRB 81, 115126


--------------------------------------------------------------------------------------------------------




--------------------------------------- Iteration      1(   6)  ---------------------------------------


    POTLOK:  cpu time      1.3601: real time      1.3599
    SETDIJ:  cpu time      0.5931: real time      0.5930
    TRIAL :  cpu time     14.5563: real time     14.5536
    CORREC:  cpu time     16.1728: real time     16.1784
    CHARGE:  cpu time      0.1452: real time      0.1452
    --------------------------------------------
      LOOP:  cpu time     32.8293: real time     32.8323

 eigenvalue-minimisations  :     0
 total energy-change (2. order) : 0.6809974E+05  (-0.1854277E+05)
 number of electron    1042.9998569 magnetization 
 augmentation part      454.8125006 magnetization 

 Free energy of the ion-electron system (eV)
  ---------------------------------------------------
  alpha Z        PSCENC =      5376.25786726
  Ewald energy   TEWEN  =    -86622.35723278
  -Hartree energ DENC   =    -77984.86254620
  -exchange      EXHF   =      4835.85244811
  -V(xc)+E(xc)   XCENC  =      3742.83171530
  PAW double counting   =    147053.88352840  -171420.51964887
  entropy T*S    EENTRO =        -0.02820949
  eigenvalues    EBANDS =     72836.77849757
  atomic energy  EATOM  =    131500.23896116
  ---------------------------------------------------
  free energy    TOTEN  =     29318.07538048 eV

  energy without entropy =    29318.10358997  energy(sigma->0) =    29318.08948522
  exchange ACFDT corr.  =        -0.67633641  see jH, gK, PRB 81, 115126


--------------------------------------------------------------------------------------------------------




--------------------------------------- Iteration      1(   7)  ---------------------------------------


    POTLOK:  cpu time      1.4836: real time      1.4834
    SETDIJ:  cpu time      0.4878: real time      0.4877
    TRIAL :  cpu time     14.5914: real time     14.5890
    CORREC:  cpu time     16.1453: real time     16.1426
    CHARGE:  cpu time      0.1448: real time      0.1447
    --------------------------------------------
      LOOP:  cpu time     32.8532: real time     32.8479

 eigenvalue-minimisations  :     0
 total energy-change (2. order) :-0.1776498E+05  (-0.6098013E+04)
 number of electron    1042.9998494 magnetization 
 augmentation part      417.1345557 magnetization 

 Free energy of the ion-electron system (eV)
  ---------------------------------------------------
  alpha Z        PSCENC =      5376.25786726
  Ewald energy   TEWEN  =    -86622.35723278
  -Hartree energ DENC   =    -43093.13553860
  -exchange      EXHF   =      3732.27011048
  -V(xc)+E(xc)   XCENC  =      2895.87694360
  PAW double counting   =    149449.32311714  -167365.86742932
  entropy T*S    EENTRO =        -0.03421861
  eigenvalues    EBANDS =     15680.51302909
  atomic energy  EATOM  =    131500.23896116
  ---------------------------------------------------
  free energy    TOTEN  =     11553.09161854 eV

  energy without entropy =    11553.12583715  energy(sigma->0) =    11553.10872785
  exchange ACFDT corr.  =      -161.80070586  see jH, gK, PRB 81, 115126


--------------------------------------------------------------------------------------------------------




--------------------------------------- Iteration      1(   8)  ---------------------------------------


    POTLOK:  cpu time      1.4771: real time      1.4769
    SETDIJ:  cpu time      0.5061: real time      0.5060
    TRIAL :  cpu time     14.6535: real time     14.6511
    CORREC:  cpu time     16.1972: real time     16.1945
    CHARGE:  cpu time      0.1457: real time      0.1457
    --------------------------------------------
      LOOP:  cpu time     32.9802: real time     32.9751

 eigenvalue-minimisations  :     0
 total energy-change (2. order) :-0.6499478E+04  (-0.3054173E+04)
 number of electron    1042.9998612 magnetization 
 augmentation part      425.3741102 magnetization 

 Free energy of the ion-electron system (eV)
  ---------------------------------------------------
  alpha Z        PSCENC =      5376.25786726
  Ewald energy   TEWEN  =    -86622.35723278
  -Hartree energ DENC   =    -29680.57909901
  -exchange      EXHF   =      3362.04513664
  -V(xc)+E(xc)   XCENC  =      2626.56298021
  PAW double counting   =    144289.61701562  -158238.82267118
  entropy T*S    EENTRO =        -0.02824501
  eigenvalues    EBANDS =     -7559.31559207
  atomic energy  EATOM  =    131500.23896116
  ---------------------------------------------------
  free energy    TOTEN  =      5053.61314725 eV

  energy without entropy =     5053.64139225  energy(sigma->0) =     5053.62726975
  exchange ACFDT corr.  =      -116.98445909  see jH, gK, PRB 81, 115126


--------------------------------------------------------------------------------------------------------




--------------------------------------- Iteration      1(   9)  ---------------------------------------


    POTLOK:  cpu time      1.4372: real time      1.4370
    SETDIJ:  cpu time      0.6020: real time      0.6019
    TRIAL :  cpu time     14.6119: real time     14.6093
    CORREC:  cpu time     16.1534: real time     16.1507
    CHARGE:  cpu time      0.1451: real time      0.1450
    --------------------------------------------
      LOOP:  cpu time     32.9498: real time     32.9463

 eigenvalue-minimisations  :     0
 total energy-change (2. order) :-0.1313831E+04  (-0.2365110E+04)
 number of electron    1042.9998430 magnetization 
 augmentation part      447.2657748 magnetization 

 Free energy of the ion-electron system (eV)
  ---------------------------------------------------
  alpha Z        PSCENC =      5376.25786726
  Ewald energy   TEWEN  =    -86622.35723278
  -Hartree energ DENC   =    -30109.02652368
  -exchange      EXHF   =      3392.56807994
  -V(xc)+E(xc)   XCENC  =      2642.10798581
  PAW double counting   =    140044.89973749  -154264.01746190
  entropy T*S    EENTRO =        -0.02842681
  eigenvalues    EBANDS =     -8220.86136732
  atomic energy  EATOM  =    131500.23896116
  ---------------------------------------------------
  free energy    TOTEN  =      3739.78180098 eV

  energy without entropy =     3739.81022779  energy(sigma->0) =     3739.79601438
  exchange ACFDT corr.  =       -97.27575032  see jH, gK, PRB 81, 115126


--------------------------------------------------------------------------------------------------------




--------------------------------------- Iteration      1(  10)  ---------------------------------------


    POTLOK:  cpu time      1.4650: real time      1.4650
    SETDIJ:  cpu time      0.5185: real time      0.5184
    TRIAL :  cpu time     14.5947: real time     14.5924
    CORREC:  cpu time     16.1052: real time     16.1026
    CHARGE:  cpu time      0.1451: real time      0.1450
    --------------------------------------------
      LOOP:  cpu time     32.8287: real time     32.8239

 eigenvalue-minimisations  :     0
 total energy-change (2. order) :-0.1910792E+04  (-0.1270182E+04)
 number of electron    1042.9998387 magnetization 
 augmentation part      455.4585863 magnetization 

 Free energy of the ion-electron system (eV)
  ---------------------------------------------------
  alpha Z        PSCENC =      5376.25786726
  Ewald energy   TEWEN  =    -86622.35723278
  -Hartree energ DENC   =    -32139.90266465
  -exchange      EXHF   =      3535.92660392
  -V(xc)+E(xc)   XCENC  =      2750.18394002
  PAW double counting   =    143765.05848175  -159364.21617420
  entropy T*S    EENTRO =        -0.02821079
  eigenvalues    EBANDS =     -6972.17158801
  atomic energy  EATOM  =    131500.23896116
  ---------------------------------------------------
  free energy    TOTEN  =      1828.98976766 eV

  energy without entropy =     1829.01797845  energy(sigma->0) =     1829.00387305
  exchange ACFDT corr.  =       -15.17097808  see jH, gK, PRB 81, 115126


--------------------------------------------------------------------------------------------------------




--------------------------------------- Iteration      1(  11)  ---------------------------------------


    POTLOK:  cpu time      1.4699: real time      1.4697
    SETDIJ:  cpu time      0.5307: real time      0.5306
    TRIAL :  cpu time     14.6035: real time     14.6007
    CORREC:  cpu time     16.1701: real time     16.1674
    CHARGE:  cpu time      0.1432: real time      0.1432
    --------------------------------------------
      LOOP:  cpu time     32.9176: real time     32.9121

 eigenvalue-minimisations  :     0
 total energy-change (2. order) :-0.1239796E+04  (-0.7411621E+03)
 number of electron    1042.9998376 magnetization 
 augmentation part      454.9459374 magnetization 

 Free energy of the ion-electron system (eV)
  ---------------------------------------------------
  alpha Z        PSCENC =      5376.25786726
  Ewald energy   TEWEN  =    -86622.35723278
  -Hartree energ DENC   =    -33251.91541500
  -exchange      EXHF   =      3681.91636846
  -V(xc)+E(xc)   XCENC  =      2829.83523671
  PAW double counting   =    142077.20963941  -157922.34388412
  entropy T*S    EENTRO =        -0.02820948
  eigenvalues    EBANDS =     -7079.61952558
  atomic energy  EATOM  =    131500.23896116
  ---------------------------------------------------
  free energy    TOTEN  =       589.19380474 eV

  energy without entropy =      589.22201422  energy(sigma->0) =      589.20790948
  exchange ACFDT corr.  =        -5.55001966  see jH, gK, PRB 81, 115126


--------------------------------------------------------------------------------------------------------




--------------------------------------- Iteration      1(  12)  ---------------------------------------


    POTLOK:  cpu time      1.4518: real time      1.4516
    SETDIJ:  cpu time      0.5414: real time      0.5414
    TRIAL :  cpu time     14.5545: real time     14.5521
    CORREC:  cpu time     16.1567: real time     16.1540
    CHARGE:  cpu time      0.1434: real time      0.1433
    --------------------------------------------
      LOOP:  cpu time     32.8496: real time     32.8446

 eigenvalue-minimisations  :     0
 total energy-change (2. order) :-0.7311870E+03  (-0.3867279E+03)
 number of electron    1042.9998426 magnetization 
 augmentation part      451.0515387 magnetization 

 Free energy of the ion-electron system (eV)
  ---------------------------------------------------
  alpha Z        PSCENC =      5376.25786726
  Ewald energy   TEWEN  =    -86622.35723278
  -Hartree energ DENC   =    -33804.31182291
  -exchange      EXHF   =      3792.02867137
  -V(xc)+E(xc)   XCENC  =      2869.38901593
  PAW double counting   =    134858.40242125  -150221.12139352
  entropy T*S    EENTRO =        -0.02820948
  eigenvalues    EBANDS =     -7890.49149003
[...]
   0.461E+02 0.174E+03 -.724E+02   -.463E+02 -.173E+03 0.733E+02   0.182E+00 -.978E+00 -.959E+00
   -.771E-04 0.509E+02 -.206E+02   -.243E-13 -.490E+02 0.225E+02   0.000E+00 -.168E+01 -.181E+01
   -.109E-03 0.977E+02 -.486E+02   -.208E-12 -.964E+02 0.500E+02   0.000E+00 -.125E+01 -.135E+01
   -.483E+01 0.715E+02 -.116E+02   0.500E+01 -.692E+02 0.148E+02   -.134E+00 -.211E+01 -.291E+01
   -.461E+02 0.174E+03 -.724E+02   0.463E+02 -.173E+03 0.733E+02   -.182E+00 -.978E+00 -.959E+00
   0.174E+02 -.199E+02 0.718E+02   -.175E+02 0.261E+02 -.761E+02   0.869E-01 -.538E+01 0.373E+01
   0.407E+02 -.904E+02 -.445E+02   -.409E+02 0.987E+02 0.413E+02   0.269E+00 -.732E+01 0.273E+01
   -.974E-04 -.203E+02 0.439E+02   0.393E-13 0.272E+02 -.477E+02   0.000E+00 -.599E+01 0.327E+01
   -.928E-05 -.373E+02 -.121E+02   0.309E-13 0.443E+02 0.846E+01   0.000E+00 -.612E+01 0.310E+01
   -.174E+02 -.199E+02 0.718E+02   0.175E+02 0.261E+02 -.761E+02   -.869E-01 -.538E+01 0.373E+01
   -.407E+02 -.904E+02 -.445E+02   0.409E+02 0.987E+02 0.413E+02   -.269E+00 -.732E+01 0.273E+01
   0.965E-04 0.353E+02 -.921E+01   -.152E-12 -.416E+02 0.129E+02   0.000E+00 0.539E+01 -.319E+01
   0.259E-04 0.315E+02 -.296E+02   -.618E-13 -.384E+02 0.334E+02   0.000E+00 0.596E+01 -.330E+01
   0.368E+01 0.274E+02 -.101E+02   -.372E+01 -.342E+02 0.138E+02   0.329E-01 0.587E+01 -.315E+01
   0.166E+01 0.307E+02 -.253E+02   -.159E+01 -.379E+02 0.292E+02   -.496E-01 0.623E+01 -.342E+01
   -.368E+01 0.274E+02 -.101E+02   0.372E+01 -.342E+02 0.138E+02   -.329E-01 0.587E+01 -.315E+01
   -.166E+01 0.307E+02 -.253E+02   0.159E+01 -.379E+02 0.292E+02   0.496E-01 0.623E+01 -.342E+01
   -.386E+00 0.554E+02 0.489E+02   0.108E+00 -.543E+02 -.440E+02   0.245E+00 -.973E+00 -.420E+01
   0.196E+01 0.750E+02 0.259E+02   -.193E+01 -.734E+02 -.211E+02   -.204E-01 -.132E+01 -.415E+01
   -.251E-04 0.492E+02 0.566E+02   -.816E-14 -.471E+02 -.524E+02   0.000E+00 -.179E+01 -.361E+01
   -.248E-04 0.755E+02 0.278E+02   -.317E-13 -.740E+02 -.235E+02   0.000E+00 -.132E+01 -.372E+01
   0.386E+00 0.554E+02 0.489E+02   -.108E+00 -.543E+02 -.440E+02   -.245E+00 -.973E+00 -.420E+01
   -.196E+01 0.750E+02 0.259E+02   0.193E+01 -.734E+02 -.211E+02   0.204E-01 -.132E+01 -.415E+01
   0.102E-03 -.110E+03 -.673E+01   0.421E-13 0.107E+03 0.411E+01   0.000E+00 0.182E+01 0.226E+01
   0.714E-04 -.943E+02 -.480E+02   0.191E-13 0.927E+02 0.430E+02   0.000E+00 0.134E+01 0.429E+01
   0.106E+02 -.871E+02 -.510E+01   -.103E+02 0.846E+02 0.105E+01   -.295E+00 0.210E+01 0.350E+01
   0.555E+01 -.826E+02 -.524E+02   -.579E+01 0.806E+02 0.477E+02   0.219E+00 0.170E+01 0.405E+01
   -.106E+02 -.871E+02 -.510E+01   0.103E+02 0.846E+02 0.105E+01   0.295E+00 0.210E+01 0.350E+01
   -.555E+01 -.826E+02 -.524E+02   0.579E+01 0.806E+02 0.477E+02   -.219E+00 0.170E+01 0.405E+01
   0.734E-04 0.440E+02 0.731E+02   0.445E-13 -.565E+02 -.712E+02   0.000E+00 0.108E+02 -.160E+01
   0.717E-04 0.113E+03 0.715E+02   0.229E-13 -.125E+03 -.679E+02   0.000E+00 0.108E+02 -.307E+01
   0.105E+02 0.646E+02 0.624E+02   -.972E+01 -.739E+02 -.596E+02   -.689E+00 0.801E+01 -.235E+01
   0.278E+01 0.116E+03 0.688E+02   -.266E+01 -.129E+03 -.650E+02   -.984E-01 0.113E+02 -.329E+01
   -.105E+02 0.646E+02 0.624E+02   0.972E+01 -.739E+02 -.596E+02   0.689E+00 0.801E+01 -.235E+01
   -.278E+01 0.116E+03 0.688E+02   0.266E+01 -.129E+03 -.650E+02   0.984E-01 0.113E+02 -.329E+01
   -.699E+00 -.123E+03 -.538E+02   0.949E+00 0.135E+03 0.508E+02   -.216E+00 -.108E+02 0.255E+01
   -.166E+00 -.131E+03 -.712E+02   -.264E-01 0.144E+03 0.675E+02   0.169E+00 -.111E+02 0.318E+01
   -.763E-04 -.118E+03 -.533E+02   0.351E-13 0.131E+03 0.505E+02   0.000E+00 -.106E+02 0.236E+01
   -.466E-04 -.137E+03 -.757E+02   0.258E-13 0.150E+03 0.722E+02   0.000E+00 -.112E+02 0.295E+01
   0.699E+00 -.123E+03 -.538E+02   -.949E+00 0.135E+03 0.508E+02   0.216E+00 -.108E+02 0.255E+01
   0.166E+00 -.131E+03 -.712E+02   0.264E-01 0.144E+03 0.675E+02   -.169E+00 -.111E+02 0.318E+01
   0.463E-04 -.718E+01 0.196E+02   0.173E-13 0.139E+02 -.234E+02   0.000E+00 -.572E+01 0.325E+01
   0.640E-04 0.257E+02 -.531E+01   -.809E-13 -.189E+02 0.212E+01   0.000E+00 -.585E+01 0.276E+01
   0.205E+00 -.150E+02 0.208E+02   -.849E-01 0.222E+02 -.247E+02   -.974E-01 -.621E+01 0.339E+01
   0.452E+01 0.455E+01 0.838E+00   -.416E+01 0.289E+01 -.422E+01   -.297E+00 -.637E+01 0.292E+01
   -.205E+00 -.150E+02 0.208E+02   0.849E-01 0.222E+02 -.247E+02   0.974E-01 -.621E+01 0.339E+01
   -.452E+01 0.455E+01 0.838E+00   0.416E+01 0.289E+01 -.422E+01   0.297E+00 -.637E+01 0.292E+01
   0.119E+03 -.612E+02 0.612E+02   -.109E+03 0.453E+02 -.541E+02   -.799E+01 0.136E+02 -.598E+01
   0.465E+01 0.390E+00 -.294E+02   -.439E+01 -.743E+01 0.335E+02   -.203E+00 0.601E+01 -.349E+01
   -.850E-04 -.669E+01 0.103E+01   -.867E-13 0.434E+00 0.284E+01   0.000E+00 0.536E+01 -.331E+01
   -.170E-04 0.774E+01 -.200E+02   0.136E-14 -.151E+02 0.234E+02   0.000E+00 0.629E+01 -.299E+01
   -.119E+03 -.612E+02 0.612E+02   0.109E+03 0.453E+02 -.541E+02   0.799E+01 0.136E+02 -.598E+01
   -.465E+01 0.391E+00 -.294E+02   0.439E+01 -.743E+01 0.335E+02   0.203E+00 0.601E+01 -.349E+01
   0.895E-05 0.138E+03 0.168E+03   0.106E-13 -.128E+03 -.152E+03   0.000E+00 -.876E+01 -.132E+02
   0.948E-05 0.508E+02 -.393E+02   -.443E-13 -.484E+02 0.459E+02   0.000E+00 -.215E+01 -.609E+01
   0.259E+02 0.878E+02 0.735E+02   -.248E+02 -.854E+02 -.687E+02   -.948E+00 -.199E+01 -.409E+01
   0.177E+02 0.578E+02 -.378E+01   -.178E+02 -.555E+02 0.883E+01   0.913E-01 -.204E+01 -.439E+01
   -.259E+02 0.878E+02 0.735E+02   0.248E+02 -.854E+02 -.687E+02   0.948E+00 -.199E+01 -.409E+01
   -.177E+02 0.578E+02 -.378E+01   0.178E+02 -.555E+02 0.883E+01   -.913E-01 -.204E+01 -.439E+01
   0.180E+02 -.332E+02 -.138E+02   -.177E+02 0.319E+02 0.992E+01   -.258E+00 0.115E+01 0.338E+01
   0.307E+02 -.194E+02 -.979E+02   -.311E+02 0.164E+02 0.935E+02   0.467E+00 0.278E+01 0.364E+01
   -.692E-04 -.562E+02 -.195E+02   -.297E-14 0.548E+02 0.150E+02   0.000E+00 0.118E+01 0.394E+01
   -.108E-03 -.513E+02 -.576E+02   0.722E-14 0.495E+02 0.525E+02   0.000E+00 0.158E+01 0.442E+01
   -.180E+02 -.332E+02 -.138E+02   0.177E+02 0.319E+02 0.992E+01   0.258E+00 0.115E+01 0.338E+01
   -.307E+02 -.194E+02 -.979E+02   0.311E+02 0.164E+02 0.935E+02   -.467E+00 0.278E+01 0.364E+01
   0.413E+02 0.208E+03 0.757E+02   -.407E+02 -.221E+03 -.728E+02   -.488E+00 0.109E+02 -.239E+01
   0.421E+01 0.128E+03 0.458E+02   -.419E+01 -.140E+03 -.421E+02   0.267E-02 0.107E+02 -.329E+01
   -.140E-03 0.152E+03 0.681E+02   -.488E-13 -.165E+03 -.653E+02   0.000E+00 0.112E+02 -.244E+01
   -.517E-04 0.123E+03 0.519E+02   0.548E-13 -.135E+03 -.486E+02   0.000E+00 0.108E+02 -.285E+01
   -.413E+02 0.208E+03 0.757E+02   0.407E+02 -.221E+03 -.728E+02   0.488E+00 0.109E+02 -.239E+01
   -.421E+01 0.128E+03 0.458E+02   0.419E+01 -.140E+03 -.421E+02   -.267E-02 0.107E+02 -.329E+01
   0.568E-04 -.115E+03 -.363E+02   -.174E-13 0.128E+03 0.342E+02   0.000E+00 -.111E+02 0.183E+01
   0.498E+01 -.122E+03 -.560E+02   -.419E+01 0.135E+03 0.537E+02   -.660E+00 -.114E+02 0.197E+01
   0.693E+02 -.105E+03 -.753E+02   -.699E+02 0.116E+03 0.693E+02   0.629E+00 -.991E+01 0.522E+01
   -.498E+01 -.122E+03 -.560E+02   0.419E+01 0.135E+03 0.537E+02   0.660E+00 -.114E+02 0.197E+01
   -.693E+02 -.105E+03 -.753E+02   0.699E+02 0.116E+03 0.693E+02   -.629E+00 -.991E+01 0.522E+01
   0.768E-04 -.507E+02 0.170E+03   -.213E-13 0.604E+02 -.187E+03   0.000E+00 -.954E+01 0.161E+02
 -----------------------------------------------------------------------------------------------
   0.893E-04 0.379E+01 0.148E+02   -.249E-12 0.288E-11 0.102E-11   -.333E-15 -.485E+01 -.114E+02
 
 
 POSITION                                       TOTAL-FORCE (eV/Angst)
 -----------------------------------------------------------------------------------
      0.00000      7.64422     -1.76297         0.000000      0.054222      0.031988
      0.00000      6.28831     -7.42750         0.000000      0.063680     -0.011845
      3.04764      7.65907     -1.78737        -0.009585      0.052030      0.029735
      3.05182      6.29045     -7.42366        -0.003098      0.075104     -0.013798
      6.09507      7.65907     -1.78737         0.009585      0.052030      0.029735
      6.09089      6.29045     -7.42366         0.003098      0.075104     -0.013798
      1.49592      9.36026     -3.87011        -0.043972     -0.154234     -0.027412
      1.52452      7.98007     -9.54344        -0.003188     -0.034991      0.028206
      4.57135      9.41592     -3.88323         0.000000     -0.027575     -0.049958
      4.57135      7.99112     -9.53374         0.000000     -0.066073      0.030689
      7.64678      9.36026     -3.87011         0.043972     -0.154234     -0.027412
      7.61818      7.98007     -9.54344         0.003188     -0.034991      0.028206
      1.52801      6.15785     -4.50897        -0.012438     -0.024614     -0.005054
      1.52909      4.78228    -10.15492        -0.006972     -0.062541      0.044540
      4.57135      6.14923     -4.49705         0.000000     -0.011362     -0.013691
      4.57135      4.78855    -10.15856         0.000000     -0.056176      0.046553
      7.61469      6.15785     -4.50897         0.012438     -0.024614     -0.005054
      7.61361      4.78228    -10.15492         0.006972     -0.062541      0.044540
      0.00000     10.88344     -1.16720         0.000000      0.033360     -0.035264
      0.00000      9.47089     -6.81937         0.000000      0.199506     -0.047622
      3.05398     10.87188     -1.14486        -0.025437      0.030610     -0.017471
      3.04452      9.51062     -6.83404        -0.071644      0.122633     -0.029625
      6.08872     10.87188     -1.14486         0.025437      0.030610     -0.017471
      6.09818      9.51062     -6.83404         0.071644      0.122633     -0.029625
      1.56151      1.50365     -1.75697        -0.010367      0.047464      0.018516
      1.47595      0.13026     -7.46847        -0.025620      0.035548     -0.131529
      4.57135      1.51771     -1.76690         0.000000      0.079877      0.017703
      4.57135      0.14524     -7.42591         0.000000      0.077959      0.039781
      7.58119      1.50365     -1.75697         0.010367      0.047464      0.018516
      7.66675      0.13026     -7.46847         0.025620      0.035548     -0.131529
      0.00000      3.25147     -3.91763         0.000000     -0.058158     -0.080238
      0.00000      1.86577     -9.58069         0.000000     -0.199563      0.113953
      3.04672      3.21945     -3.90393        -0.010450     -0.097623     -0.041518
      3.04739      1.85257     -9.55194        -0.059972     -0.078619      0.047109
      6.09598      3.21945     -3.90393         0.010450     -0.097623     -0.041518
      6.09531      1.85257     -9.55194         0.059972     -0.078619      0.047109
      0.00000     -1.40117    -10.20164         0.000000      0.148088      0.129737
      3.01026      0.03356     -4.51156         0.037319      0.107603     -0.088702
      3.04964     -1.36067    -10.13905        -0.038095      0.001018      0.063595
      6.13244      0.03356     -4.51156        -0.037319      0.107603     -0.088702
      6.09306     -1.36067    -10.13905         0.038095      0.001018      0.063595
      1.52700      4.72212     -1.19195        -0.018295      0.012256      0.056336
      1.52643      3.37404     -6.83174        -0.040081     -0.089783     -0.064508
      4.57135      4.72461     -1.17087         0.000000      0.020795      0.008157
      4.57135      3.35382     -6.81897         0.000000     -0.015812     -0.041815
      7.61570      4.72212     -1.19195         0.018295      0.012256      0.056336
      7.61628      3.37404     -6.83174         0.040081     -0.089783     -0.064508
      1.53341     11.87762     -1.45580         0.015986     -0.173530      0.156417
      1.50419     10.50375     -7.08816         0.110419     -0.392581      0.121458
      4.57135     11.88907     -1.43154         0.000000     -0.178378      0.130441
      4.57135     10.51524     -7.10684         0.000000     -0.213121      0.116391
      7.60929     11.87762     -1.45580        -0.015986     -0.173530      0.156417
      7.63851     10.50375     -7.08816        -0.110419     -0.392581      0.121458
      0.00000      5.15400     -4.23038         0.000000      0.165334     -0.118373
      0.00000      3.77742     -9.88657         0.000000      0.212456     -0.152480
      3.04554      5.13319     -4.22406         0.005420      0.179760     -0.118868
      3.05198      3.76942     -9.87274         0.013787      0.219775     -0.153419
      6.09717      5.13319     -4.22406        -0.005420      0.179760     -0.118868
      6.09072      3.76942     -9.87274        -0.013787      0.219775     -0.153419
      1.52943      7.48138     -3.18206         0.010914     -0.021814     -0.119012
      1.52707      6.09886     -8.82195         0.000421     -0.021559     -0.135408
      4.57135      7.51371     -3.20436         0.000000     -0.047413     -0.090431
      4.57135      6.10230     -8.81758         0.000000     -0.027214     -0.116258
      7.61327      7.48138     -3.18206        -0.010914     -0.021814     -0.119012
      7.61564      6.09886     -8.82195        -0.000421     -0.021559     -0.135408
      0.00000      9.55311     -2.49436         0.000000      0.023735      0.069088
      0.00000      8.16443     -8.15062         0.000000     -0.019993      0.112615
      3.02414      9.58532     -2.50720        -0.008321      0.044180      0.121018
      3.04793      8.17740     -8.14085         0.027676     -0.004763      0.104963
      6.11856      9.58532     -2.50720         0.008321      0.044180      0.121018
      6.09477      8.17740     -8.14085        -0.027676     -0.004763      0.104963
      0.00000      8.98382     -5.04043         0.000000      0.381489      0.020566
      0.00000      7.59386    -10.70440         0.000000      0.387961     -0.103733
      3.01790      9.12043     -5.03301        -0.002975      0.276563     -0.014704
      3.05165      7.57532    -10.68879         0.001954      0.409018     -0.112114
      6.12480      9.12043     -5.03301         0.002975      0.276563     -0.014704
      6.09105      7.57532    -10.68879        -0.001954      0.409018     -0.112114
      1.52767      8.05673     -0.62835        -0.005766     -0.395762      0.050164
      1.52844      6.69824     -6.26784         0.008489     -0.414250      0.108520
      4.57135      8.06452     -0.63733         0.000000     -0.390237      0.042965
      4.57135      6.70894     -6.25487         0.000000     -0.422376      0.099008
      7.61503      8.05673     -0.62835         0.005766     -0.395762      0.050164
      7.61426      6.69824     -6.26784        -0.008489     -0.414250      0.108520
      0.00000      5.72977     -1.46927         0.000000     -0.146047      0.101284
      0.00000      4.38355     -7.08478         0.000000     -0.108643      0.115433
      3.04979      5.73571     -1.47258         0.003548     -0.168768      0.108524
      3.05410      4.37557     -7.08371         0.005264     -0.147656      0.125309
      6.09291      5.73571     -1.47258        -0.003548     -0.168768      0.108524
      6.08861      4.37557     -7.08371        -0.005264     -0.147656      0.125309
      1.28894     -0.82911     -4.21838        -0.116756      0.298992     -0.102340
      1.52982     -2.38627     -9.88692         0.022807      0.117377     -0.155163
      4.57135     -0.94269     -4.21005         0.000000      0.124366     -0.094789
      4.57135     -2.37493     -9.87142         0.000000      0.168032     -0.128539
      7.85377     -0.82911     -4.21838         0.116756      0.298992     -0.102340
      7.61288     -2.38627     -9.88692        -0.022807      0.117377     -0.155163
      0.00000      1.18017     -3.25744         0.000000     -0.235200     -0.155850
      0.00000     -0.04041     -8.92479         0.000000     -0.117959     -0.478598
      3.03256      1.32725     -3.16998        -0.013339     -0.028077     -0.107997
      3.03439     -0.03332     -8.82142         0.052603     -0.066848     -0.186361
      6.11014      1.32725     -3.16998         0.013339     -0.028077     -0.107997
      6.10832     -0.03332     -8.82142        -0.052603     -0.066848     -0.186361
      1.49162      3.36673     -2.51103         0.008583      0.045810      0.104980
      1.49666      2.04118     -8.14371         0.126665      0.196415      0.006535
      4.57135      3.39326     -2.49890         0.000000      0.031041      0.128169
      4.57135      2.02268     -8.13459         0.000000      0.067881      0.118516
      7.65109      3.36673     -2.51103        -0.008583      0.045810      0.104980
      7.64605      2.04118     -8.14371        -0.126665      0.196415      0.006535
      1.51205      2.82345     -5.06593         0.014886      0.452125     -0.017849
      1.53141      1.46334    -10.71835         0.024987      0.412595     -0.166235
      4.57135      2.80789     -5.05395         0.000000      0.437154     -0.045241
      4.57135      1.45312    -10.69917         0.000000      0.401830     -0.117194
      7.63065      2.82345     -5.06593        -0.014886      0.452125     -0.017849
      7.61129      1.46334    -10.71835        -0.024987      0.412595     -0.166235
      0.00000      1.87505     -0.67891         0.000000     -0.422092     -0.006239
      3.05479      1.92823     -0.60911        -0.002844     -0.425875      0.040316
      3.01132      0.50902     -6.27575         0.086605     -0.363821      0.187440
      6.08791      1.92823     -0.60911         0.002844     -0.425875      0.040316
      6.13138      0.50902     -6.27575        -0.086605     -0.363821      0.187440
      0.00000      0.15087     -4.55495         0.000000     -0.253707      0.985934
 -----------------------------------------------------------------------------------
    total drift:                                0.000089      0.106042      0.013910


--------------------------------------------------------------------------------------------------------



  FREE ENERGIE OF THE ION-ELECTRON SYSTEM (eV)
  ---------------------------------------------------
  free  energy   TOTEN  =      -938.92034375 eV

  energy  without entropy=     -938.89213427  energy(sigma->0) =     -938.90623901
 


--------------------------------------------------------------------------------------------------------


    POTLOK:  cpu time      1.9924: real time      1.9920


--------------------------------------------------------------------------------------------------------


 writing wavefunctions
     LOOP+:  cpu time   1260.9546: real time   1261.3325
    4ORBIT:  cpu time      0.0000: real time      0.0000

 total amount of memory used by VASP MPI-rank0  1306125. kBytes
=======================================================================

   base      :      30000. kBytes
   nonlr-proj:      43511. kBytes
   fftplans  :      51012. kBytes
   grid      :     102973. kBytes
   one-center:       1850. kBytes
   HF        :        194. kBytes
   wavefun   :     868650. kBytes
   fock_wrk  :     207935. kBytes
 
  
  
 General timing and accounting informations for this job:
 ========================================================
  
                  Total CPU time used (sec):     1277.976
                            User time (sec):     1274.726
                          System time (sec):        3.250
                         Elapsed time (sec):     1280.004
  
                   Maximum memory used (kb):     5223488.
                   Average memory used (kb):          N/A
  
                          Minor page faults:       591931
                          Major page faults:           10
                 Voluntary context switches:        28744
