 vasp.6.4.2 20Jul23 (build Nov 12 2023 22:16:35) complex                         
 executed on              LinuxNV date 2025.03.16  17:37:08
 running    4 mpi-ranks, on    1 nodes
 distrk:  each k-point on    1 cores,    4 groups
 distr:  one band on NCORE=   1 cores,    1 groups
 OpenACC runtime initialized ...    4 GPUs detected


--------------------------------------------------------------------------------------------------------


 INCAR:
   PREC = Normal
   ENCUT = 450
   NELM = 500
   IBRION = -1
   ISPIN = 1
   NSW = 0
   ISIF = 2
   EDIFF = 1E-5
   EDIFFG = -5E-3
   ISTART = 0
   ICHARG = 0
   ISMEAR = 0
   SIGMA = 0.05
   LWAVE = .T.
   LCHARG = .T.
   LREAL = Auto
   LPLANE = .TRUE.
   NPAR = 1
   KPAR = 4
   NCORE = 1
   ALGO = All
   LHFCALC = .TRUE.
   HSE06 = .TRUE.
   HFSCREEN = 0.2
   TIME = 0.4
   AEXX = 0.32
   LMAXFOCK = 4
   PRECFOCK = Fast
   NELECT = 1056

 POTCAR:    PAW_PBE Ga_d 06Jul2010                
 POTCAR:     PAW_PBE O 08Apr2002                  
 POTCAR:    PAW_PBE P 06Sep2000                   
 POTCAR:    PAW_PBE Ga_d 06Jul2010                
   SHA256 =  a60ddf36e14f00ea098d9e3914b3745f1b7105e68786148f49ae384e44b4226c Ga_d/POTCAR           
   COPYR  = (c) Copyright 06Jul2010 Georg Kresse                                                    
   COPYR  = This file is part of the software VASP. Any use, copying, and all other rights are regul
   COPYR  = If you do not have a valid VASP license, you may not use, copy or distribute this file. 
   VRHFIN =Ga: s2p1                                                                                 
   LEXCH  = PE                                                                                      
   EATOM  =  2148.8298 eV,  157.9345 Ry                                                             
                                                                                                    
   TITEL  = PAW_PBE Ga_d 06Jul2010                                                                  
   LULTRA =        F    use ultrasoft PP ?                                                          
   IUNSCR =        1    unscreen: 0-lin 1-nonlin 2-no                                               
   RPACOR =    1.700    partial core radius                                                         
   POMASS =   69.723; ZVAL   =   13.000    mass and valenz                                          
   RCORE  =    2.300    outmost cutoff radius                                                       
   RWIGS  =    2.300; RWIGS  =    1.217    wigner-seitz radius (au A)                               
   ENMAX  =  282.691; ENMIN  =  212.018 eV                                                          
   ICORE  =        3    local potential                                                             
   LCOR   =        T    correct aug charges                                                         
   LPAW   =        T    paw PP                                                                      
   EAUG   =  490.690                                                                                
   DEXC   =    0.000                                                                                
   RMAX   =    2.341    core radius for proj-oper                                                   
   RAUG   =    1.300    factor for augmentation sphere                                              
   RDEP   =    2.413    radius for radial grids                                                     
   RDEPT  =    1.856    core radius for aug-charge                                                  
                                                                                                    
   Atomic configuration                                                                             
    9 entries                                                                                       
     n  l   j            E        occ.                                                              
     1  0  0.50    -10228.7831   2.0000                                                             
     2  0  0.50     -1262.1604   2.0000                                                             
     2  1  1.50     -1098.6333   6.0000                                                             
     3  0  0.50      -148.1110   2.0000                                                             
     3  1  1.50       -98.8436   6.0000                                                             
     3  2  2.50       -19.1549  10.0000                                                             
     4  0  0.50        -8.9483   2.0000                                                             
     4  1  0.50        -2.5791   1.0000                                                             
     4  3  2.50        -2.7416   0.0000                                                             
   Description                                                                                      
     l       E           TYP  RCUT    TYP  RCUT                                                     
     2    -19.1549037     23  2.300                                                                 
     2     -5.4423304     23  2.300                                                                 
     0     -8.9483111     23  2.300                                                                 
     0     68.0291300     23  2.300                                                                 
     1     -2.5790802     23  2.100                                                                 
     1     81.6349560     23  2.300                                                                 
     3      6.8029130     23  2.300                                                                 
  local pseudopotential read in
  partial core-charges read in
  partial kinetic energy density read in
  atomic valenz-charges read in
  non local Contribution for L=            2  read in
    real space projection operators read in
  non local Contribution for L=            2  read in
    real space projection operators read in
  non local Contribution for L=            0  read in
    real space projection operators read in
  non local Contribution for L=            0  read in
    real space projection operators read in
  non local Contribution for L=            1  read in
    real space projection operators read in
  non local Contribution for L=            1  read in
    real space projection operators read in
    PAW grid and wavefunctions read in
 
   number of l-projection  operators is LMAX  =            6
   number of lm-projection operators is LMMAX =           18
 
 POTCAR:     PAW_PBE O 08Apr2002                  
   SHA256 =  818f92134a0a090dccd8ba1447fa70422a3b330e708bb4f08108d8ae51209ddf O/POTCAR              
   COPYR  = (c) Copyright 08Apr2002 Georg Kresse                                                    
   COPYR  = This file is part of the software VASP. Any use, copying, and all other rights are regul
   COPYR  = If you do not have a valid VASP license, you may not use, copy or distribute this file. 
   VRHFIN =O: s2p4                                                                                  
   LEXCH  = PE                                                                                      
   EATOM  =   432.3788 eV,   31.7789 Ry                                                             
                                                                                                    
   TITEL  = PAW_PBE O 08Apr2002                                                                     
   LULTRA =        F    use ultrasoft PP ?                                                          
   IUNSCR =        1    unscreen: 0-lin 1-nonlin 2-no                                               
   RPACOR =    1.200    partial core radius                                                         
   POMASS =   16.000; ZVAL   =    6.000    mass and valenz                                          
   RCORE  =    1.520    outmost cutoff radius                                                       
   RWIGS  =    1.550; RWIGS  =    0.820    wigner-seitz radius (au A)                               
   ENMAX  =  400.000; ENMIN  =  300.000 eV                                                          
   ICORE  =        2    local potential                                                             
   LCOR   =        T    correct aug charges                                                         
   LPAW   =        T    paw PP                                                                      
   EAUG   =  605.392                                                                                
   DEXC   =    0.000                                                                                
   RMAX   =    1.553    core radius for proj-oper                                                   
   RAUG   =    1.300    factor for augmentation sphere                                              
   RDEP   =    1.550    radius for radial grids                                                     
   RDEPT  =    1.329    core radius for aug-charge                                                  
                                                                                                    
   Atomic configuration                                                                             
    4 entries                                                                                       
     n  l   j            E        occ.                                                              
     1  0  0.50      -514.6923   2.0000                                                             
     2  0  0.50       -23.9615   2.0000                                                             
     2  1  0.50        -9.0305   4.0000                                                             
     3  2  1.50        -9.5241   0.0000                                                             
   Description                                                                                      
     l       E           TYP  RCUT    TYP  RCUT                                                     
     0    -23.9615318     23  1.200                                                                 
     0     -9.5240782     23  1.200                                                                 
     1     -9.0304911     23  1.520                                                                 
     1      8.1634956     23  1.520                                                                 
     2     -9.5240782      7  1.500                                                                 
  local pseudopotential read in
  partial core-charges read in
  partial kinetic energy density read in
  kinetic energy density of atom read in
  atomic valenz-charges read in
  non local Contribution for L=            0  read in
    real space projection operators read in
  non local Contribution for L=            0  read in
    real space projection operators read in
  non local Contribution for L=            1  read in
    real space projection operators read in
  non local Contribution for L=            1  read in
    real space projection operators read in
    PAW grid and wavefunctions read in
 
   number of l-projection  operators is LMAX  =            4
   number of lm-projection operators is LMMAX =            8
 
 POTCAR:    PAW_PBE P 06Sep2000                   
   SHA256 =  df60c54a93efe35c9e85ae94c010c75e9f6960a95d5595d7cdba4096d109af88 P/POTCAR              
   COPYR  = (c) Copyright 06Sep2000 Georg Kresse                                                    
   COPYR  = This file is part of the software VASP. Any use, copying, and all other rights are regul
   COPYR  = If you do not have a valid VASP license, you may not use, copy or distribute this file. 
   VRHFIN =P : s2p3                                                                                 
   LEXCH  = PE                                                                                      
   EATOM  =   176.0430 eV,   12.9388 Ry                                                             
                                                                                                    
   TITEL  = PAW_PBE P 06Sep2000                                                                     
   LULTRA =        F    use ultrasoft PP ?                                                          
   IUNSCR =        1    unscreen: 0-lin 1-nonlin 2-no                                               
   RPACOR =    1.500    partial core radius                                                         
   POMASS =   30.974; ZVAL   =    5.000    mass and valenz                                          
   RCORE  =    1.900    outmost cutoff radius                                                       
   RWIGS  =    2.330; RWIGS  =    1.233    wigner-seitz radius (au A)                               
   ENMAX  =  255.040; ENMIN  =  191.280 eV                                                          
   ICORE  =        2    local potential                                                             
   LCOR   =        T    correct aug charges                                                         
   LPAW   =        T    paw PP                                                                      
   EAUG   =  342.924                                                                                
   DEXC   =    0.000                                                                                
   RMAX   =    1.935    core radius for proj-oper                                                   
   RAUG   =    1.300    factor for augmentation sphere                                              
   RDEP   =    1.931    radius for radial grids                                                     
   RDEPT  =    1.794    core radius for aug-charge                                                  
                                                                                                    
   Atomic configuration                                                                             
    6 entries                                                                                       
     n  l   j            E        occ.                                                              
     1  0  0.50     -2084.0982   2.0000                                                             
     2  0  0.50      -173.9859   2.0000                                                             
     2  1  1.50      -124.4865   6.0000                                                             
     3  0  0.50       -13.9692   2.0000                                                             
     3  1  0.50        -5.5067   3.0000                                                             
     3  2  1.50        -5.4423   0.0000                                                             
   Description                                                                                      
     l       E           TYP  RCUT    TYP  RCUT                                                     
     0    -13.9691527     23  1.900                                                                 
     0    -11.7794650     23  1.900                                                                 
     1     -5.5066937     23  1.900                                                                 
     1     -0.2556953     23  1.900                                                                 
     2     -5.4423304     23  1.900                                                                 
  local pseudopotential read in
  partial core-charges read in
  partial kinetic energy density read in
  atomic valenz-charges read in
  non local Contribution for L=            0  read in
    real space projection operators read in
  non local Contribution for L=            0  read in
    real space projection operators read in
  non local Contribution for L=            1  read in
    real space projection operators read in
  non local Contribution for L=            1  read in
    real space projection operators read in
    PAW grid and wavefunctions read in
 
   number of l-projection  operators is LMAX  =            4
   number of lm-projection operators is LMMAX =            8
 
 Optimization of the real space projectors (new method)

 maximal supplied QI-value         = 16.25
 optimisation between [QCUT,QGAM] = [ 10.73, 21.61] = [ 32.22,130.83] Ry 
 Optimized for a Real-space Cutoff    1.42 Angstroem

   l    n(q)    QCUT    max X(q) W(low)/X(q) W(high)/X(q)  e(spline) 
   2      8    10.726     7.143    0.22E-03    0.16E-03    0.73E-07
   2      8    10.726     5.586    0.40E-03    0.26E-03    0.10E-06
   0      9    10.726    12.382    0.25E-04    0.21E-05    0.37E-07
   0      9    10.726     6.622    0.42E-04    0.48E-05    0.77E-07
   1      9    10.726     7.935    0.27E-03    0.13E-04    0.16E-06
   1      9    10.726     2.425    0.23E-03    0.15E-04    0.14E-06
 Optimization of the real space projectors (new method)

 maximal supplied QI-value         = 24.76
 optimisation between [QCUT,QGAM] = [ 10.64, 21.54] = [ 31.73,129.89] Ry 
 Optimized for a Real-space Cutoff    1.23 Angstroem

   l    n(q)    QCUT    max X(q) W(low)/X(q) W(high)/X(q)  e(spline) 
   0      8    10.645    20.381    0.38E-03    0.60E-03    0.15E-06
   0      8    10.645    15.268    0.40E-03    0.65E-03    0.17E-06
   1      7    10.645     5.964    0.30E-03    0.63E-03    0.18E-06
   1      7    10.645     5.382    0.24E-03    0.53E-03    0.16E-06
 Optimization of the real space projectors (new method)

 maximal supplied QI-value         = 19.84
 optimisation between [QCUT,QGAM] = [ 10.71, 21.63] = [ 32.15,130.99] Ry 
 Optimized for a Real-space Cutoff    1.19 Angstroem

   l    n(q)    QCUT    max X(q) W(low)/X(q) W(high)/X(q)  e(spline) 
   0      8    10.715   160.924    0.37E-03    0.37E-04    0.63E-07
   0      8    10.715   130.086    0.37E-03    0.36E-04    0.63E-07
   1      7    10.715    74.434    0.19E-03    0.56E-03    0.65E-07
   1      7    10.715    49.120    0.19E-03    0.55E-03    0.63E-07
  PAW_PBE Ga_d 06Jul2010                :
 energy of atom  1       EATOM=-2148.8298
 kinetic energy error for atom=    0.0038 (will be added to EATOM!!)
   PAW_PBE O 08Apr2002                  :
 energy of atom  2       EATOM= -432.3788
 kinetic energy error for atom=    0.0389 (will be added to EATOM!!)
  PAW_PBE P 06Sep2000                   :
 energy of atom  3       EATOM= -176.0430
 kinetic energy error for atom=    0.0019 (will be added to EATOM!!)
 
 
 POSCAR: Ga48 O72
  positions in direct lattice
  velocities in cartesian coordinates
 exchange correlation table for  LEXCH =        8
   RHO(1)=    0.500       N(1)  =     2000
   RHO(2)=  100.500       N(2)  =     4000
 


--------------------------------------------------------------------------------------------------------


 ion  position               nearest neighbor table
   1  0.672  0.000  0.170-  78 1.94  82 1.94  84 1.97  66 1.99  60 2.00  64 2.00
   2  0.656  0.000  0.649-  85 1.94  83 1.94  79 1.94  67 1.96  61 2.07  65 2.07
   3  0.673  0.330  0.164-  68 1.93  80 1.97  86 1.97  78 1.97  60 1.98  62 2.05
   4  0.649  0.330  0.654-  79 1.88  87 1.93  81 1.95  69 2.02  61 2.08  63 2.09
   5  0.673  0.670  0.164-  70 1.93  80 1.97  88 1.97  82 1.97  64 1.98  62 2.05
   6  0.649  0.670  0.654-  83 1.88  89 1.93  81 1.95  71 2.02  65 2.08  63 2.09
   7  0.859  0.161  0.360-  90 1.83  74 1.88  72 1.94  60 2.12  66 2.12  68 2.36
   8  0.837  0.170  0.842-  91 1.93  75 1.96  73 1.98  69 2.00  67 2.09  61 2.10
   9  0.851  0.500  0.337-  92 1.95  76 1.96  74 1.96  70 2.04  68 2.04  62 2.10
  10  0.815  0.500  0.844-  93 1.84  63 1.95  71 2.04  69 2.04  75 2.11  77 2.11
  11  0.859  0.839  0.360-  94 1.83  76 1.88  72 1.94  64 2.12  66 2.12  70 2.36
  12  0.837  0.830  0.842-  95 1.93  77 1.96  73 1.98  71 2.00  67 2.09  65 2.10
  13  0.588  0.130  0.394-  79 1.93  56 1.97  60 2.00  54 2.06  17 2.38
  14  0.598  0.167  0.904-  78 1.83  61 1.84  55 1.85  57 1.85
  15  0.588  0.500  0.392-  81 1.84  62 1.87  56 1.88  58 1.88
  16  0.593  0.500  0.907-  80 1.81  59 1.83  57 1.83  63 1.87
  17  0.588  0.870  0.394-  83 1.93  58 1.97  64 2.00  54 2.06  13 2.38
  18  0.598  0.833  0.904-  82 1.83  65 1.84  55 1.85  59 1.85
  19  0.918  0.000  0.108-  48 1.84  52 1.84  66 1.87  73 1.90
  20  0.939  0.000  0.634-  67 1.97  53 1.98  49 1.98  72 2.00  37 2.61
  21  0.911  0.348  0.085-  48 1.87  75 1.92  50 1.92  68 1.92  93 2.13  23 2.78
  22  0.897  0.372  0.598-  49 1.90  74 1.93  69 2.02  51 2.03  24 2.34
  23  0.911  0.652  0.085-  52 1.87  77 1.92  50 1.92  70 1.92  93 2.13  21 2.78
  24  0.897  0.628  0.598-  53 1.90  76 1.93  71 2.02  51 2.03  22 2.34
  25  0.157  0.161  0.132- 115 1.91  96 1.95  48 1.97 114 1.97 102 1.99  98 2.34
  26  0.150  0.174  0.653-  49 1.95  99 1.96 116 2.02  97 2.18 119 2.29
  27  0.157  0.500  0.160-  50 1.92 115 1.95 117 1.95  98 2.01 100 2.01 104 2.11
  28  0.175  0.500  0.655-  51 1.80 116 1.90 118 1.90 105 1.96 101 2.26  99 2.26
  29  0.157  0.839  0.132- 117 1.91  96 1.95  52 1.97 114 1.97 106 1.99 100 2.34
  30  0.150  0.826  0.653-  53 1.95 101 1.96 118 2.02  97 2.18 119 2.29
  31  0.297  0.000  0.364-  96 1.86  54 1.87 108 1.96 112 1.96 119 2.54
  32  0.345  0.000  0.848-  97 1.91 113 1.96 109 1.96  55 1.97 103 2.01 107 2.01
  33  0.346  0.332  0.332- 108 1.87 110 1.96  56 1.97 102 1.98  98 2.01 104 2.03
  34  0.345  0.327  0.849- 103 1.93  99 1.93 109 1.95  57 1.95 111 1.96 105 2.12
  35  0.346  0.668  0.332- 112 1.87 110 1.96  58 1.97 106 1.98 100 2.01 104 2.03
  36  0.345  0.673  0.849- 107 1.93 101 1.93 113 1.95  59 1.95 111 1.96 105 2.12
  37  0.059  0.000  0.852-  97 1.91 114 1.97  91 2.05  95 2.05  20 2.61
  38  0.096  0.327  0.397-  90 1.78  98 1.87 116 1.89  92 1.90
  39  0.086  0.372  0.887-  91 1.89 115 1.92  99 1.97  41 2.34  93 2.40
  40  0.096  0.673  0.397-  94 1.78 100 1.87 118 1.89  92 1.90
  41  0.086  0.628  0.887-  95 1.89 117 1.92 101 1.97  39 2.34  93 2.40
  42  0.420  0.167  0.112- 102 1.81 109 1.82  84 1.84  86 1.85
  43  0.393  0.158  0.599- 103 1.84 108 1.84  85 1.88  87 1.92 119 2.76  47 2.88
  44  0.419  0.500  0.102- 111 1.84  88 1.85  86 1.85 104 1.86
  45  0.408  0.500  0.597- 110 1.83  89 1.85  87 1.85 105 1.90
  46  0.420  0.833  0.112- 106 1.81 113 1.82  84 1.84  88 1.85
  47  0.393  0.842  0.599- 107 1.84 112 1.84  85 1.88  89 1.92 119 2.76  43 2.88
  48  0.994  0.175  0.115-  19 1.84  21 1.87  25 1.97
  49  0.988  0.202  0.615-  22 1.90  26 1.95  20 1.98
  50  0.004  0.500  0.171-  27 1.92  23 1.92  21 1.92
  51  0.032  0.500  0.669-  28 1.80  24 2.03  22 2.03
  52  0.994  0.825  0.115-  19 1.84  23 1.87  29 1.97
  53  0.988  0.798  0.615-  24 1.90  30 1.95  20 1.98
  54  0.447  0.000  0.355-  31 1.87  17 2.06  13 2.06
  55  0.511  0.000  0.886-  14 1.85  18 1.85  32 1.97
  56  0.511  0.321  0.366-  15 1.88  33 1.97  13 1.97
  57  0.509  0.333  0.885-  16 1.83  14 1.85  34 1.95
  58  0.511  0.679  0.366-  15 1.88  35 1.97  17 1.97
  59  0.509  0.667  0.885-  16 1.83  18 1.85  36 1.95
  60  0.684  0.169  0.281-   3 1.98   1 2.00  13 2.00   7 2.12
  61  0.663  0.160  0.776-  14 1.84   2 2.07   4 2.08   8 2.10
  62  0.675  0.500  0.280-  15 1.87   5 2.05   3 2.05   9 2.10
  63  0.654  0.500  0.774-  16 1.87  10 1.95   4 2.09   6 2.09
  64  0.684  0.831  0.281-   5 1.98   1 2.00  17 2.00  11 2.12
  65  0.663  0.840  0.776-  18 1.84   2 2.07   6 2.08  12 2.10
  66  0.838  0.000  0.225-  19 1.87   1 1.99  11 2.12   7 2.12
  67  0.818  0.000  0.719-   2 1.96  20 1.97  12 2.09   8 2.09
  68  0.834  0.342  0.211-  21 1.92   3 1.93   9 2.04   7 2.36
  69  0.815  0.335  0.727-   8 2.00   4 2.02  22 2.02  10 2.04
  70  0.834  0.658  0.211-  23 1.92   5 1.93   9 2.04  11 2.36
  71  0.815  0.665  0.727-  12 2.00   6 2.02  24 2.02  10 2.04
  72  0.851  0.000  0.465-   7 1.94  11 1.94  20 2.00
  73  0.837  0.000  0.947-  19 1.90  12 1.98   8 1.98
  74  0.827  0.334  0.434-   7 1.88  22 1.93   9 1.96
  75  0.793  0.316  0.946-  21 1.92   8 1.96  10 2.11
  76  0.827  0.666  0.434-  11 1.88  24 1.93   9 1.96
  77  0.793  0.684  0.946-  23 1.92  12 1.96  10 2.11
  78  0.670  0.160  0.060-  14 1.83   1 1.94   3 1.97
  79  0.665  0.173  0.555-   4 1.88  13 1.93   2 1.94
  80  0.671  0.500  0.060-  16 1.81   5 1.97   3 1.97
  81  0.650  0.500  0.553-  15 1.84   6 1.95   4 1.95
  82  0.670  0.840  0.060-  18 1.83   1 1.94   5 1.97
  83  0.665  0.827  0.555-   6 1.88  17 1.93   2 1.94
  84  0.507  0.000  0.138-  42 1.84  46 1.84   1 1.97
  85  0.494  0.000  0.617-  43 1.88  47 1.88   2 1.94
  86  0.508  0.334  0.128-  42 1.85  44 1.85   3 1.97
  87  0.488  0.327  0.626-  45 1.85  43 1.92   4 1.93
  88  0.508  0.666  0.128-  46 1.85  44 1.85   5 1.97
  89  0.488  0.673  0.626-  45 1.85  47 1.92   6 1.93
  90  0.008  0.171  0.364-  38 1.78   7 1.83
  91  0.997  0.203  0.873-  39 1.89   8 1.93  37 2.05
  92  0.012  0.500  0.401-  38 1.90  40 1.90   9 1.95
  93  0.946  0.500  0.960-  10 1.84  21 2.13  23 2.13  39 2.40  41 2.40
  94  0.008  0.829  0.364-  40 1.78  11 1.83
  95  0.997  0.797  0.873-  41 1.89  12 1.93  37 2.05
  96  0.166  0.000  0.244-  31 1.86  29 1.95  25 1.95
  97  0.187  0.000  0.785-  37 1.91  32 1.91  26 2.18  30 2.18
  98  0.178  0.339  0.281-  38 1.87  27 2.01  33 2.01  25 2.34
  99  0.185  0.313  0.784-  34 1.93  26 1.96  39 1.97  28 2.26
 100  0.178  0.661  0.281-  40 1.87  27 2.01  35 2.01  29 2.34
 101  0.185  0.687  0.784-  36 1.93  30 1.96  41 1.97  28 2.26
 102  0.320  0.188  0.202-  42 1.81  33 1.98  25 1.99
 103  0.352  0.169  0.740-  43 1.84  34 1.93  32 2.01
 104  0.334  0.500  0.214-  44 1.86  35 2.03  33 2.03  27 2.11
 105  0.337  0.500  0.725-  45 1.90  28 1.96  36 2.12  34 2.12
 106  0.320  0.812  0.202-  46 1.81  35 1.98  29 1.99
 107  0.352  0.831  0.740-  47 1.84  36 1.93  32 2.01
 108  0.327  0.191  0.441-  43 1.84  33 1.87  31 1.96
 109  0.343  0.164  0.957-  42 1.82  34 1.95  32 1.96
 110  0.349  0.500  0.437-  45 1.83  35 1.96  33 1.96
 111  0.338  0.500  0.947-  44 1.84  36 1.96  34 1.96
 112  0.327  0.809  0.441-  47 1.84  35 1.87  31 1.96
 113  0.343  0.836  0.957-  46 1.82  36 1.95  32 1.96
 114  0.145  0.000  0.018-  25 1.97  29 1.97  37 1.97
 115  0.161  0.340  0.050-  25 1.91  39 1.92  27 1.95
 116  0.185  0.341  0.553-  38 1.89  28 1.90  26 2.02
 117  0.161  0.660  0.050-  29 1.91  41 1.92  27 1.95
 118  0.185  0.659  0.553-  40 1.89  28 1.90  30 2.02
 119  0.196  0.000  0.531-  26 2.29  30 2.29  31 2.54  43 2.76  47 2.76
 
  LATTYP: Found a simple monoclinic cell.
 ALAT       =    11.6348202465
 B/A-ratio  =     0.7858051831
 C/A-ratio  =     1.0554931797
 COS(beta)  =    -0.2379290539
  
  Lattice vectors:
  
 A1 = (   0.0000000000,  -2.7682617730, -11.3006977184)
 A2 = (  -9.1427020537,   0.0000000000,   0.0000000000)
 A3 = (   0.0000000000,  12.2804734172,   0.0000000000)


Analysis of symmetry for initial positions (statically):
=====================================================================
 Subroutine PRICEL returns:
 Original cell was already a primitive cell.
 

 Routine SETGRP: Setting up the symmetry group for a 
 simple monoclinic supercell.


 Subroutine GETGRP returns: Found  2 space group operations
 (whereof  2 operations were pure point group operations)
 out of a pool of  4 trial point group operations.


The static configuration has the point symmetry C_1h.


Analysis of symmetry for dynamics (positions and initial velocities):
=====================================================================
 Subroutine PRICEL returns:
 Original cell was already a primitive cell.
 

 Routine SETGRP: Setting up the symmetry group for a 
 simple monoclinic supercell.


 Subroutine GETGRP returns: Found  2 space group operations
 (whereof  2 operations were pure point group operations)
 out of a pool of  4 trial point group operations.


The dynamic configuration has the point symmetry C_1h.


 Subroutine INISYM returns: Found  2 space group operations
 (whereof  2 operations are pure point group operations),
 and found     1 'primitive' translations


----------------------------------------------------------------------------------------

                                     Primitive cell                                     

  volume of cell :    1268.8052

  direct lattice vectors                    reciprocal lattice vectors
     0.000000000 12.280473417  0.000000000     0.000000000  0.081430085 -0.019947423
     9.142702054  0.000000000  0.000000000     0.109376855 -0.000000000  0.000000000
     0.000000000 -2.768261773-11.300697718     0.000000000  0.000000000 -0.088490111

  length of vectors
    12.280473417  9.142702054 11.634820246     0.083837691  0.109376855  0.088490111

  position of ions in fractional coordinates (direct lattice)
     0.671647788  0.000000000  0.169577989
     0.656006144  0.000000000  0.649225657
     0.672540225  0.330076814  0.164060951
     0.649282789  0.329747763  0.653829336
     0.672540225  0.669923186  0.164060951
     0.649282789  0.670252237  0.653829336
     0.858632869  0.161459634  0.359621449
     0.837380106  0.169898246  0.842395435
     0.850531352  0.500000000  0.337452005
     0.815029304  0.500000000  0.844431394
     0.858632869  0.838540366  0.359621449
     0.837380106  0.830101754  0.842395435
     0.587936553  0.130372930  0.393787131
     0.597926849  0.167327782  0.903589122
     0.588458491  0.500000000  0.391782718
     0.593048825  0.500000000  0.907015868
     0.587936553  0.869627070  0.393787131
     0.597926849  0.832672218  0.903589122
     0.917774310  0.000000000  0.107970126
     0.938764825  0.000000000  0.633973088
     0.910886498  0.347839008  0.084904975
     0.897271044  0.371958791  0.598050577
     0.910886498  0.652160992  0.084904975
     0.897271044  0.628041209  0.598050577
     0.156778090  0.161490628  0.132495251
     0.150259552  0.174120012  0.652868323
     0.157120807  0.500000000  0.160153459
     0.174731913  0.500000000  0.655105572
     0.156778090  0.838509372  0.132495251
     0.150259552  0.825879988  0.652868323
     0.296695920  0.000000000  0.363773038
     0.345374154  0.000000000  0.848226865
     0.346270108  0.332485195  0.331624478
     0.344971663  0.326941274  0.848827395
     0.346270108  0.667514805  0.331624478
     0.344971663  0.673058726  0.848827395
     0.059290145  0.000000000  0.851918233
     0.095944241  0.326722870  0.397411114
     0.086423395  0.372163623  0.887133741
     0.095944241  0.673277130  0.397411114
     0.086423395  0.627836377  0.887133741
     0.420198865  0.166690344  0.111579166
     0.392787848  0.157691355  0.598641921
     0.419026142  0.500000000  0.102208952
     0.408176956  0.500000000  0.597427798
     0.420198865  0.833309656  0.111579166
     0.392787848  0.842308645  0.598641921
     0.993767987  0.175003729  0.114626218
     0.988410895  0.202185699  0.614725255
     0.003573271  0.500000000  0.170509591
     0.031837731  0.500000000  0.669467817
     0.993767987  0.824996271  0.114626218
     0.988410895  0.797814301  0.614725255
     0.446607065  0.000000000  0.354939142
     0.510802608  0.000000000  0.885692647
     0.511210815  0.321123723  0.366271171
     0.508715735  0.333128060  0.884502086
     0.511210815  0.678876277  0.366271171
     0.508715735  0.666871940  0.884502086
     0.684483733  0.169151206  0.280622790
     0.662830652  0.160376692  0.776131748
     0.674974702  0.500000000  0.279928331
     0.653789889  0.500000000  0.774375856
     0.684483733  0.830848794  0.280622790
     0.662830652  0.839623308  0.776131748
     0.837515644  0.000000000  0.225449951
     0.817639458  0.000000000  0.719231639
     0.834229152  0.341611838  0.210824853
     0.815432821  0.335075515  0.727052389
     0.834229152  0.658388162  0.210824853
     0.815432821  0.664924485  0.727052389
     0.850771459  0.000000000  0.465301016
     0.837206791  0.000000000  0.947277024
     0.826512978  0.333555173  0.434294000
     0.792977412  0.315604099  0.946072898
     0.826512978  0.666444827  0.434294000
     0.792977412  0.684395901  0.946072898
     0.670290337  0.159798613  0.059986458
     0.664734108  0.172842071  0.554724756
     0.670788532  0.500000000  0.060077648
     0.649657988  0.500000000  0.552757878
     0.670290337  0.840201387  0.059986458
     0.664734108  0.827157929  0.554724756
     0.506837191  0.000000000  0.138161564
     0.493717245  0.000000000  0.616846850
     0.507774942  0.333511693  0.127958330
     0.488082672  0.326647177  0.625614139
     0.507774942  0.666488307  0.127958330
     0.488082672  0.673352823  0.625614139
     0.008021497  0.170695683  0.363635088
     0.996581780  0.202875341  0.873281556
     0.012119669  0.500000000  0.401106071
     0.946413211  0.500000000  0.960140499
     0.008021497  0.829304317  0.363635088
     0.996581780  0.797124659  0.873281556
     0.165675376  0.000000000  0.243821467
     0.186898046  0.000000000  0.784761489
     0.177813946  0.339493669  0.281092305
     0.184939166  0.313320505  0.784275414
     0.177813946  0.660506331  0.281092305
     0.184939166  0.686679495  0.784275414
     0.319767399  0.187898642  0.201609644
     0.352365364  0.169383191  0.740440559
     0.333746635  0.500000000  0.214120639
     0.336709202  0.500000000  0.725407300
     0.319767399  0.812101358  0.201609644
     0.352365364  0.830616809  0.740440559
     0.326963538  0.190991884  0.441338948
     0.343181990  0.163958462  0.956795317
     0.349365962  0.500000000  0.437479645
     0.338070016  0.500000000  0.946921389
     0.326963538  0.809008116  0.441338948
     0.343181990  0.836041538  0.956795317
     0.144990444  0.000000000  0.018261416
     0.161146384  0.340446479  0.049839280
     0.185380662  0.340795660  0.553082296
     0.161146384  0.659553521  0.049839280
     0.185380662  0.659204340  0.553082296
     0.195927061  0.000000000  0.531091636

  ion indices of the primitive-cell ions
   primitive index   ion index
                 1           1
                 2           2
                 3           3
                 4           4
                 5           5
                 6           6
                 7           7
                 8           8
                 9           9
                10          10
                11          11
                12          12
                13          13
                14          14
                15          15
                16          16
                17          17
                18          18
                19          19
                20          20
                21          21
                22          22
                23          23
                24          24
                25          25
                26          26
                27          27
                28          28
                29          29
                30          30
                31          31
                32          32
                33          33
                34          34
                35          35
                36          36
                37          37
                38          38
                39          39
                40          40
                41          41
                42          42
                43          43
                44          44
                45          45
                46          46
                47          47
                48          48
                49          49
                50          50
                51          51
                52          52
                53          53
                54          54
                55          55
                56          56
                57          57
                58          58
                59          59
                60          60
                61          61
                62          62
                63          63
                64          64
                65          65
                66          66
                67          67
                68          68
                69          69
                70          70
                71          71
                72          72
                73          73
                74          74
                75          75
                76          76
                77          77
                78          78
                79          79
                80          80
                81          81
                82          82
                83          83
                84          84
                85          85
                86          86
                87          87
                88          88
                89          89
                90          90
                91          91
                92          92
                93          93
                94          94
                95          95
                96          96
                97          97
                98          98
                99          99
               100         100
               101         101
               102         102
               103         103
               104         104
               105         105
               106         106
               107         107
               108         108
               109         109
               110         110
               111         111
               112         112
               113         113
               114         114
               115         115
               116         116
               117         117
               118         118
               119         119

----------------------------------------------------------------------------------------

 
 
 KPOINTS: Automatic mesh                          

Automatic generation of k-mesh.
 Grid dimensions read from file:
 generate k-points for:    2    2    2

 Generating k-lattice:

  Cartesian coordinates                     Fractional coordinates (reciprocal lattice)
     0.000000000  0.040715043 -0.009973711     0.500000000  0.000000000  0.000000000
     0.054688428 -0.000000000  0.000000000     0.000000000  0.500000000  0.000000000
     0.000000000  0.000000000 -0.044245056     0.000000000  0.000000000  0.500000000

  Length of vectors
     0.041918846  0.054688428  0.044245056

  Shift w.r.t. Gamma in fractional coordinates (k-lattice)
     0.000000000  0.000000000  0.000000000

 
 Subroutine IBZKPT returns following result:
 ===========================================
 
 Found      8 irreducible k-points:
 
 Following reciprocal coordinates:
            Coordinates               Weight
  0.000000  0.000000  0.000000      1.000000
  0.500000  0.000000  0.000000      1.000000
  0.000000  0.500000  0.000000      1.000000
  0.500000  0.500000  0.000000      1.000000
  0.000000  0.000000  0.500000      1.000000
  0.500000  0.000000  0.500000      1.000000
  0.000000  0.500000  0.500000      1.000000
  0.500000  0.500000  0.500000      1.000000
 
 Following cartesian coordinates:
            Coordinates               Weight
  0.000000  0.000000 -0.000000      1.000000
  0.000000  0.040715 -0.009974      1.000000
  0.054688  0.000000 -0.000000      1.000000
  0.054688  0.040715 -0.009974      1.000000
  0.000000  0.000000 -0.044245      1.000000
  0.000000  0.040715 -0.054219      1.000000
  0.054688  0.000000 -0.044245      1.000000
  0.054688  0.040715 -0.054219      1.000000
 
 
 Subroutine IBZKPT_HF returns following result:
 ==============================================
 
 Found      8 k-points in 1st BZ
 the following      8 k-points will be used (e.g. in the exchange kernel)
 Following reciprocal coordinates:   # in IRBZ
  0.000000  0.000000  0.000000    0.12500000   1 t-inv F
  0.500000  0.000000  0.000000    0.12500000   2 t-inv F
  0.000000  0.500000  0.000000    0.12500000   3 t-inv F
  0.500000  0.500000  0.000000    0.12500000   4 t-inv F
  0.000000  0.000000  0.500000    0.12500000   5 t-inv F
  0.500000  0.000000  0.500000    0.12500000   6 t-inv F
  0.000000  0.500000  0.500000    0.12500000   7 t-inv F
  0.500000  0.500000  0.500000    0.12500000   8 t-inv F


--------------------------------------------------------------------------------------------------------




 Dimension of arrays:
   k-points           NKPTS =      8   k-points in BZ     NKDIM =      8   number of bands    NBANDS=    633
   number of dos      NEDOS =    301   number of ions     NIONS =    119
   non local maximal  LDIM  =      6   non local SUM 2l+1 LMDIM =     18
   total plane-waves  NPLWV = 184320
   max r-space proj   IRMAX =   1800   max aug-charges    IRDMAX=   5704
   dimension x,y,z NGX =    64 NGY =   48 NGZ =   60
   dimension x,y,z NGXF=   128 NGYF=   96 NGZF=  120
   support grid    NGXF=   128 NGYF=   96 NGZF=  120
   ions per type =              47  71   1
   NGX,Y,Z   is equivalent  to a cutoff of   8.66,  8.73,  8.57 a.u.
   NGXF,Y,Z  is equivalent  to a cutoff of  17.33, 17.46, 17.15 a.u.

 SYSTEM =  unknown system                          
 POSCAR =  Ga48 O72                                

 Startparameter for this run:
   NWRITE =      2    write-flag & timer
   PREC   = normal    normal or accurate (medium, high low for compatibility)
   ISTART =      0    job   : 0-new  1-cont  2-samecut
   ICHARG =      0    charge: 1-file 2-atom 10-const
   ISPIN  =      1    spin polarized calculation?
   LNONCOLLINEAR =      F non collinear calculations
   LSORBIT =      F    spin-orbit coupling
   INIWAV =      1    electr: 0-lowe 1-rand  2-diag
   LASPH  =      F    aspherical Exc in radial PAW
 Electronic Relaxation 1
   ENCUT  =  450.0 eV  33.07 Ry    5.75 a.u.  21.24 15.81 20.12*2*pi/ulx,y,z
   ENINI  =  450.0     initial cutoff
   ENAUG  =  605.4 eV  augmentation charge cutoff
   NELM   =    500;   NELMIN=  2; NELMDL= -5     # of ELM steps 
   EDIFF  = 0.1E-04   stopping-criterion for ELM
   LREAL  =      T    real-space projection
   NLSPLINE    = F    spline interpolate recip. space projectors
   LCOMPAT=      F    compatible to vasp.4.4
   GGA_COMPAT  = T    GGA compatible to vasp.4.4-vasp.4.6
   LMAXPAW     = -100 max onsite density
   LMAXMIX     =    2 max onsite mixed and CHGCAR
   VOSKOWN=      0    Vosko Wilk Nusair interpolation
   ROPT   =   -0.00050  -0.00050  -0.00050
 Ionic relaxation
   EDIFFG = -.5E-02   stopping-criterion for IOM
   NSW    =      0    number of steps for IOM
   NBLOCK =      1;   KBLOCK =      1    inner block; outer block 
   IBRION =     -1    ionic relax: 0-MD 1-quasi-New 2-CG
   NFREE  =      0    steps in history (QN), initial steepest desc. (CG)
   ISIF   =      2    stress and relaxation
   IWAVPR =     10    prediction:  0-non 1-charg 2-wave 3-comb
   ISYM   =      3    0-nonsym 1-usesym 2-fastsym
   LCORR  =      T    Harris-Foulkes like correction to forces

   POTIM  = 0.5000    time-step for ionic-motion
   TEIN   =    0.0    initial temperature
   TEBEG  =    0.0;   TEEND  =   0.0 temperature during run
   SMASS  =  -3.00    Nose mass-parameter (am)
   estimated Nose-frequenzy (Omega)   =  0.10E-29 period in steps = 0.13E+47 mass=  -0.345E-26a.u.
   SCALEE = 1.0000    scale energy and forces
   NPACO  =    256;   APACO  = 10.0  distance and # of slots for P.C.
   PSTRESS=    0.0 pullay stress

  Mass of Ions in am
   POMASS =  69.72 16.00 30.97
  Ionic Valenz
   ZVAL   =  13.00  6.00  5.00
  Atomic Wigner-Seitz radii
   RWIGS  =  -1.00 -1.00 -1.00
  virtual crystal weights 
   VCA    =   1.00  1.00  1.00
   NELECT =    1056.0000    total number of electrons
   NUPDOWN=      -1.0000    fix difference up-down

 DOS related values:
   EMIN   =  10.00;   EMAX   =-10.00  energy-range for DOS
   EFERMI =   0.00;   METHOD = LEGACY      
   ISMEAR =     0;   SIGMA  =   0.05  broadening in eV -4-tet -1-fermi 0-gaus

 Electronic relaxation 2 (details)
   IALGO  =     58    algorithm
   LDIAG  =      T    sub-space diagonalisation (order eigenvalues)
   LSUBROT=      F    optimize rotation matrix (better conditioning)
   TURBO    =      0    0=normal 1=particle mesh
   IRESTART =      0    0=no restart 2=restart with 2 vectors
   NREBOOT  =      0    no. of reboots
   NMIN     =      0    reboot dimension
   EREF     =   0.00    reference energy to select bands
   IMIX   =      4    mixing-type and parameters
     AMIX     =   0.40;   BMIX     =  1.00
     AMIX_MAG =   1.60;   BMIX_MAG =  1.00
     AMIN     =   0.10
     WC   =   100.;   INIMIX=   1;  MIXPRE=   1;  MAXMIX= -45

 Intra band minimization:
   WEIMIN = 0.0000     energy-eigenvalue tresh-hold
   EBREAK =  0.39E-08  absolut break condition
   DEPER  =   0.30     relativ break condition  

   TIME   =   0.40     timestep for ELM

  volume/ion in A,a.u.               =      10.66        71.95
  Fermi-wavevector in a.u.,A,eV,Ry     =   1.539919  2.910025 32.264175  2.371350
  Thomas-Fermi vector in A             =   2.646079
 
 Write flags
   LWAVE        =      T    write WAVECAR
   LDOWNSAMPLE  =      F    k-point downsampling of WAVECAR
   LCHARG       =      T    write CHGCAR
   LVTOT        =      F    write LOCPOT, total local potential
   LVHAR        =      F    write LOCPOT, Hartree potential only
   LELF         =      F    write electronic localiz. function (ELF)
   LORBIT       =      0    0 simple, 1 ext, 2 COOP (PROOUT), +10 PAW based schemes


 Dipole corrections
   LMONO  =      F    monopole corrections only (constant potential shift)
   LDIPOL =      F    correct potential (dipole corrections)
   IDIPOL =      0    1-x, 2-y, 3-z, 4-all directions 
   EPSILON=  1.0000000 bulk dielectric constant

 Exchange correlation treatment:
   GGA     =    --    GGA type
   LEXCH   =     8    internal setting for exchange type
   LIBXC   =     F    Libxc                    
   VOSKOWN =     0    Vosko Wilk Nusair interpolation
   EXXOEP  =     0    0=HF, 1=EXX-LHF (local Hartree Fock) 2=EXX OEP
   LHFCALC =     T    Hartree Fock is set to
   LSYMGRAD=     F    symmetrize gradient (conserves proper symmetry)
   PRECFOCK=fast      Normal, Fast or Accurate (Low or Medium for compatibility)
   LRHFCALC=     F    long range Hartree Fock
   LRSCOR  =     F    long range correlation only (use DFT for short range part)
   LTHOMAS =     F    Thomas Fermi screening in HF
   LMODELHF=     F    short range full HF, long range fraction AEXX
   FOCKCORR=     1    mode to apply convergence corrections
   LFOCKACE=     T    use Adeptively-Compressed-Exchange operator
   ENCUT4O =  -1.0   cutoff for four orbital integrals eV
   LMAXFOCK=     4    L truncation for augmentation on plane wave grid
   LMAXFOCKAE=  -1    L truncation for all-electron charge restoration on plane wave grid
   NMAXFOCKAE=   1    number of basis functions for all-electron charge restoration
   LFOCKAEDFT=     F  apply the AE augmentation even for DFT
   NKREDX  =     1    reduce k-point grid by
   NKREDY  =     1    reduce k-point grid by
   NKREDZ  =     1    reduce k-point grid by
   SHIFTRED=     F    shift reduced grid of Gamma
   HFKIDENT=     F    idential grid for each k-point
   ODDONLY =     F    use only odd q-grid points
   EVENONLY=     F    use only even q-grid points
   HFALPHA =   -1.0000 decay constant for conv. correction
   MCALPHA =    0.0000 extent of test-charge in conv. correction in multipole expansion
   AEXX    =    0.3200 exact exchange contribution
   HFSCREEN=    0.2000 screening length (either q_TF or 0.3 A-1)
   HFSCREENC=   0.2000 screening length for correlation (either q_TF or 0.3 A-1)
   HFRCUT  =    0.0000 spherical cutoff for potential kernel
   ALDAX   =    0.6800 LDA exchange part
   AGGAX   =    0.6800 GGA exchange part
   ALDAC   =    1.0000 LDA correlation
   AGGAC   =    1.0000 GGA correlation
   ENCUTFOCK=  -1.0 apply spherical cutoff to Coloumb kernel
   NBANDSGWLOW=     1    first orbital included in HF term
   NBLOCK_FOCK=    64    blocking factor in FOCK_ACC

 Linear response parameters
   LEPSILON=     F    determine dielectric tensor
   LRPA    =     F    only Hartree local field effects (RPA)
   LNABLA  =     F    use nabla operator in PAW spheres
   LVEL    =     F    velocity operator in full k-point grid
   CSHIFT  =0.1000    complex shift for real part using Kramers Kronig
   OMEGAMAX=  -1.0    maximum frequency
   DEG_THRESHOLD= 0.2000000E-02 threshold for treating states as degnerate
   RTIME   =   -0.100 relaxation time in fs
  (WPLASMAI=    0.000 imaginary part of plasma frequency in eV, 0.658/RTIME)
   DFIELD  = 0.0000000 0.0000000 0.0000000 field for delta impulse in time
 
  Optional k-point grid parameters
   LKPOINTS_OPT  =     F    use optional k-point grid
   KPOINTS_OPT_MODE=     1    mode for optional k-point grid
 
 Orbital magnetization related:
   ORBITALMAG=     F  switch on orbital magnetization
   LCHIMAG   =     F  perturbation theory with respect to B field
   DQ        =  0.001000  dq finite difference perturbation B field
   LLRAUG    =     F  two centre corrections for induced B field
   LBONE     =     F  B-component reconstruction in AE one-centre
   LVGVCALC  =     T  calculate vGv susceptibility
   LVGVAPPL  =     F  apply vGv susceptibility instead of pGv for G=0

 Random number generation:
   RANDOM_GENERATOR = DEFAULT
   PCG_SEED         = not used


--------------------------------------------------------------------------------------------------------


 Static calculation
 charge density and potential will be updated during run
 non-spin polarized calculation
 Conjugate gradient for all bands (Freysoldt, et al. PRB 79, 241103 (2009))
 preconditioned conjugated gradient                                        
 perform sub-space diagonalisation
    before iterative eigenvector-optimisation
 modified Broyden-mixing scheme, WC =      100.0
 initial mixing is a Kerker type mixing with AMIX =  0.4000 and BMIX =      1.0000
 Hartree-type preconditioning will be used
 using additional bands           105
 real space projection scheme for non local part
 use partial core corrections
 no Harris-corrections to forces 
 use gradient corrections 
 use of overlap-Matrix (Vanderbilt PP)
 Gauss-broadening in eV      SIGMA  =   0.05


--------------------------------------------------------------------------------------------------------


  energy-cutoff  :      450.00
  volume of cell :     1268.81
      direct lattice vectors                 reciprocal lattice vectors
     0.000000000 12.280473417  0.000000000     0.000000000  0.081430085 -0.019947423
     9.142702054  0.000000000  0.000000000     0.109376855 -0.000000000  0.000000000
     0.000000000 -2.768261773-11.300697718     0.000000000  0.000000000 -0.088490111

  length of vectors
    12.280473417  9.142702054 11.634820246     0.083837691  0.109376855  0.088490111


 
 k-points in units of 2pi/SCALE and weight: Automatic mesh                          
   0.00000000  0.00000000 -0.00000000       0.125
   0.00000000  0.04071504 -0.00997371       0.125
   0.05468843  0.00000000 -0.00000000       0.125
   0.05468843  0.04071504 -0.00997371       0.125
   0.00000000  0.00000000 -0.04424506       0.125
   0.00000000  0.04071504 -0.05421877       0.125
   0.05468843  0.00000000 -0.04424506       0.125
   0.05468843  0.04071504 -0.05421877       0.125
 
 k-points in reciprocal lattice and weights: Automatic mesh                          
   0.00000000  0.00000000  0.00000000       0.125
   0.50000000  0.00000000  0.00000000       0.125
   0.00000000  0.50000000  0.00000000       0.125
   0.50000000  0.50000000  0.00000000       0.125
   0.00000000  0.00000000  0.50000000       0.125
   0.50000000  0.00000000  0.50000000       0.125
   0.00000000  0.50000000  0.50000000       0.125
   0.50000000  0.50000000  0.50000000       0.125
 
 position of ions in fractional coordinates (direct lattice) 
   0.67164779  0.00000000  0.16957799
   0.65600614  0.00000000  0.64922566
   0.67254023  0.33007681  0.16406095
   0.64928279  0.32974776  0.65382934
   0.67254023  0.66992319  0.16406095
   0.64928279  0.67025224  0.65382934
   0.85863287  0.16145963  0.35962145
   0.83738011  0.16989825  0.84239544
   0.85053135  0.50000000  0.33745201
   0.81502930  0.50000000  0.84443139
   0.85863287  0.83854037  0.35962145
   0.83738011  0.83010175  0.84239544
   0.58793655  0.13037293  0.39378713
   0.59792685  0.16732778  0.90358912
   0.58845849  0.50000000  0.39178272
   0.59304883  0.50000000  0.90701587
   0.58793655  0.86962707  0.39378713
   0.59792685  0.83267222  0.90358912
   0.91777431  0.00000000  0.10797013
   0.93876483  0.00000000  0.63397309
   0.91088650  0.34783901  0.08490498
   0.89727104  0.37195879  0.59805058
   0.91088650  0.65216099  0.08490498
   0.89727104  0.62804121  0.59805058
   0.15677809  0.16149063  0.13249525
   0.15025955  0.17412001  0.65286832
   0.15712081  0.50000000  0.16015346
   0.17473191  0.50000000  0.65510557
   0.15677809  0.83850937  0.13249525
   0.15025955  0.82587999  0.65286832
   0.29669592  0.00000000  0.36377304
   0.34537415  0.00000000  0.84822686
   0.34627011  0.33248519  0.33162448
   0.34497166  0.32694127  0.84882740
   0.34627011  0.66751481  0.33162448
   0.34497166  0.67305873  0.84882740
   0.05929015  0.00000000  0.85191823
   0.09594424  0.32672287  0.39741111
   0.08642340  0.37216362  0.88713374
   0.09594424  0.67327713  0.39741111
   0.08642340  0.62783638  0.88713374
   0.42019886  0.16669034  0.11157917
   0.39278785  0.15769135  0.59864192
   0.41902614  0.50000000  0.10220895
   0.40817696  0.50000000  0.59742780
   0.42019886  0.83330966  0.11157917
   0.39278785  0.84230865  0.59864192
   0.99376799  0.17500373  0.11462622
   0.98841090  0.20218570  0.61472525
   0.00357327  0.50000000  0.17050959
   0.03183773  0.50000000  0.66946782
   0.99376799  0.82499627  0.11462622
   0.98841090  0.79781430  0.61472525
   0.44660706  0.00000000  0.35493914
   0.51080261  0.00000000  0.88569265
   0.51121081  0.32112372  0.36627117
   0.50871574  0.33312806  0.88450209
   0.51121081  0.67887628  0.36627117
   0.50871574  0.66687194  0.88450209
   0.68448373  0.16915121  0.28062279
   0.66283065  0.16037669  0.77613175
   0.67497470  0.50000000  0.27992833
   0.65378989  0.50000000  0.77437586
   0.68448373  0.83084879  0.28062279
   0.66283065  0.83962331  0.77613175
   0.83751564  0.00000000  0.22544995
   0.81763946  0.00000000  0.71923164
   0.83422915  0.34161184  0.21082485
   0.81543282  0.33507551  0.72705239
   0.83422915  0.65838816  0.21082485
   0.81543282  0.66492449  0.72705239
   0.85077146  0.00000000  0.46530102
   0.83720679  0.00000000  0.94727702
   0.82651298  0.33355517  0.43429400
   0.79297741  0.31560410  0.94607290
   0.82651298  0.66644483  0.43429400
   0.79297741  0.68439590  0.94607290
   0.67029034  0.15979861  0.05998646
   0.66473411  0.17284207  0.55472476
   0.67078853  0.50000000  0.06007765
   0.64965799  0.50000000  0.55275788
   0.67029034  0.84020139  0.05998646
   0.66473411  0.82715793  0.55472476
   0.50683719  0.00000000  0.13816156
   0.49371724  0.00000000  0.61684685
   0.50777494  0.33351169  0.12795833
   0.48808267  0.32664718  0.62561414
   0.50777494  0.66648831  0.12795833
   0.48808267  0.67335282  0.62561414
   0.00802150  0.17069568  0.36363509
   0.99658178  0.20287534  0.87328156
   0.01211967  0.50000000  0.40110607
   0.94641321  0.50000000  0.96014050
   0.00802150  0.82930432  0.36363509
   0.99658178  0.79712466  0.87328156
   0.16567538  0.00000000  0.24382147
   0.18689805  0.00000000  0.78476149
   0.17781395  0.33949367  0.28109230
   0.18493917  0.31332050  0.78427541
   0.17781395  0.66050633  0.28109230
   0.18493917  0.68667950  0.78427541
   0.31976740  0.18789864  0.20160964
   0.35236536  0.16938319  0.74044056
   0.33374663  0.50000000  0.21412064
   0.33670920  0.50000000  0.72540730
   0.31976740  0.81210136  0.20160964
   0.35236536  0.83061681  0.74044056
   0.32696354  0.19099188  0.44133895
   0.34318199  0.16395846  0.95679532
   0.34936596  0.50000000  0.43747964
   0.33807002  0.50000000  0.94692139
   0.32696354  0.80900812  0.44133895
   0.34318199  0.83604154  0.95679532
   0.14499044  0.00000000  0.01826142
   0.16114638  0.34044648  0.04983928
   0.18538066  0.34079566  0.55308230
   0.16114638  0.65955352  0.04983928
   0.18538066  0.65920434  0.55308230
   0.19592706  0.00000000  0.53109164
 
 position of ions in cartesian coordinates  (Angst):
   0.00000000  7.77871654 -1.91634960
   0.00000000  6.25883945 -7.33670290
   3.01779397  7.80494870 -1.85400322
   3.01478555  6.16352928 -7.38872769
   6.12490808  7.80494870 -1.85400322
   6.12791650  6.16352928 -7.38872769
   1.47617732  9.54889182 -4.06397329
   1.55332905  7.95145305 -9.51965617
   4.57135103  9.51077218 -3.81344310
   4.57135103  7.67133856 -9.54266393
   7.66652473  9.54889182 -4.06397329
   7.58937301  7.95145305 -9.51965617
   1.19196086  6.13003335 -4.45006933
   1.52982805  4.84145355-10.21118753
   4.57135103  6.14199174 -4.42741807
   4.57135103  4.77206298-10.24991215
   7.95074120  6.13003335 -4.45006933
   7.61287400  4.84145355-10.21118753
   0.00000000 10.97181345 -1.22013775
   0.00000000  9.77347302 -7.16433822
   3.18018842 10.95107823 -0.95948546
   3.40070840  9.36335265 -6.75838880
   5.96251364 10.95107823 -0.95948546
   5.74199365  9.36335265 -6.75838880
   1.47646069  1.55852763 -1.49728879
   1.59192739  0.03794802 -7.37786757
   4.57135103  1.48617120 -1.80984583
   4.57135103  0.33228690 -7.40315005
   7.66624136  1.55852763 -1.49728879
   7.55077466  0.03794802 -7.37786757
   0.00000000  2.63654737 -4.11088914
   0.00000000  1.89324412 -9.58555540
   3.03981307  3.33433749 -3.74758799
   2.98912665  1.88663890 -9.59234181
   6.10288898  3.33433749 -3.74758799
   6.15357540  1.88663890 -9.59234181
   0.00000000 -1.63022162 -9.62727043
   2.98712986  0.07810271 -4.49102287
   3.40258112 -1.39449821-10.02523024
   6.15557219  0.07810271 -4.49102287
   5.74012093 -1.39449821-10.02523024
   1.52400015  4.85136065 -1.26092243
   1.44172507  3.16642319 -6.76507139
   4.57135103  4.86289826 -1.15503248
   4.57135103  3.35876972 -6.75135095
   7.61870191  4.85136065 -1.26092243
   7.70097698  3.16642319 -6.76507139
   1.60000695 11.88662597 -1.29535624
   1.84852361 10.43643330 -6.94682429
   4.57135103 -0.42813372 -1.92687734
   4.57135103 -1.46227975 -7.56545343
   7.54269510 11.88662597 -1.29535624
   7.29417845 10.43643330 -6.94682429
   0.00000000  4.50198173 -4.01105995
   0.00000000  3.82106876-10.00894487
   2.93593852  5.26397634 -4.13911979
   3.04569060  3.79873675 -9.99549071
   6.20676353  5.26397634 -4.13911979
   6.09701146  3.79873675 -9.99549071
   1.54649908  7.62894695 -3.17123333
   1.46627631  5.99133835 -8.77083027
   4.57135103  7.51409399 -3.16338546
   4.57135103  5.88517427 -8.75098747
   7.59620297  7.62894695 -3.17123333
   7.67642574  5.99133835 -8.77083027
   0.00000000  9.66098412 -2.54774175
   0.00000000  8.04997818 -8.12781934
   3.12325525  9.66111054 -2.38246794
   3.06349560  8.00122975 -8.21619927
   6.01944680  9.66111054 -2.38246794
   6.07920646  8.00122975 -8.21619927
   0.00000000  9.15980127 -5.25822613
   0.00000000  7.65898497-10.70489131
   3.04959556  8.94773118 -4.90782521
   2.88547425  7.11916059-10.69128384
   6.09310649  8.94773118 -4.90782521
   6.25722781  7.11916059-10.69128384
   1.46099111  8.06542445 -0.67788883
   1.58024356  6.62762620 -6.26877678
   4.57135103  8.07129008 -0.67891934
   4.57135103  6.44792914 -6.24654969
   7.68171095  8.06542445 -0.67788883
   7.56245849  6.62762620 -6.26877678
   0.00000000  5.84173327 -1.56132208
   0.00000000  4.35548795 -6.97079979
   3.04919804  5.88149452 -1.44601841
   2.98643782  4.26202257 -7.06987627
   6.09350402  5.88149452 -1.44601841
   6.15626424  4.26202257 -7.06987627
   1.56061978 -0.90812933 -4.10933020
   1.85482880  9.82102411 -9.86869089
   4.57135103 -0.96153133 -4.53277846
   4.57135103  8.96448203-10.85025755
   7.58208228 -0.90812933 -4.10933020
   7.28787325  9.82102411 -9.86869089
   0.00000000  1.35961041 -2.75535269
   0.00000000  0.12277126 -8.86835237
   3.10388947  1.40550236 -3.17653916
   2.86459602  0.10006086 -8.86285939
   6.03881258  1.40550236 -3.17653916
   6.27810603  0.10006086 -8.86285939
   1.71790130  3.36878677 -2.27832965
   1.54862005  2.27748019 -8.36749493
   4.57135103  3.50582470 -2.41971262
   4.57135103  2.12683111 -8.19760862
   7.42480075  3.36878677 -2.27832965
   7.59408201  2.27748019 -8.36749493
   1.74618189  2.79352530 -4.98743804
   1.49902337  1.56577740-10.81245466
   4.57135103  3.07932123 -4.94382523
   4.57135103  1.53033356-10.70087239
   7.39652017  2.79352530 -4.98743804
   7.64367869  1.56577740-10.81245466
   0.00000000  1.72999891 -0.20636674
   3.11260073  1.84098572 -0.56321864
   3.11579318  0.74548571 -6.25021584
   6.03010133  1.84098572 -0.56321864
   6.02690887  0.74548571 -6.25021584
   0.00000000  0.93587640 -6.00170604
 


--------------------------------------------------------------------------------------------------------


 k-point   1 :   0.0000 0.0000 0.0000  plane waves:   27533
 k-point   2 :   0.5000 0.0000 0.0000  plane waves:   27522
 k-point   3 :   0.0000 0.5000 0.0000  plane waves:   27488
 k-point   4 :   0.5000 0.5000 0.0000  plane waves:   27488
 k-point   5 :   0.0000 0.0000 0.5000  plane waves:   27482
 k-point   6 :   0.5000 0.0000 0.5000  plane waves:   27476
 k-point   7 :   0.0000 0.5000 0.5000  plane waves:   27468
 k-point   8 :   0.5000 0.5000 0.5000  plane waves:   27564

 maximum and minimum number of plane-waves per node :     27564    27468

 maximum number of plane-waves:     27564
 maximum index in each direction: 
   IXMAX=   21   IYMAX=   15   IZMAX=   20
   IXMIN=  -21   IYMIN=  -16   IZMIN=  -20


 serial   3D FFT for wavefunctions
 parallel 3D FFT for charge:
    minimum data exchange during FFTs selected (reduces bandwidth)


 FFT grid for exact exchange (Hartree Fock) 
  NGX = 48; NGY = 36; NGZ = 48

 
 Radii for the augmentation spheres in the non-local exchange
 for species   1 augmentation radius   1.392 (default was   1.031)
       energy cutoff for augmentation   1800.0
 for species   2 augmentation radius   0.974 (default was   0.722)
       energy cutoff for augmentation   1800.0
 for species   3 augmentation radius   1.294 (default was   0.959)
       energy cutoff for augmentation   1800.0
 Maximum index for augmentation-charges in exchange           752
  SETUP_FOCK is finished

 total amount of memory used by VASP MPI-rank0  7264233. kBytes
=======================================================================

   base      :      30000. kBytes
   nonlr-proj:      32521. kBytes
   fftplans  :      51012. kBytes
   grid      :     102973. kBytes
   one-center:       1850. kBytes
   HF        :        194. kBytes
   wavefun   :    7045683. kBytes
 
     INWAV:  cpu time      0.0001: real time      0.0002
 Broyden mixing: mesh for mixing (old mesh)
   NGX = 43   NGY = 31   NGZ = 41
  (NGX  =128   NGY  = 96   NGZ  =120)
  gives a total of  54653 points

 charge density for first step will be calculated from the start-wavefunctions


--------------------------------------------------------------------------------------------------------


 Maximum index for non-local projection operator          1721
 Maximum index for augmentation-charges          5357 (set IRDMAX)


--------------------------------------------------------------------------------------------------------


 initial charge from wavefunction
 First call to EWALD:  gamma=   0.164
 Maximum number of real-space cells 3x 3x 3
 Maximum number of reciprocal cells 3x 2x 3

    FEWALD:  cpu time      0.0731: real time      0.0731


--------------------------------------- Ionic step        1  -------------------------------------------




--------------------------------------- Iteration      1(   1)  ---------------------------------------


    POTLOK:  cpu time      0.0507: real time      0.0507
    SETDIJ:  cpu time      0.1167: real time      0.1167
    TRIAL :  cpu time      2.8970: real time      2.9132
    CORREC:  cpu time      0.0015: real time      0.0015
    --------------------------------------------
      LOOP:  cpu time      3.9631: real time      3.9791

 eigenvalue-minimisations  : 10624
 total energy-change (2. order) :-0.1795150E+05  (-0.5435761E+05)
 number of electron    1055.9999920 magnetization 
 augmentation part      119.6637831 magnetization 

 Free energy of the ion-electron system (eV)
  ---------------------------------------------------
  alpha Z        PSCENC =      5376.25786726
  Ewald energy   TEWEN  =    -86471.71720945
  -Hartree energ DENC   =     -2126.59831253
  -exchange      EXHF   =         0.00000000
  -V(xc)+E(xc)   XCENC  =      2816.07945976
  PAW double counting   =    342963.60876573  -371767.32125700
  entropy T*S    EENTRO =        -0.00841961
  eigenvalues    EBANDS =    -40242.03949239
  atomic energy  EATOM  =    131500.23896116
  ---------------------------------------------------
  free energy    TOTEN  =    -17951.49963708 eV

  energy without entropy =   -17951.49121747  energy(sigma->0) =   -17951.49542728
  exchange ACFDT corr.  =         0.00000000  see jH, gK, PRB 81, 115126


--------------------------------------------------------------------------------------------------------




--------------------------------------- Iteration      1(   2)  ---------------------------------------


    TRIAL :  cpu time      3.1204: real time      3.1199
    CORREC:  cpu time      0.0016: real time      0.0016
    --------------------------------------------
      LOOP:  cpu time      3.1222: real time      3.1227

 eigenvalue-minimisations  : 13088
 total energy-change (2. order) :-0.4589040E+05  (-0.4413350E+05)
 number of electron    1055.9999920 magnetization 
 augmentation part      119.6637831 magnetization 

 Free energy of the ion-electron system (eV)
  ---------------------------------------------------
  alpha Z        PSCENC =      5376.25786726
  Ewald energy   TEWEN  =    -86471.71720945
  -Hartree energ DENC   =     -2126.59831253
  -exchange      EXHF   =         0.00000000
  -V(xc)+E(xc)   XCENC  =      2816.07945976
  PAW double counting   =    342963.60876573  -371767.32125700
  entropy T*S    EENTRO =        -0.01441640
  eigenvalues    EBANDS =    -86132.43098186
  atomic energy  EATOM  =    131500.23896116
  ---------------------------------------------------
  free energy    TOTEN  =    -63841.89712334 eV

  energy without entropy =   -63841.88270694  energy(sigma->0) =   -63841.88991514
  exchange ACFDT corr.  =         0.00000000  see jH, gK, PRB 81, 115126


--------------------------------------------------------------------------------------------------------




--------------------------------------- Iteration      1(   3)  ---------------------------------------


    TRIAL :  cpu time      3.4976: real time      3.4969
    CORREC:  cpu time      0.0016: real time      0.0016
    --------------------------------------------
      LOOP:  cpu time      3.4993: real time      3.4991

 eigenvalue-minimisations  : 15548
 total energy-change (2. order) :-0.6028508E+04  (-0.5419529E+04)
 number of electron    1055.9999920 magnetization 
 augmentation part      119.6637831 magnetization 

 Free energy of the ion-electron system (eV)
  ---------------------------------------------------
  alpha Z        PSCENC =      5376.25786726
  Ewald energy   TEWEN  =    -86471.71720945
  -Hartree energ DENC   =     -2126.59831253
  -exchange      EXHF   =         0.00000000
  -V(xc)+E(xc)   XCENC  =      2816.07945976
  PAW double counting   =    342963.60876573  -371767.32125700
  entropy T*S    EENTRO =        -0.02606259
  eigenvalues    EBANDS =    -92160.92781104
  atomic energy  EATOM  =    131500.23896116
  ---------------------------------------------------
  free energy    TOTEN  =    -69870.40559870 eV

  energy without entropy =   -69870.37953612  energy(sigma->0) =   -69870.39256741
  exchange ACFDT corr.  =         0.00000000  see jH, gK, PRB 81, 115126


--------------------------------------------------------------------------------------------------------




--------------------------------------- Iteration      1(   4)  ---------------------------------------


    TRIAL :  cpu time      3.9397: real time      3.9389
    CORREC:  cpu time      0.0017: real time      0.0017
    --------------------------------------------
      LOOP:  cpu time      3.9415: real time      3.9411

 eigenvalue-minimisations  : 18648
 total energy-change (2. order) :-0.9727142E+03  (-0.8943048E+03)
 number of electron    1055.9999920 magnetization 
 augmentation part      119.6637831 magnetization 

 Free energy of the ion-electron system (eV)
  ---------------------------------------------------
  alpha Z        PSCENC =      5376.25786726
  Ewald energy   TEWEN  =    -86471.71720945
  -Hartree energ DENC   =     -2126.59831253
  -exchange      EXHF   =         0.00000000
  -V(xc)+E(xc)   XCENC  =      2816.07945976
  PAW double counting   =    342963.60876573  -371767.32125700
  entropy T*S    EENTRO =        -0.03728911
  eigenvalues    EBANDS =    -93133.63079512
  atomic energy  EATOM  =    131500.23896116
  ---------------------------------------------------
  free energy    TOTEN  =    -70843.11980930 eV

  energy without entropy =   -70843.08252019  energy(sigma->0) =   -70843.10116475
  exchange ACFDT corr.  =         0.00000000  see jH, gK, PRB 81, 115126


--------------------------------------------------------------------------------------------------------




--------------------------------------- Iteration      1(   5)  ---------------------------------------


    POTLOK:  cpu time      1.3967: real time      1.3966
    SETDIJ:  cpu time      0.4705: real time      0.4704
    TRIAL :  cpu time    233.6275: real time    233.6279
    CORREC:  cpu time      0.0013: real time      0.0013
    CHARGE:  cpu time      0.2073: real time      0.2073
    --------------------------------------------
      LOOP:  cpu time    235.7035: real time    235.7040

 eigenvalue-minimisations  : 16992
 total energy-change (2. order) : 0.2960201E+05  (-0.6839787E+02)
 number of electron    1055.9999481 magnetization 
 augmentation part      447.9800090 magnetization 

 Free energy of the ion-electron system (eV)
  ---------------------------------------------------
  alpha Z        PSCENC =      5376.25786726
  Ewald energy   TEWEN  =    -86471.71720945
  -Hartree energ DENC   =     -2126.59831253
  -exchange      EXHF   =      4819.70602844
  -V(xc)+E(xc)   XCENC  =      1946.93444002
  PAW double counting   =    344199.45449342  -346242.14535924
  entropy T*S    EENTRO =        -0.00001105
  eigenvalues    EBANDS =    -94243.24261299
  atomic energy  EATOM  =    131500.23896116
  ---------------------------------------------------
  free energy    TOTEN  =    -41241.11171495 eV

  energy without entropy =   -41241.11170390  energy(sigma->0) =   -41241.11170943
  exchange ACFDT corr.  =        -0.31217639  see jH, gK, PRB 81, 115126


--------------------------------------------------------------------------------------------------------




--------------------------------------- Iteration      1(   6)  ---------------------------------------


    POTLOK:  cpu time      1.3603: real time      1.3601
    SETDIJ:  cpu time      0.4949: real time      0.4947
    TRIAL :  cpu time    232.5059: real time    232.5053
    CORREC:  cpu time    234.3070: real time    234.2982
    CHARGE:  cpu time      0.2053: real time      0.2053
    --------------------------------------------
      LOOP:  cpu time    468.8737: real time    468.8643

 eigenvalue-minimisations  :     0
 total energy-change (2. order) : 0.8299356E+05  (-0.4742381E+05)
 number of electron    1055.9999674 magnetization 
 augmentation part      389.1658991 magnetization 

 Free energy of the ion-electron system (eV)
  ---------------------------------------------------
  alpha Z        PSCENC =      5376.25786726
  Ewald energy   TEWEN  =    -86471.71720945
  -Hartree energ DENC   =    -92264.91762310
  -exchange      EXHF   =      4888.21826008
  -V(xc)+E(xc)   XCENC  =      3790.28372780
  PAW double counting   =    162528.99317703  -188857.54809405
  entropy T*S    EENTRO =        -0.01939019
  eigenvalues    EBANDS =    101262.63737673
  atomic energy  EATOM  =    131500.23896116
  ---------------------------------------------------
  free energy    TOTEN  =     41752.44643239 eV

  energy without entropy =    41752.46582258  energy(sigma->0) =    41752.45612749
  exchange ACFDT corr.  =        -0.00002533  see jH, gK, PRB 81, 115126


--------------------------------------------------------------------------------------------------------




--------------------------------------- Iteration      1(   7)  ---------------------------------------


    POTLOK:  cpu time      1.4918: real time      1.4917
    SETDIJ:  cpu time      0.4441: real time      0.4440
    TRIAL :  cpu time    232.9692: real time    232.9831
    CORREC:  cpu time    234.3609: real time    234.3640
    CHARGE:  cpu time      0.2060: real time      0.2059
    --------------------------------------------
      LOOP:  cpu time    469.4726: real time    469.4899

 eigenvalue-minimisations  :     0
 total energy-change (2. order) :-0.1962143E+05  (-0.1020174E+05)
 number of electron    1055.9999733 magnetization 
 augmentation part      406.5900988 magnetization 

 Free energy of the ion-electron system (eV)
  ---------------------------------------------------
  alpha Z        PSCENC =      5376.25786726
  Ewald energy   TEWEN  =    -86471.71720945
  -Hartree energ DENC   =    -35486.08626959
  -exchange      EXHF   =      3306.97793218
  -V(xc)+E(xc)   XCENC  =      2640.47066229
  PAW double counting   =    186061.33429550  -197777.18857820
  entropy T*S    EENTRO =        -0.01501765
  eigenvalues    EBANDS =     12980.75124133
  atomic energy  EATOM  =    131500.23896116
  ---------------------------------------------------
  free energy    TOTEN  =     22131.01951228 eV

  energy without entropy =    22131.03452993  energy(sigma->0) =    22131.02702110
  exchange ACFDT corr.  =      -120.41451938  see jH, gK, PRB 81, 115126


--------------------------------------------------------------------------------------------------------




--------------------------------------- Iteration      1(   8)  ---------------------------------------


    POTLOK:  cpu time      1.5020: real time      1.5018
    SETDIJ:  cpu time      0.4644: real time      0.4643
    TRIAL :  cpu time    232.2405: real time    232.2622
    CORREC:  cpu time    233.8775: real time    233.8829
    CHARGE:  cpu time      0.2037: real time      0.2037
    --------------------------------------------
      LOOP:  cpu time    468.2884: real time    468.3209

 eigenvalue-minimisations  :     0
 total energy-change (2. order) :-0.6661083E+04  (-0.7157663E+04)
 number of electron    1055.9999785 magnetization 
 augmentation part      414.4658909 magnetization 

 Free energy of the ion-electron system (eV)
  ---------------------------------------------------
  alpha Z        PSCENC =      5376.25786726
  Ewald energy   TEWEN  =    -86471.71720945
  -Hartree energ DENC   =    -30835.12702307
  -exchange      EXHF   =      3174.76393113
  -V(xc)+E(xc)   XCENC  =      2598.98984037
  PAW double counting   =    182680.18616854  -196726.52322610
  entropy T*S    EENTRO =        -0.02286045
  eigenvalues    EBANDS =      4172.88260198
  atomic energy  EATOM  =    131500.23896116
  ---------------------------------------------------
  free energy    TOTEN  =     15469.93689418 eV

  energy without entropy =    15469.95975463  energy(sigma->0) =    15469.94832440
  exchange ACFDT corr.  =      -170.84673095  see jH, gK, PRB 81, 115126


--------------------------------------------------------------------------------------------------------




--------------------------------------- Iteration      1(   9)  ---------------------------------------


    POTLOK:  cpu time      1.4641: real time      1.4639
    SETDIJ:  cpu time      0.5017: real time      0.5016
    TRIAL :  cpu time    232.4475: real time    232.4478
    CORREC:  cpu time    233.9694: real time    233.9843
    CHARGE:  cpu time      0.2046: real time      0.2046
    --------------------------------------------
      LOOP:  cpu time    468.5889: real time    468.6040

 eigenvalue-minimisations  :     0
 total energy-change (2. order) :-0.4186676E+04  (-0.4218111E+04)
 number of electron    1055.9999575 magnetization 
 augmentation part      423.0372966 magnetization 

 Free energy of the ion-electron system (eV)
  ---------------------------------------------------
  alpha Z        PSCENC =      5376.25786726
  Ewald energy   TEWEN  =    -86471.71720945
  -Hartree energ DENC   =    -28984.26473543
  -exchange      EXHF   =      3098.90357740
  -V(xc)+E(xc)   XCENC  =      2588.15103084
  PAW double counting   =    167991.42318415  -183087.68944389
  entropy T*S    EENTRO =        -0.01661440
  eigenvalues    EBANDS =      -728.01899499
  atomic energy  EATOM  =    131500.23896116
  ---------------------------------------------------
  free energy    TOTEN  =     11283.26137659 eV

  energy without entropy =    11283.27799099  energy(sigma->0) =    11283.26968379
  exchange ACFDT corr.  =       -84.05803929  see jH, gK, PRB 81, 115126


--------------------------------------------------------------------------------------------------------




--------------------------------------- Iteration      1(  10)  ---------------------------------------


    POTLOK:  cpu time      1.4800: real time      1.4854
    SETDIJ:  cpu time      0.4678: real time      0.4677
    TRIAL :  cpu time    232.3726: real time    232.3660
    CORREC:  cpu time    234.2343: real time    234.2476
    CHARGE:  cpu time      0.2116: real time      0.2115
    --------------------------------------------
      LOOP:  cpu time    468.7664: real time    468.7788

 eigenvalue-minimisations  :     0
 total energy-change (2. order) :-0.2189707E+04  (-0.5526170E+04)
 number of electron    1055.9999515 magnetization 
 augmentation part      428.0635975 magnetization 

 Free energy of the ion-electron system (eV)
  ---------------------------------------------------
  alpha Z        PSCENC =      5376.25786726
  Ewald energy   TEWEN  =    -86471.71720945
  -Hartree energ DENC   =    -31602.24070752
  -exchange      EXHF   =      3207.69148357
  -V(xc)+E(xc)   XCENC  =      2631.94994645
  PAW double counting   =    146478.91584282  -162355.40380103
  entropy T*S    EENTRO =        -0.00645729
  eigenvalues    EBANDS =       327.87817451
  atomic energy  EATOM  =    131500.23896116
  ---------------------------------------------------
  free energy    TOTEN  =      9093.55394337 eV

  energy without entropy =     9093.56040066  energy(sigma->0) =     9093.55717201
  exchange ACFDT corr.  =       -87.94688864  see jH, gK, PRB 81, 115126


--------------------------------------------------------------------------------------------------------




--------------------------------------- Iteration      1(  11)  ---------------------------------------


    POTLOK:  cpu time      1.4486: real time      1.4484
    SETDIJ:  cpu time      0.5597: real time      0.5596
    TRIAL :  cpu time    232.2156: real time    232.2284
    CORREC:  cpu time    233.9737: real time    233.9952
    CHARGE:  cpu time      0.2082: real time      0.2081
    --------------------------------------------
      LOOP:  cpu time    468.4081: real time    468.4425

[...]
   0.367E+02 0.132E+03 -.109E+03   -.370E+02 -.132E+03 0.108E+03   0.419E+00 -.210E+00 0.679E+00
   -.857E-04 0.112E+03 -.168E+02   -.650E-14 -.113E+03 0.175E+02   0.000E+00 0.329E+00 -.743E+00
   -.262E-03 0.855E+02 -.711E+02   -.181E-12 -.825E+02 0.739E+02   0.000E+00 -.263E+01 -.257E+01
   -.762E+02 0.111E+03 0.225E+02   0.746E+02 -.115E+03 -.205E+02   0.137E+01 0.373E+01 -.176E+01
   -.367E+02 0.132E+03 -.109E+03   0.370E+02 -.132E+03 0.108E+03   -.419E+00 -.210E+00 0.679E+00
   0.390E+02 -.362E+02 0.921E+02   -.366E+02 0.427E+02 -.960E+02   -.201E+01 -.561E+01 0.334E+01
   0.399E+02 -.125E+02 -.802E+02   -.411E+02 0.125E+02 0.827E+02   0.118E+01 -.993E-02 -.212E+01
   -.762E-04 -.114E+02 0.194E+03   -.124E-12 0.996E+01 -.212E+03   0.000E+00 0.116E+01 0.151E+02
   -.986E-04 0.501E+02 0.386E+02   -.135E-12 -.610E+02 -.447E+02   0.000E+00 0.981E+01 0.516E+01
   -.390E+02 -.362E+02 0.921E+02   0.366E+02 0.427E+02 -.960E+02   0.201E+01 -.561E+01 0.334E+01
   -.399E+02 -.125E+02 -.802E+02   0.411E+02 0.125E+02 0.827E+02   -.118E+01 -.993E-02 -.212E+01
   0.122E-03 0.120E+02 -.367E+02   0.108E-12 -.408E+01 0.402E+02   0.000E+00 -.725E+01 -.289E+01
   0.702E-04 0.462E+02 -.207E+02   0.614E-12 -.551E+02 0.225E+02   0.000E+00 0.769E+01 -.156E+01
   0.466E+02 -.214E+02 0.205E+02   -.511E+02 0.194E+02 -.184E+02   0.390E+01 0.168E+01 -.180E+01
   0.155E+02 0.555E+02 -.348E+02   -.166E+02 -.638E+02 0.374E+02   0.850E+00 0.720E+01 -.220E+01
   -.466E+02 -.214E+02 0.205E+02   0.511E+02 0.194E+02 -.184E+02   -.390E+01 0.168E+01 -.180E+01
   -.155E+02 0.555E+02 -.348E+02   0.166E+02 -.638E+02 0.374E+02   -.850E+00 0.720E+01 -.220E+01
   -.155E+02 0.369E+02 0.142E+03   0.172E+02 -.375E+02 -.147E+03   -.136E+01 0.598E+00 0.472E+01
   0.366E+02 0.565E+02 -.222E+02   -.375E+02 -.534E+02 0.283E+02   0.703E+00 -.267E+01 -.525E+01
   -.462E-04 0.610E+02 0.105E+03   -.475E-13 -.576E+02 -.102E+03   0.000E+00 -.291E+01 -.242E+01
   -.411E-04 0.102E+03 -.588E+02   0.567E-12 -.106E+03 0.669E+02   0.000E+00 0.279E+01 -.700E+01
   0.155E+02 0.369E+02 0.142E+03   -.172E+02 -.375E+02 -.147E+03   0.136E+01 0.598E+00 0.472E+01
   -.366E+02 0.565E+02 -.222E+02   0.375E+02 -.534E+02 0.283E+02   -.703E+00 -.267E+01 -.525E+01
   0.552E-04 -.146E+03 0.458E+02   0.794E-12 0.145E+03 -.523E+02   0.000E+00 0.749E+00 0.563E+01
   -.196E-04 -.105E+03 -.123E+03   0.106E-11 0.107E+03 0.124E+03   0.000E+00 -.235E+01 -.430E+00
   0.933E+02 -.120E+03 0.479E+02   -.982E+02 0.124E+03 -.539E+02   0.428E+01 -.359E+01 0.514E+01
   0.298E+02 -.148E+03 -.109E+03   -.301E+02 0.153E+03 0.112E+03   0.209E+00 -.422E+01 -.239E+01
   -.933E+02 -.120E+03 0.479E+02   0.982E+02 0.124E+03 -.539E+02   -.428E+01 -.359E+01 0.514E+01
   -.298E+02 -.148E+03 -.109E+03   0.301E+02 0.153E+03 0.112E+03   -.209E+00 -.422E+01 -.239E+01
   0.113E-03 0.395E+02 0.112E+03   0.108E-12 -.499E+02 -.118E+03   0.000E+00 0.900E+01 0.514E+01
   -.324E-04 0.613E+02 0.821E+02   0.574E-11 -.706E+02 -.808E+02   0.000E+00 0.799E+01 -.114E+01
   0.493E+02 0.119E+03 0.983E+02   -.478E+02 -.132E+03 -.101E+03   -.148E+01 0.113E+02 0.215E+01
   0.539E+02 0.117E+03 0.668E+02   -.535E+02 -.132E+03 -.670E+02   -.398E+00 0.133E+02 0.120E+00
   -.493E+02 0.119E+03 0.983E+02   0.478E+02 -.132E+03 -.101E+03   0.148E+01 0.113E+02 0.215E+01
   -.539E+02 0.117E+03 0.668E+02   0.535E+02 -.132E+03 -.670E+02   0.398E+00 0.133E+02 0.120E+00
   0.353E+02 -.110E+03 -.277E+02   -.350E+02 0.120E+03 0.241E+02   -.222E+00 -.860E+01 0.314E+01
   -.153E+02 -.163E+03 -.120E+03   0.155E+02 0.175E+03 0.125E+03   -.947E-01 -.103E+02 -.439E+01
   -.304E-05 -.782E+02 -.153E+02   0.700E-12 0.888E+02 0.101E+02   0.000E+00 -.913E+01 0.446E+01
   -.747E-04 -.107E+03 -.916E+02   -.135E-12 0.115E+03 0.882E+02   0.000E+00 -.713E+01 0.291E+01
   -.353E+02 -.110E+03 -.277E+02   0.350E+02 0.120E+03 0.241E+02   0.222E+00 -.860E+01 0.314E+01
   0.153E+02 -.163E+03 -.120E+03   -.155E+02 0.175E+03 0.125E+03   0.947E-01 -.103E+02 -.439E+01
   0.102E-04 0.215E+02 0.333E+02   0.268E-12 -.132E+02 -.374E+02   0.000E+00 -.717E+01 0.353E+01
   0.881E-04 -.168E+02 -.235E+02   0.193E-12 0.239E+02 0.223E+02   0.000E+00 -.616E+01 0.102E+01
   0.120E+02 0.207E+01 0.302E+02   -.114E+02 0.607E+01 -.324E+02   -.573E+00 -.699E+01 0.191E+01
   0.391E+02 0.923E+01 -.151E+02   -.430E+02 -.574E+01 0.117E+02   0.342E+01 -.300E+01 0.293E+01
   -.120E+02 0.207E+01 0.302E+02   0.114E+02 0.607E+01 -.324E+02   0.573E+00 -.699E+01 0.191E+01
   -.391E+02 0.923E+01 -.151E+02   0.430E+02 -.574E+01 0.117E+02   -.342E+01 -.300E+01 0.293E+01
   0.254E+03 -.155E+03 0.259E+02   -.276E+03 0.164E+03 -.205E+02   0.187E+02 -.775E+01 -.459E+01
   0.285E+02 -.749E+02 0.577E+01   -.325E+02 0.764E+02 -.789E+01   0.357E+01 -.132E+01 0.173E+01
   -.504E-04 -.309E+00 0.795E+02   -.764E-13 -.517E+01 -.863E+02   0.000E+00 0.474E+01 0.590E+01
   -.200E-04 -.167E+03 -.134E+02   0.205E-11 0.182E+03 0.800E+01   0.000E+00 -.127E+02 0.458E+01
   -.254E+03 -.155E+03 0.259E+02   0.276E+03 0.164E+03 -.205E+02   -.187E+02 -.775E+01 -.459E+01
   -.285E+02 -.749E+02 0.577E+01   0.325E+02 0.764E+02 -.789E+01   -.357E+01 -.132E+01 0.173E+01
   0.132E-03 0.228E+03 0.180E+03   0.120E-12 -.245E+03 -.186E+03   0.000E+00 0.152E+02 0.474E+01
   0.600E-04 0.525E+02 -.299E+01   0.444E-13 -.538E+02 0.654E+01   0.000E+00 0.133E+01 -.313E+01
   0.981E+02 0.886E+02 0.566E+02   -.103E+03 -.867E+02 -.508E+02   0.401E+01 -.174E+01 -.497E+01
   0.509E+02 0.965E+02 0.430E+02   -.498E+02 -.999E+02 -.431E+02   -.104E+01 0.296E+01 0.149E+00
   -.981E+02 0.886E+02 0.566E+02   0.103E+03 -.867E+02 -.508E+02   -.401E+01 -.174E+01 -.497E+01
   -.509E+02 0.965E+02 0.430E+02   0.498E+02 -.999E+02 -.431E+02   0.104E+01 0.296E+01 0.149E+00
   0.885E+02 0.176E+02 -.154E+01   -.925E+02 -.239E+02 -.568E+01   0.348E+01 0.541E+01 0.624E+01
   0.300E+02 -.594E+00 -.791E+02   -.312E+02 -.236E+01 0.768E+02   0.103E+01 0.258E+01 0.196E+01
   -.275E-04 -.175E+02 -.532E+02   -.308E-14 0.128E+02 0.512E+02   0.000E+00 0.406E+01 0.172E+01
   -.143E-03 -.637E+02 -.183E+02   -.821E-13 0.665E+02 0.106E+02   0.000E+00 -.244E+01 0.665E+01
   -.885E+02 0.176E+02 -.154E+01   0.925E+02 -.239E+02 -.568E+01   -.348E+01 0.541E+01 0.624E+01
   -.300E+02 -.594E+00 -.791E+02   0.312E+02 -.236E+01 0.768E+02   -.103E+01 0.258E+01 0.196E+01
   0.120E+02 0.140E+03 0.319E+02   -.955E+01 -.149E+03 -.300E+02   -.204E+01 0.764E+01 -.154E+01
   0.275E+02 0.185E+03 0.526E+02   -.282E+02 -.197E+03 -.488E+02   0.578E+00 0.103E+02 -.326E+01
   -.806E-04 0.103E+03 0.537E+02   -.318E-13 -.110E+03 -.489E+02   0.000E+00 0.636E+01 -.414E+01
   -.761E-04 0.162E+03 0.457E+02   -.103E-12 -.173E+03 -.421E+02   0.000E+00 0.986E+01 -.307E+01
   -.120E+02 0.140E+03 0.319E+02   0.955E+01 -.149E+03 -.300E+02   0.204E+01 0.764E+01 -.154E+01
   -.275E+02 0.185E+03 0.526E+02   0.282E+02 -.197E+03 -.488E+02   -.578E+00 0.103E+02 -.326E+01
   -.978E-07 -.109E+03 -.801E+02   0.337E-12 0.116E+03 0.843E+02   0.000E+00 -.619E+01 -.363E+01
   0.412E+02 -.126E+03 -.741E+02   -.401E+02 0.136E+03 0.759E+02   -.974E+00 -.848E+01 -.167E+01
   0.782E+02 -.928E+02 -.964E+02   -.817E+02 0.106E+03 0.958E+02   0.303E+01 -.118E+02 0.464E+00
   -.412E+02 -.126E+03 -.741E+02   0.401E+02 0.136E+03 0.759E+02   0.974E+00 -.848E+01 -.167E+01
   -.782E+02 -.928E+02 -.964E+02   0.817E+02 0.106E+03 0.958E+02   -.303E+01 -.118E+02 0.464E+00
   0.118E-03 0.930E+02 -.145E+03   0.711E-14 -.927E+02 0.147E+03   0.000E+00 -.275E+00 -.246E+01
 -----------------------------------------------------------------------------------------------
   0.687E-04 0.195E+02 -.276E+02   -.149E-12 -.240E-11 0.284E-13   0.444E-14 -.176E+02 0.204E+02
 
 
 POSITION                                       TOTAL-FORCE (eV/Angst)
 -----------------------------------------------------------------------------------
      0.00000      7.77872     -1.91635         0.000000      0.038956     -0.089459
      0.00000      6.25884     -7.33670         0.000000      0.156837      0.056379
      3.01779      7.80495     -1.85400        -0.047151      0.100866     -0.103964
      3.01479      6.16353     -7.38873        -0.089222      0.099891      0.133195
      6.12491      7.80495     -1.85400         0.047151      0.100866     -0.103964
      6.12792      6.16353     -7.38873         0.089222      0.099891      0.133195
      1.47618      9.54889     -4.06397         0.044395      0.056852     -0.175724
      1.55333      7.95145     -9.51966         0.114527     -0.016976      0.050330
      4.57135      9.51077     -3.81344         0.000000     -0.122569     -0.150175
      4.57135      7.67134     -9.54266         0.000000      0.005028     -0.021389
      7.66652      9.54889     -4.06397        -0.044395      0.056852     -0.175724
      7.58937      7.95145     -9.51966        -0.114527     -0.016976      0.050330
      1.19196      6.13003     -4.45007        -0.066036      0.134982     -0.095749
      1.52983      4.84145    -10.21119        -0.016887     -0.078802      0.010330
      4.57135      6.14199     -4.42742         0.000000      0.082849     -0.031566
      4.57135      4.77206    -10.24991         0.000000     -0.086699      0.019099
      7.95074      6.13003     -4.45007         0.066036      0.134982     -0.095749
      7.61287      4.84145    -10.21119         0.016887     -0.078802      0.010330
      0.00000     10.97181     -1.22014         0.000000      0.024648     -0.039150
      0.00000      9.77347     -7.16434         0.000000     -0.149944     -0.065240
      3.18019     10.95108     -0.95949        -0.033530      0.026419     -0.135292
      3.40071      9.36335     -6.75839         0.006481      0.077429      0.085285
      5.96251     10.95108     -0.95949         0.033530      0.026419     -0.135292
      5.74199      9.36335     -6.75839        -0.006481      0.077429      0.085285
      1.47646      1.55853     -1.49729        -0.039079      0.031472     -0.009459
      1.59193      0.03795     -7.37787         0.285759     -0.157241     -0.138848
      4.57135      1.48617     -1.80985         0.000000     -0.071820     -0.074540
      4.57135      0.33229     -7.40315         0.000000     -0.195519      0.110910
      7.66624      1.55853     -1.49729         0.039079      0.031472     -0.009459
      7.55077      0.03795     -7.37787        -0.285759     -0.157241     -0.138848
      0.00000      2.63655     -4.11089         0.000000      0.252758      0.053357
      0.00000      1.89324     -9.58556         0.000000     -0.161037      0.078514
      3.03981      3.33434     -3.74759        -0.097841     -0.156617     -0.065886
      2.98913      1.88664     -9.59234        -0.167846     -0.097127      0.057689
      6.10289      3.33434     -3.74759         0.097841     -0.156617     -0.065886
      6.15358      1.88664     -9.59234         0.167846     -0.097127      0.057689
      0.00000     -1.63022     -9.62727         0.000000      0.288546      0.093959
      2.98713      0.07810     -4.49102        -0.100605     -0.030249      0.061017
      3.40258     -1.39450    -10.02523        -0.350235      0.137002     -0.132040
      6.15557      0.07810     -4.49102         0.100605     -0.030249      0.061017
      5.74012     -1.39450    -10.02523         0.350235      0.137002     -0.132040
      1.52400      4.85136     -1.26092         0.048843     -0.073698      0.055402
      1.44173      3.16642     -6.76507         0.072165      0.100922     -0.047624
      4.57135      4.86290     -1.15503         0.000000     -0.011474     -0.005553
      4.57135      3.35877     -6.75135         0.000000      0.103502      0.012173
      7.61870      4.85136     -1.26092        -0.048843     -0.073698      0.055402
      7.70098      3.16642     -6.76507        -0.072165      0.100922     -0.047624
      1.60001     11.88663     -1.29536        -0.083409     -0.164460      0.140723
      1.84852     10.43643     -6.94682         0.089820      0.023184     -0.011039
      4.57135     -0.42813     -1.92688         0.000000     -0.025338      0.614277
      4.57135     -1.46228     -7.56545         0.000000      0.662817      0.121630
      7.54270     11.88663     -1.29536         0.083409     -0.164460      0.140723
      7.29418     10.43643     -6.94682        -0.089820      0.023184     -0.011039
      0.00000      4.50198     -4.01106         0.000000     -0.552011     -0.071052
      0.00000      3.82107    -10.00894         0.000000      0.265501     -0.067998
      2.93594      5.26398     -4.13912         0.123644      0.028986     -0.043647
      3.04569      3.79874     -9.99549         0.018332      0.226012     -0.083995
      6.20676      5.26398     -4.13912        -0.123644      0.028986     -0.043647
      6.09701      3.79874     -9.99549        -0.018332      0.226012     -0.083995
      1.54650      7.62895     -3.17123         0.026644      0.125653      0.269476
      1.46628      5.99134     -8.77083         0.035088     -0.048803     -0.198440
      4.57135      7.51409     -3.16339         0.000000     -0.057801     -0.035806
      4.57135      5.88517     -8.75099         0.000000      0.167685     -0.267966
      7.59620      7.62895     -3.17123        -0.026644      0.125653      0.269476
      7.67643      5.99134     -8.77083        -0.035088     -0.048803     -0.198440
      0.00000      9.66098     -2.54774         0.000000     -0.007782      0.219498
      0.00000      8.04998     -8.12782         0.000000     -0.252430     -0.075691
      3.12326      9.66111     -2.38247         0.173896     -0.129729      0.169857
      3.06350      8.00123     -8.21620        -0.047823     -0.239889     -0.228354
      6.01945      9.66111     -2.38247        -0.173896     -0.129729      0.169857
      6.07921      8.00123     -8.21620         0.047823     -0.239889     -0.228354
      0.00000      9.15980     -5.25823         0.000000      0.403135      0.191797
      0.00000      7.65898    -10.70489         0.000000      0.314316     -0.019626
      3.04960      8.94773     -4.90783        -0.172083      0.488051      0.226163
      2.88547      7.11916    -10.69128         0.007395      0.561438     -0.002020
      6.09311      8.94773     -4.90783         0.172083      0.488051      0.226163
      6.25723      7.11916    -10.69128        -0.007395      0.561438     -0.002020
      1.46099      8.06542     -0.67789         0.005817     -0.302815      0.113252
      1.58024      6.62763     -6.26878         0.067737     -0.419030     -0.273464
      4.57135      8.07129     -0.67892         0.000000     -0.316649      0.117530
      4.57135      6.44793     -6.24655         0.000000     -0.343635      0.064157
      7.68171      8.06542     -0.67789        -0.005817     -0.302815      0.113252
      7.56246      6.62763     -6.26878        -0.067737     -0.419030     -0.273464
      0.00000      5.84173     -1.56132         0.000000     -0.248313      0.138697
      0.00000      4.35549     -6.97080         0.000000     -0.291393      0.043412
      3.04920      5.88149     -1.44602        -0.032294     -0.230875      0.071393
      2.98644      4.26202     -7.06988         0.139499     -0.092433      0.091003
      6.09350      5.88149     -1.44602         0.032294     -0.230875      0.071393
      6.15626      4.26202     -7.06988        -0.139499     -0.092433      0.091003
      1.56062     -0.90813     -4.10933         0.644689     -0.366214     -0.125622
      1.85483      9.82102     -9.86869         0.142550     -0.113799     -0.015655
      4.57135     -0.96153     -4.53278         0.000000      0.185392      0.239514
      4.57135      8.96448    -10.85026         0.000000     -0.664465      0.044130
      7.58208     -0.90813     -4.10933        -0.644689     -0.366214     -0.125622
      7.28787      9.82102     -9.86869        -0.142550     -0.113799     -0.015655
      0.00000      1.35961     -2.75535         0.000000      0.609259      0.202593
      0.00000      0.12277     -8.86835         0.000000      0.205202     -0.076494
      3.10389      1.40550     -3.17654         0.167483     -0.050599     -0.146928
      2.86460      0.10006     -8.86286        -0.072860      0.160388      0.080635
      6.03881      1.40550     -3.17654        -0.167483     -0.050599     -0.146928
      6.27811      0.10006     -8.86286         0.072860      0.160388      0.080635
      1.71790      3.36879     -2.27833         0.138226      0.119443      0.223752
      1.54862      2.27748     -8.36749         0.032615      0.081904      0.067266
      4.57135      3.50582     -2.41971         0.000000      0.121666      0.043267
      4.57135      2.12683     -8.19761         0.000000     -0.147725      0.256173
      7.42480      3.36879     -2.27833        -0.138226      0.119443      0.223752
      7.59408      2.27748     -8.36749        -0.032615      0.081904      0.067266
      1.74618      2.79353     -4.98744        -0.089205      0.285050     -0.039966
      1.49902      1.56578    -10.81245         0.024832      0.392895     -0.099592
      4.57135      3.07932     -4.94383         0.000000      0.247983     -0.127543
      4.57135      1.53033    -10.70087         0.000000      0.388396     -0.088223
      7.39652      2.79353     -4.98744         0.089205      0.285050     -0.039966
      7.64368      1.56578    -10.81245        -0.024832      0.392895     -0.099592
      0.00000      1.73000     -0.20637         0.000000     -0.272883     -0.149674
      3.11260      1.84099     -0.56322        -0.078297     -0.337112     -0.134841
      3.11579      0.74549     -6.25022         0.092053     -0.436741     -0.034419
      6.03010      1.84099     -0.56322         0.078297     -0.337112     -0.134841
      6.02691      0.74549     -6.25022        -0.092053     -0.436741     -0.034419
      0.00000      0.93588     -6.00171         0.000000      0.023753     -0.392317
 -----------------------------------------------------------------------------------
    total drift:                                0.000069     -0.024183      0.017374


--------------------------------------------------------------------------------------------------------



  FREE ENERGIE OF THE ION-ELECTRON SYSTEM (eV)
  ---------------------------------------------------
  free  energy   TOTEN  =      -840.58334082 eV

  energy  without entropy=     -840.57619252  energy(sigma->0) =     -840.57976667
 


--------------------------------------------------------------------------------------------------------


    POTLOK:  cpu time      1.9449: real time      1.9530


--------------------------------------------------------------------------------------------------------


 writing wavefunctions
     LOOP+:  cpu time  22139.2947: real time  22141.3072
    4ORBIT:  cpu time      0.0000: real time      0.0000

 total amount of memory used by VASP MPI-rank0  7507632. kBytes
=======================================================================

   base      :      30000. kBytes
   nonlr-proj:      46687. kBytes
   fftplans  :      51012. kBytes
   grid      :     102973. kBytes
   one-center:       1850. kBytes
   HF        :        194. kBytes
   wavefun   :    7045683. kBytes
   fock_wrk  :     229233. kBytes
 
  
  
 General timing and accounting informations for this job:
 ========================================================
  
                  Total CPU time used (sec):    22170.988
                            User time (sec):    22153.876
                          System time (sec):       17.112
                         Elapsed time (sec):    22175.229
  
                   Maximum memory used (kb):    13311104.
                   Average memory used (kb):          N/A
  
                          Minor page faults:      8898670
                          Major page faults:            3
                 Voluntary context switches:       422507
