<?xml version="1.0" encoding="ISO-8859-1"?>
<modeling>
 <generator>
  <i name="program" type="string">vasp </i>
  <i name="version" type="string">6.4.2  </i>
  <i name="subversion" type="string">20Jul23 (build Nov 12 2023 22:16:35) complex                          parallel </i>
  <i name="platform" type="string">LinuxNV </i>
  <i name="date" type="string">2025 03 16 </i>
  <i name="time" type="string">17:37:08 </i>
 </generator>
 <incar>
  <i type="int" name="ISTART">     0</i>
  <i type="string" name="PREC">Normal</i>
  <i type="string" name="ALGO">All</i>
  <i type="int" name="ISPIN">     1</i>
  <i type="int" name="ICHARG">     0</i>
  <i type="int" name="NELM">   500</i>
  <i type="int" name="IBRION">    -1</i>
  <i name="EDIFF">      0.00001000</i>
  <i name="EDIFFG">     -0.00500000</i>
  <i type="int" name="NSW">     0</i>
  <i type="int" name="ISIF">     2</i>
  <i name="ENCUT">    450.00000000</i>
  <i name="NELECT">   1056.00000000</i>
  <i type="string" name="LREAL">Auto</i>
  <i type="logical" name="LPLANE"> T  </i>
  <i name="TIME">      0.40000000</i>
  <i type="int" name="ISMEAR">     0</i>
  <i name="SIGMA">      0.05000000</i>
  <i type="logical" name="LWAVE"> T  </i>
  <i type="logical" name="LCHARG"> T  </i>
  <i name="HFSCREEN">      0.20000000</i>
  <i type="logical" name="LHFCALC"> T  </i>
  <i type="int" name="LMAXFOCK">     4</i>
  <i name="AEXX">      0.32000000</i>
  <i type="string" name="PRECFOCK">Fast</i>
 </incar>
 <primitive_cell>
  <structure name="primitive_cell" >
   <crystal>
    <varray name="basis" >
     <v>       0.00000000      12.28047342       0.00000000 </v>
     <v>       9.14270205       0.00000000       0.00000000 </v>
     <v>       0.00000000      -2.76826177     -11.30069772 </v>
    </varray>
    <i name="volume">   1268.80515525 </i>
    <varray name="rec_basis" >
     <v>       0.00000000       0.08143009      -0.01994742 </v>
     <v>       0.10937686      -0.00000000       0.00000000 </v>
     <v>       0.00000000       0.00000000      -0.08849011 </v>
    </varray>
   </crystal>
   <varray name="positions" >
    <v>       0.67164779       0.00000000       0.16957799 </v>
    <v>       0.65600614       0.00000000       0.64922566 </v>
    <v>       0.67254023       0.33007681       0.16406095 </v>
    <v>       0.64928279       0.32974776       0.65382934 </v>
    <v>       0.67254023       0.66992319       0.16406095 </v>
    <v>       0.64928279       0.67025224       0.65382934 </v>
    <v>       0.85863287       0.16145963       0.35962145 </v>
    <v>       0.83738011       0.16989825       0.84239544 </v>
    <v>       0.85053135       0.50000000       0.33745201 </v>
    <v>       0.81502930       0.50000000       0.84443139 </v>
    <v>       0.85863287       0.83854037       0.35962145 </v>
    <v>       0.83738011       0.83010175       0.84239544 </v>
    <v>       0.58793655       0.13037293       0.39378713 </v>
    <v>       0.59792685       0.16732778       0.90358912 </v>
    <v>       0.58845849       0.50000000       0.39178272 </v>
    <v>       0.59304883       0.50000000       0.90701587 </v>
    <v>       0.58793655       0.86962707       0.39378713 </v>
    <v>       0.59792685       0.83267222       0.90358912 </v>
    <v>       0.91777431       0.00000000       0.10797013 </v>
    <v>       0.93876483       0.00000000       0.63397309 </v>
    <v>       0.91088650       0.34783901       0.08490498 </v>
    <v>       0.89727104       0.37195879       0.59805058 </v>
    <v>       0.91088650       0.65216099       0.08490498 </v>
    <v>       0.89727104       0.62804121       0.59805058 </v>
    <v>       0.15677809       0.16149063       0.13249525 </v>
    <v>       0.15025955       0.17412001       0.65286832 </v>
    <v>       0.15712081       0.50000000       0.16015346 </v>
    <v>       0.17473191       0.50000000       0.65510557 </v>
    <v>       0.15677809       0.83850937       0.13249525 </v>
    <v>       0.15025955       0.82587999       0.65286832 </v>
    <v>       0.29669592       0.00000000       0.36377304 </v>
    <v>       0.34537415       0.00000000       0.84822686 </v>
    <v>       0.34627011       0.33248519       0.33162448 </v>
    <v>       0.34497166       0.32694127       0.84882740 </v>
    <v>       0.34627011       0.66751481       0.33162448 </v>
    <v>       0.34497166       0.67305873       0.84882740 </v>
    <v>       0.05929015       0.00000000       0.85191823 </v>
    <v>       0.09594424       0.32672287       0.39741111 </v>
    <v>       0.08642340       0.37216362       0.88713374 </v>
    <v>       0.09594424       0.67327713       0.39741111 </v>
    <v>       0.08642340       0.62783638       0.88713374 </v>
    <v>       0.42019886       0.16669034       0.11157917 </v>
    <v>       0.39278785       0.15769135       0.59864192 </v>
    <v>       0.41902614       0.50000000       0.10220895 </v>
    <v>       0.40817696       0.50000000       0.59742780 </v>
    <v>       0.42019886       0.83330966       0.11157917 </v>
    <v>       0.39278785       0.84230865       0.59864192 </v>
    <v>       0.99376799       0.17500373       0.11462622 </v>
    <v>       0.98841090       0.20218570       0.61472525 </v>
    <v>       0.00357327       0.50000000       0.17050959 </v>
    <v>       0.03183773       0.50000000       0.66946782 </v>
    <v>       0.99376799       0.82499627       0.11462622 </v>
    <v>       0.98841090       0.79781430       0.61472525 </v>
    <v>       0.44660706       0.00000000       0.35493914 </v>
    <v>       0.51080261       0.00000000       0.88569265 </v>
    <v>       0.51121081       0.32112372       0.36627117 </v>
    <v>       0.50871574       0.33312806       0.88450209 </v>
    <v>       0.51121081       0.67887628       0.36627117 </v>
    <v>       0.50871574       0.66687194       0.88450209 </v>
    <v>       0.68448373       0.16915121       0.28062279 </v>
    <v>       0.66283065       0.16037669       0.77613175 </v>
    <v>       0.67497470       0.50000000       0.27992833 </v>
    <v>       0.65378989       0.50000000       0.77437586 </v>
    <v>       0.68448373       0.83084879       0.28062279 </v>
    <v>       0.66283065       0.83962331       0.77613175 </v>
    <v>       0.83751564       0.00000000       0.22544995 </v>
    <v>       0.81763946       0.00000000       0.71923164 </v>
    <v>       0.83422915       0.34161184       0.21082485 </v>
    <v>       0.81543282       0.33507551       0.72705239 </v>
    <v>       0.83422915       0.65838816       0.21082485 </v>
    <v>       0.81543282       0.66492449       0.72705239 </v>
    <v>       0.85077146       0.00000000       0.46530102 </v>
    <v>       0.83720679       0.00000000       0.94727702 </v>
    <v>       0.82651298       0.33355517       0.43429400 </v>
    <v>       0.79297741       0.31560410       0.94607290 </v>
    <v>       0.82651298       0.66644483       0.43429400 </v>
    <v>       0.79297741       0.68439590       0.94607290 </v>
    <v>       0.67029034       0.15979861       0.05998646 </v>
    <v>       0.66473411       0.17284207       0.55472476 </v>
    <v>       0.67078853       0.50000000       0.06007765 </v>
    <v>       0.64965799       0.50000000       0.55275788 </v>
    <v>       0.67029034       0.84020139       0.05998646 </v>
    <v>       0.66473411       0.82715793       0.55472476 </v>
    <v>       0.50683719       0.00000000       0.13816156 </v>
    <v>       0.49371724       0.00000000       0.61684685 </v>
    <v>       0.50777494       0.33351169       0.12795833 </v>
    <v>       0.48808267       0.32664718       0.62561414 </v>
    <v>       0.50777494       0.66648831       0.12795833 </v>
    <v>       0.48808267       0.67335282       0.62561414 </v>
    <v>       0.00802150       0.17069568       0.36363509 </v>
    <v>       0.99658178       0.20287534       0.87328156 </v>
    <v>       0.01211967       0.50000000       0.40110607 </v>
    <v>       0.94641321       0.50000000       0.96014050 </v>
    <v>       0.00802150       0.82930432       0.36363509 </v>
    <v>       0.99658178       0.79712466       0.87328156 </v>
    <v>       0.16567538       0.00000000       0.24382147 </v>
    <v>       0.18689805       0.00000000       0.78476149 </v>
    <v>       0.17781395       0.33949367       0.28109230 </v>
    <v>       0.18493917       0.31332050       0.78427541 </v>
    <v>       0.17781395       0.66050633       0.28109230 </v>
    <v>       0.18493917       0.68667950       0.78427541 </v>
    <v>       0.31976740       0.18789864       0.20160964 </v>
    <v>       0.35236536       0.16938319       0.74044056 </v>
    <v>       0.33374663       0.50000000       0.21412064 </v>
    <v>       0.33670920       0.50000000       0.72540730 </v>
    <v>       0.31976740       0.81210136       0.20160964 </v>
    <v>       0.35236536       0.83061681       0.74044056 </v>
    <v>       0.32696354       0.19099188       0.44133895 </v>
    <v>       0.34318199       0.16395846       0.95679532 </v>
    <v>       0.34936596       0.50000000       0.43747964 </v>
    <v>       0.33807002       0.50000000       0.94692139 </v>
    <v>       0.32696354       0.80900812       0.44133895 </v>
    <v>       0.34318199       0.83604154       0.95679532 </v>
    <v>       0.14499044       0.00000000       0.01826142 </v>
    <v>       0.16114638       0.34044648       0.04983928 </v>
    <v>       0.18538066       0.34079566       0.55308230 </v>
    <v>       0.16114638       0.65955352       0.04983928 </v>
    <v>       0.18538066       0.65920434       0.55308230 </v>
    <v>       0.19592706       0.00000000       0.53109164 </v>
   </varray>
  </structure>
  <varray name="primitive_index" >
   <v type="int" >        1 </v>
   <v type="int" >        2 </v>
   <v type="int" >        3 </v>
   <v type="int" >        4 </v>
   <v type="int" >        5 </v>
   <v type="int" >        6 </v>
   <v type="int" >        7 </v>
   <v type="int" >        8 </v>
   <v type="int" >        9 </v>
   <v type="int" >       10 </v>
   <v type="int" >       11 </v>
   <v type="int" >       12 </v>
   <v type="int" >       13 </v>
   <v type="int" >       14 </v>
   <v type="int" >       15 </v>
   <v type="int" >       16 </v>
   <v type="int" >       17 </v>
   <v type="int" >       18 </v>
   <v type="int" >       19 </v>
   <v type="int" >       20 </v>
   <v type="int" >       21 </v>
   <v type="int" >       22 </v>
   <v type="int" >       23 </v>
   <v type="int" >       24 </v>
   <v type="int" >       25 </v>
   <v type="int" >       26 </v>
   <v type="int" >       27 </v>
   <v type="int" >       28 </v>
   <v type="int" >       29 </v>
   <v type="int" >       30 </v>
   <v type="int" >       31 </v>
   <v type="int" >       32 </v>
   <v type="int" >       33 </v>
   <v type="int" >       34 </v>
   <v type="int" >       35 </v>
   <v type="int" >       36 </v>
   <v type="int" >       37 </v>
   <v type="int" >       38 </v>
   <v type="int" >       39 </v>
   <v type="int" >       40 </v>
   <v type="int" >       41 </v>
   <v type="int" >       42 </v>
   <v type="int" >       43 </v>
   <v type="int" >       44 </v>
   <v type="int" >       45 </v>
   <v type="int" >       46 </v>
   <v type="int" >       47 </v>
   <v type="int" >       48 </v>
   <v type="int" >       49 </v>
   <v type="int" >       50 </v>
   <v type="int" >       51 </v>
   <v type="int" >       52 </v>
   <v type="int" >       53 </v>
   <v type="int" >       54 </v>
   <v type="int" >       55 </v>
   <v type="int" >       56 </v>
   <v type="int" >       57 </v>
   <v type="int" >       58 </v>
   <v type="int" >       59 </v>
   <v type="int" >       60 </v>
   <v type="int" >       61 </v>
   <v type="int" >       62 </v>
   <v type="int" >       63 </v>
   <v type="int" >       64 </v>
   <v type="int" >       65 </v>
   <v type="int" >       66 </v>
   <v type="int" >       67 </v>
   <v type="int" >       68 </v>
   <v type="int" >       69 </v>
   <v type="int" >       70 </v>
   <v type="int" >       71 </v>
   <v type="int" >       72 </v>
   <v type="int" >       73 </v>
   <v type="int" >       74 </v>
   <v type="int" >       75 </v>
   <v type="int" >       76 </v>
   <v type="int" >       77 </v>
   <v type="int" >       78 </v>
   <v type="int" >       79 </v>
   <v type="int" >       80 </v>
   <v type="int" >       81 </v>
   <v type="int" >       82 </v>
   <v type="int" >       83 </v>
   <v type="int" >       84 </v>
   <v type="int" >       85 </v>
   <v type="int" >       86 </v>
   <v type="int" >       87 </v>
   <v type="int" >       88 </v>
   <v type="int" >       89 </v>
   <v type="int" >       90 </v>
   <v type="int" >       91 </v>
   <v type="int" >       92 </v>
   <v type="int" >       93 </v>
   <v type="int" >       94 </v>
   <v type="int" >       95 </v>
   <v type="int" >       96 </v>
   <v type="int" >       97 </v>
   <v type="int" >       98 </v>
   <v type="int" >       99 </v>
   <v type="int" >      100 </v>
   <v type="int" >      101 </v>
   <v type="int" >      102 </v>
   <v type="int" >      103 </v>
   <v type="int" >      104 </v>
   <v type="int" >      105 </v>
   <v type="int" >      106 </v>
   <v type="int" >      107 </v>
   <v type="int" >      108 </v>
   <v type="int" >      109 </v>
   <v type="int" >      110 </v>
   <v type="int" >      111 </v>
   <v type="int" >      112 </v>
   <v type="int" >      113 </v>
   <v type="int" >      114 </v>
   <v type="int" >      115 </v>
   <v type="int" >      116 </v>
   <v type="int" >      117 </v>
   <v type="int" >      118 </v>
   <v type="int" >      119 </v>
  </varray>
 </primitive_cell>
 <kpoints>
  <generation param="Gamma">
   <v type="int" name="divisions">       2        2        2 </v>
   <v name="usershift">      0.00000000       0.00000000       0.00000000 </v>
   <v name="genvec1">      0.50000000       0.00000000       0.00000000 </v>
   <v name="genvec2">      0.00000000       0.50000000       0.00000000 </v>
   <v name="genvec3">      0.00000000       0.00000000       0.50000000 </v>
   <v name="shift">      0.00000000       0.00000000       0.00000000 </v>
  </generation>
  <varray name="kpointlist" >
   <v>       0.00000000       0.00000000       0.00000000 </v>
   <v>       0.50000000       0.00000000       0.00000000 </v>
   <v>       0.00000000       0.50000000       0.00000000 </v>
   <v>       0.50000000       0.50000000       0.00000000 </v>
   <v>       0.00000000       0.00000000       0.50000000 </v>
   <v>       0.50000000       0.00000000       0.50000000 </v>
   <v>       0.00000000       0.50000000       0.50000000 </v>
   <v>       0.50000000       0.50000000       0.50000000 </v>
  </varray>
  <varray name="weights" >
   <v>       0.12500000 </v>
   <v>       0.12500000 </v>
   <v>       0.12500000 </v>
   <v>       0.12500000 </v>
   <v>       0.12500000 </v>
   <v>       0.12500000 </v>
   <v>       0.12500000 </v>
   <v>       0.12500000 </v>
  </varray>
 </kpoints>
 <parameters>
  <separator name="general" >
   <i type="string" name="SYSTEM">unknown system</i>
   <i type="logical" name="LCOMPAT"> F  </i>
  </separator>
  <separator name="electronic" >
   <i type="string" name="PREC">normal</i>
   <i name="ENMAX">    450.00000000</i>
   <i name="ENAUG">    605.39200000</i>
   <i name="EDIFF">      0.00001000</i>
   <i type="int" name="IALGO">    58</i>
   <i type="int" name="IWAVPR">    10</i>
   <i type="int" name="NBANDS">   633</i>
   <i type="int" name="NBANDSLOW">    -1</i>
   <i type="int" name="NBANDSHIGH">    -1</i>
   <i name="NELECT">   1056.00000000</i>
   <i type="int" name="TURBO">     0</i>
   <i type="int" name="IRESTART">     0</i>
   <i type="int" name="NREBOOT">     0</i>
   <i type="int" name="NMIN">     0</i>
   <i name="EREF">      0.00000000</i>
   <separator name="electronic smearing" >
    <i type="int" name="ISMEAR">     0</i>
    <i name="SIGMA">      0.05000000</i>
    <i name="KSPACING">      0.50000000</i>
    <i type="logical" name="KGAMMA"> T  </i>
    <i type="logical" name="KBLOWUP"> T  </i>
   </separator>
   <separator name="electronic projectors" >
    <i type="logical" name="LREAL"> T  </i>
    <v name="ROPT">     -0.00050000     -0.00050000     -0.00050000</v>
    <i type="int" name="LMAXPAW">  -100</i>
    <i type="int" name="LMAXMIX">     2</i>
    <i type="logical" name="NLSPLINE"> F  </i>
   </separator>
   <separator name="electronic startup" >
    <i type="int" name="ISTART">     0</i>
    <i type="int" name="ICHARG">     0</i>
    <i type="int" name="INIWAV">     1</i>
   </separator>
   <separator name="electronic spin" >
    <i type="int" name="ISPIN">     1</i>
    <i type="logical" name="LNONCOLLINEAR"> F  </i>
    <v name="MAGMOM">      1.00000000      1.00000000      1.00000000      1.00000000      1.00000000      1.00000000      1.00000000      1.00000000      1.00000000      1.00000000      1.00000000      1.00000000      1.00000000      1.00000000      1.00000000      1.00000000      1.00000000      1.00000000      1.00000000      1.00000000
      1.00000000      1.00000000      1.00000000      1.00000000      1.00000000      1.00000000      1.00000000      1.00000000      1.00000000      1.00000000      1.00000000      1.00000000      1.00000000      1.00000000      1.00000000      1.00000000      1.00000000      1.00000000      1.00000000      1.00000000
      1.00000000      1.00000000      1.00000000      1.00000000      1.00000000      1.00000000      1.00000000      1.00000000      1.00000000      1.00000000      1.00000000      1.00000000      1.00000000      1.00000000      1.00000000      1.00000000      1.00000000      1.00000000      1.00000000      1.00000000
      1.00000000      1.00000000      1.00000000      1.00000000      1.00000000      1.00000000      1.00000000      1.00000000      1.00000000      1.00000000      1.00000000      1.00000000      1.00000000      1.00000000      1.00000000      1.00000000      1.00000000      1.00000000      1.00000000      1.00000000
      1.00000000      1.00000000      1.00000000      1.00000000      1.00000000      1.00000000      1.00000000      1.00000000      1.00000000      1.00000000      1.00000000      1.00000000      1.00000000      1.00000000      1.00000000      1.00000000      1.00000000      1.00000000      1.00000000      1.00000000
      1.00000000      1.00000000      1.00000000      1.00000000      1.00000000      1.00000000      1.00000000      1.00000000      1.00000000      1.00000000      1.00000000      1.00000000      1.00000000      1.00000000      1.00000000      1.00000000      1.00000000      1.00000000      1.00000000</v>
    <i name="NUPDOWN">     -1.00000000</i>
    <i type="logical" name="LSORBIT"> F  </i>
    <v name="SAXIS">      0.00000000      0.00000000      1.00000000</v>
    <i type="logical" name="LSPIRAL"> F  </i>
    <v name="QSPIRAL">      0.00000000      0.00000000      0.00000000</v>
    <i type="logical" name="LZEROZ"> F  </i>
   </separator>
   <separator name="electronic exchange-correlation" >
    <i type="logical" name="LASPH"> F  </i>
    <i type="logical" name="LMETAGGA"> F  </i>
   </separator>
   <separator name="electronic convergence" >
    <i type="int" name="NELM">   500</i>
    <i type="int" name="NELMDL">    -5</i>
    <i type="int" name="NELMIN">     2</i>
    <i name="ENINI">    450.00000000</i>
    <separator name="electronic convergence detail" >
     <i type="logical" name="LDIAG"> T  </i>
     <i type="logical" name="LSUBROT"> F  </i>
     <i name="WEIMIN">      0.00000000</i>
     <i name="EBREAK">      0.00000000</i>
     <i name="DEPER">      0.30000000</i>
     <i type="int" name="NRMM">     4</i>
     <i name="TIME">      0.40000000</i>
    </separator>
   </separator>
   <separator name="electronic mixer" >
    <i name="AMIX">      0.40000000</i>
    <i name="BMIX">      1.00000000</i>
    <i name="AMIN">      0.10000000</i>
    <i name="AMIX_MAG">      1.60000000</i>
    <i name="BMIX_MAG">      1.00000000</i>
    <separator name="electronic mixer details" >
     <i type="int" name="IMIX">     4</i>
     <i type="logical" name="MIXFIRST"> F  </i>
     <i type="int" name="MAXMIX">   -45</i>
     <i name="WC">    100.00000000</i>
     <i type="int" name="INIMIX">     1</i>
     <i type="int" name="MIXPRE">     1</i>
     <i type="int" name="MREMOVE">     5</i>
    </separator>
   </separator>
   <separator name="electronic dipolcorrection" >
    <i type="logical" name="LDIPOL"> F  </i>
    <i type="logical" name="LMONO"> F  </i>
    <i type="int" name="IDIPOL">     0</i>
    <i name="EPSILON">      1.00000000</i>
    <v name="DIPOL">   -100.00000000   -100.00000000   -100.00000000</v>
    <i name="EFIELD">      0.00000000</i>
   </separator>
  </separator>
  <separator name="grids" >
   <i type="int" name="NGX">    64</i>
   <i type="int" name="NGY">    48</i>
   <i type="int" name="NGZ">    60</i>
   <i type="int" name="NGXF">   128</i>
   <i type="int" name="NGYF">    96</i>
   <i type="int" name="NGZF">   120</i>
   <i type="logical" name="ADDGRID"> F  </i>
  </separator>
  <separator name="ionic" >
   <i type="int" name="NSW">     0</i>
   <i type="int" name="IBRION">    -1</i>
   <i type="int" name="MDALGO">     0</i>
   <i type="int" name="ISIF">     2</i>
   <i name="PSTRESS">      0.00000000</i>
   <i name="EDIFFG">     -0.00500000</i>
   <i type="int" name="NFREE">     0</i>
   <i name="POTIM">      0.50000000</i>
   <i name="SMASS">     -3.00000000</i>
   <i name="SCALEE">      1.00000000</i>
  </separator>
  <separator name="ionic md" >
   <i name="TEBEG">      0.00010000</i>
   <i name="TEEND">      0.00010000</i>
   <i type="int" name="NBLOCK">     1</i>
   <i type="int" name="KBLOCK">     1</i>
   <i type="int" name="NPACO">   256</i>
   <i name="APACO">     10.00000000</i>
  </separator>
  <separator name="symmetry" >
   <i type="int" name="ISYM">     3</i>
   <i name="SYMPREC">      0.00001000</i>
  </separator>
  <separator name="dos" >
   <i type="int" name="LORBIT">     0</i>
   <v name="RWIGS">     -1.00000000     -1.00000000     -1.00000000</v>
   <i type="int" name="NEDOS">   301</i>
   <i name="EMIN">     10.00000000</i>
   <i name="EMAX">    -10.00000000</i>
   <i name="EFERMI">      0.00000000</i>
  </separator>
  <separator name="writing" >
   <i type="int" name="NWRITE">     2</i>
   <i type="logical" name="LWAVE"> T  </i>
   <i type="logical" name="LDOWNSAMPLE"> F  </i>
   <i type="logical" name="LCHARG"> T  </i>
   <i type="logical" name="LPARD"> F  </i>
   <i type="logical" name="LVTOT"> F  </i>
   <i type="logical" name="LVHAR"> F  </i>
   <i type="logical" name="LELF"> F  </i>
   <i type="logical" name="LOPTICS"> F  </i>
   <v name="STM">      0.00000000      0.00000000      0.00000000      0.00000000      0.00000000      0.00000000      0.00000000</v>
  </separator>
  <separator name="performance" >
   <i type="int" name="NPAR">     1</i>
   <i type="int" name="NSIM">     4</i>
   <i type="int" name="NBLK">    -1</i>
   <i type="logical" name="LPLANE"> T  </i>
   <i type="logical" name="LSCALAPACK"> T  </i>
   <i type="logical" name="LSCAAWARE"> F  </i>
   <i type="logical" name="LSCALU"> F  </i>
   <i type="logical" name="LASYNC"> F  </i>
   <i type="logical" name="LORBITALREAL"> F  </i>
  </separator>
  <separator name="miscellaneous" >
   <i type="int" name="IDIOT">     3</i>
   <i type="int" name="PHON_NSTRUCT">    -1</i>
   <i type="logical" name="LMUSIC"> F  </i>
   <v name="POMASS">     69.72300000     16.00000000     30.97400000</v>
   <v name="DARWINR">      0.00000000      0.00000000      0.00000000</v>
   <v name="DARWINV">      1.00000000      1.00000000      1.00000000</v>
   <i type="logical" name="LCORR"> T  </i>
  </separator>
  <i type="logical" name="GGA_COMPAT"> T  </i>
  <i type="logical" name="LBERRY"> F  </i>
  <i type="int" name="ICORELEVEL">     0</i>
  <i type="logical" name="LDAU"> F  </i>
  <i type="int" name="I_CONSTRAINED_M">     0</i>
  <separator name="electronic exchange-correlation" >
   <i type="string" name="GGA">--</i>
   <i type="int" name="VOSKOWN">     0</i>
   <i type="logical" name="LHFCALC"> T  </i>
   <i type="string" name="PRECFOCK">fast</i>
   <i type="logical" name="LSYMGRAD"> F  </i>
   <i type="logical" name="LHFONE"> F  </i>
   <i type="logical" name="LRHFCALC"> F  </i>
   <i type="logical" name="LTHOMAS"> F  </i>
   <i type="logical" name="LMODELHF"> F  </i>
   <i type="logical" name="LFOCKACE"> T  </i>
   <i name="ENCUT4O">     -1.00000000</i>
   <i type="int" name="EXXOEP">     0</i>
   <i type="int" name="FOURORBIT">     0</i>
   <i name="AEXX">      0.32000000</i>
   <i name="HFALPHA">     -1.00000000</i>
   <i name="MCALPHA">      0.00000000</i>
   <i name="ALDAX">      0.68000000</i>
   <i name="AGGAX">      0.68000000</i>
   <i name="ALDAC">      1.00000000</i>
   <i name="AGGAC">      1.00000000</i>
   <i type="int" name="NKREDX">     1</i>
   <i type="int" name="NKREDY">     1</i>
   <i type="int" name="NKREDZ">     1</i>
   <i type="logical" name="SHIFTRED"> F  </i>
   <i type="logical" name="ODDONLY"> F  </i>
   <i type="logical" name="EVENONLY"> F  </i>
   <i type="int" name="LMAXFOCK">     4</i>
   <i type="int" name="NMAXFOCKAE">     1</i>
   <i type="logical" name="LFOCKAEDFT"> F  </i>
   <i name="HFSCREEN">      0.20000000</i>
   <i name="HFSCREENC">      0.20000000</i>
   <i type="int" name="NBANDSGWLOW">     1</i>
  </separator>
  <separator name="vdW DFT" >
   <i type="logical" name="LUSE_VDW"> F  </i>
   <i type="int" name="IVDW_NL">     1</i>
   <i type="logical" name="LSPIN_VDW"> F  </i>
   <i name="Zab_VDW">     -0.84910000</i>
   <i name="PARAM1">      0.12340000</i>
   <i name="PARAM2">      1.00000000</i>
   <i name="PARAM3">      0.00000000</i>
  </separator>
  <separator name="model GW" >
   <i type="int" name="MODEL_GW">     0</i>
   <i name="MODEL_EPS0">      6.39733692</i>
   <i name="MODEL_ALPHA">      1.00000000</i>
  </separator>
  <separator name="linear response parameters" >
   <i type="logical" name="LEPSILON"> F  </i>
   <i type="logical" name="LRPA"> F  </i>
   <i type="logical" name="LNABLA"> F  </i>
   <i type="logical" name="LVEL"> F  </i>
   <i name="CSHIFT">      0.10000000</i>
   <i name="OMEGAMAX">     -1.00000000</i>
   <i name="DEG_THRESHOLD">      0.00200000</i>
   <i name="RTIME">     -0.10000000</i>
   <i name="WPLASMAI">      0.00000000</i>
   <v name="DFIELD">      0.00000000      0.00000000      0.00000000</v>
   <v name="WPLASMA">      0.00000000      0.00000000      0.00000000      0.00000000      0.00000000      0.00000000      0.00000000      0.00000000      0.00000000</v>
  </separator>
  <separator name="orbital magnetization" >
   <i type="logical" name="NUCIND"> F  </i>
   <v name="MAGPOS">      0.00000000      0.00000000      0.00000000</v>
   <i type="logical" name="LNICSALL"> T  </i>
   <i type="logical" name="ORBITALMAG"> F  </i>
   <i type="logical" name="LMAGBLOCH"> F  </i>
   <i type="logical" name="LCHIMAG"> F  </i>
   <i type="logical" name="LGAUGE"> T  </i>
   <i type="int" name="MAGATOM">     0</i>
   <v name="MAGDIPOL">      0.00000000      0.00000000      0.00000000</v>
   <v name="AVECCONST">      0.00000000      0.00000000      0.00000000</v>
  </separator>
  <separator name="response functions" >
   <i type="logical" name="LALL_IN_ONE"> F  </i>
   <i type="int" name="IALL_IN_ONE">    -1</i>
   <i type="int" name="NBANDS_WAVE">    -1</i>
   <i type="logical" name="LFINITE_TEMPERATURE"> F  </i>
   <i type="logical" name="LADDER"> F  </i>
   <i type="logical" name="LRPAFORCE"> F  </i>
   <i type="logical" name="LFXC"> F  </i>
   <i type="logical" name="LHARTREE"> T  </i>
   <i type="int" name="IBSE">     0</i>
   <v type="int" name="KPOINT">    -1     0     0     0</v>
   <i type="logical" name="LTCTC"> F  </i>
   <i type="logical" name="LTCTE"> F  </i>
   <i type="logical" name="LTETE"> F  </i>
   <i type="logical" name="LTRIPLET"> F  </i>
   <i type="logical" name="LFXCEPS"> F  </i>
   <i type="logical" name="LFXHEG"> F  </i>
   <i type="int" name="NATURALO">     2</i>
   <i type="logical" name="LHOLEGF"> F  </i>
   <i type="logical" name="L2ORDER"> F  </i>
   <i type="logical" name="LDMP1"> F  </i>
   <i type="logical" name="LMP2LT"> F  </i>
   <i type="logical" name="LSMP2LT"> F  </i>
   <i type="logical" name="LGWLF"> F  </i>
   <i name="ENCUTGW">     -1.60000002</i>
   <i name="ENCUTGWSOFT">     -1.60000002</i>
   <i name="ENCUTLF">     -1.00000000</i>
   <i type="logical" name="LESF_SPLINES"> F  </i>
   <i type="int" name="LMAXMP2">    -1</i>
   <i name="SCISSOR">      0.00000000</i>
   <i type="int" name="NOMEGA">     0</i>
   <i type="int" name="NOMEGAR">     0</i>
   <i type="int" name="NBANDSGW">    -1</i>
   <i type="int" name="NBANDSO">    -1</i>
   <i type="int" name="NBANDSV">    -1</i>
   <i type="int" name="NELMGW">     1</i>
   <i type="int" name="NELMHF">     1</i>
   <i type="int" name="DIM">     3</i>
   <i type="int" name="IESPILON">     4</i>
   <i type="int" name="ANTIRES">     0</i>
   <i name="OMEGAMAX">    -30.00000000</i>
   <i name="OMEGAMIN">    -30.00000000</i>
   <i name="OMEGATL">   -200.00000000</i>
   <i type="int" name="OMEGAGRID">     0</i>
   <i name="CSHIFT">     -0.10000000</i>
   <i type="logical" name="LSELFENERGY"> F  </i>
   <i type="logical" name="LSPECTRAL"> F  </i>
   <i type="logical" name="LSPECTRALGW"> F  </i>
   <i type="logical" name="LSINGLES"> F  </i>
   <i type="logical" name="LFERMIGW"> F  </i>
   <i type="logical" name="ODDONLYGW"> F  </i>
   <i type="logical" name="EVENONLYGW"> F  </i>
   <i type="int" name="NKREDLFX">     1</i>
   <i type="int" name="NKREDLFY">     1</i>
   <i type="int" name="NKREDLFZ">     1</i>
   <i type="int" name="MAXMEM">  2800</i>
   <i type="int" name="TELESCOPE">     0</i>
   <i type="int" name="NTAUPAR">    -1</i>
   <i type="int" name="NOMEGAPAR">    -1</i>
   <i name="DAMP_NEWTON">      0.80000001</i>
   <i name="LAMBDA">      1.00000000</i>
  </separator>
  <separator name="External order field" >
   <i name="OFIELD_KAPPA">      0.00000000</i>
   <v name="OFIELD_K">      0.00000000      0.00000000      0.00000000</v>
   <i name="OFIELD_Q6_NEAR">      0.00000000</i>
   <i name="OFIELD_Q6_FAR">      0.00000000</i>
   <i name="OFIELD_A">      0.00000000</i>
  </separator>
  <separator name="optional k-points parameters" >
   <i type="int" name="KPOINTS_OPT_MODE">     1</i>
   <i type="logical" name="LKPOINTS_OPT"> F  </i>
  </separator>
 </parameters>
 <atominfo>
  <atoms>     119 </atoms>
  <types>       3 </types>
  <array name="atoms" >
   <dimension dim="1">ion</dimension>
   <field type="string">element</field>
   <field type="int">atomtype</field>
   <set>
    <rc><c>Ga</c><c>   1</c></rc>
    <rc><c>Ga</c><c>   1</c></rc>
    <rc><c>Ga</c><c>   1</c></rc>
    <rc><c>Ga</c><c>   1</c></rc>
    <rc><c>Ga</c><c>   1</c></rc>
    <rc><c>Ga</c><c>   1</c></rc>
    <rc><c>Ga</c><c>   1</c></rc>
    <rc><c>Ga</c><c>   1</c></rc>
    <rc><c>Ga</c><c>   1</c></rc>
    <rc><c>Ga</c><c>   1</c></rc>
    <rc><c>Ga</c><c>   1</c></rc>
    <rc><c>Ga</c><c>   1</c></rc>
    <rc><c>Ga</c><c>   1</c></rc>
    <rc><c>Ga</c><c>   1</c></rc>
    <rc><c>Ga</c><c>   1</c></rc>
    <rc><c>Ga</c><c>   1</c></rc>
    <rc><c>Ga</c><c>   1</c></rc>
    <rc><c>Ga</c><c>   1</c></rc>
    <rc><c>Ga</c><c>   1</c></rc>
    <rc><c>Ga</c><c>   1</c></rc>
    <rc><c>Ga</c><c>   1</c></rc>
    <rc><c>Ga</c><c>   1</c></rc>
    <rc><c>Ga</c><c>   1</c></rc>
    <rc><c>Ga</c><c>   1</c></rc>
    <rc><c>Ga</c><c>   1</c></rc>
    <rc><c>Ga</c><c>   1</c></rc>
    <rc><c>Ga</c><c>   1</c></rc>
    <rc><c>Ga</c><c>   1</c></rc>
    <rc><c>Ga</c><c>   1</c></rc>
    <rc><c>Ga</c><c>   1</c></rc>
    <rc><c>Ga</c><c>   1</c></rc>
    <rc><c>Ga</c><c>   1</c></rc>
    <rc><c>Ga</c><c>   1</c></rc>
    <rc><c>Ga</c><c>   1</c></rc>
    <rc><c>Ga</c><c>   1</c></rc>
    <rc><c>Ga</c><c>   1</c></rc>
    <rc><c>Ga</c><c>   1</c></rc>
    <rc><c>Ga</c><c>   1</c></rc>
    <rc><c>Ga</c><c>   1</c></rc>
    <rc><c>Ga</c><c>   1</c></rc>
    <rc><c>Ga</c><c>   1</c></rc>
    <rc><c>Ga</c><c>   1</c></rc>
    <rc><c>Ga</c><c>   1</c></rc>
    <rc><c>Ga</c><c>   1</c></rc>
    <rc><c>Ga</c><c>   1</c></rc>
    <rc><c>Ga</c><c>   1</c></rc>
    <rc><c>Ga</c><c>   1</c></rc>
    <rc><c>O </c><c>   2</c></rc>
    <rc><c>O </c><c>   2</c></rc>
    <rc><c>O </c><c>   2</c></rc>
    <rc><c>O </c><c>   2</c></rc>
    <rc><c>O </c><c>   2</c></rc>
    <rc><c>O </c><c>   2</c></rc>
    <rc><c>O </c><c>   2</c></rc>
    <rc><c>O </c><c>   2</c></rc>
    <rc><c>O </c><c>   2</c></rc>
    <rc><c>O </c><c>   2</c></rc>
    <rc><c>O </c><c>   2</c></rc>
    <rc><c>O </c><c>   2</c></rc>
    <rc><c>O </c><c>   2</c></rc>
    <rc><c>O </c><c>   2</c></rc>
    <rc><c>O </c><c>   2</c></rc>
    <rc><c>O </c><c>   2</c></rc>
    <rc><c>O </c><c>   2</c></rc>
    <rc><c>O </c><c>   2</c></rc>
    <rc><c>O </c><c>   2</c></rc>
    <rc><c>O </c><c>   2</c></rc>
    <rc><c>O </c><c>   2</c></rc>
    <rc><c>O </c><c>   2</c></rc>
    <rc><c>O </c><c>   2</c></rc>
    <rc><c>O </c><c>   2</c></rc>
    <rc><c>O </c><c>   2</c></rc>
    <rc><c>O </c><c>   2</c></rc>
    <rc><c>O </c><c>   2</c></rc>
    <rc><c>O </c><c>   2</c></rc>
    <rc><c>O </c><c>   2</c></rc>
    <rc><c>O </c><c>   2</c></rc>
    <rc><c>O </c><c>   2</c></rc>
    <rc><c>O </c><c>   2</c></rc>
    <rc><c>O </c><c>   2</c></rc>
    <rc><c>O </c><c>   2</c></rc>
    <rc><c>O </c><c>   2</c></rc>
    <rc><c>O </c><c>   2</c></rc>
    <rc><c>O </c><c>   2</c></rc>
    <rc><c>O </c><c>   2</c></rc>
    <rc><c>O </c><c>   2</c></rc>
    <rc><c>O </c><c>   2</c></rc>
    <rc><c>O </c><c>   2</c></rc>
    <rc><c>O </c><c>   2</c></rc>
    <rc><c>O </c><c>   2</c></rc>
    <rc><c>O </c><c>   2</c></rc>
    <rc><c>O </c><c>   2</c></rc>
    <rc><c>O </c><c>   2</c></rc>
    <rc><c>O </c><c>   2</c></rc>
    <rc><c>O </c><c>   2</c></rc>
    <rc><c>O </c><c>   2</c></rc>
    <rc><c>O </c><c>   2</c></rc>
    <rc><c>O </c><c>   2</c></rc>
    <rc><c>O </c><c>   2</c></rc>
    <rc><c>O </c><c>   2</c></rc>
    <rc><c>O </c><c>   2</c></rc>
    <rc><c>O </c><c>   2</c></rc>
    <rc><c>O </c><c>   2</c></rc>
    <rc><c>O </c><c>   2</c></rc>
    <rc><c>O </c><c>   2</c></rc>
    <rc><c>O </c><c>   2</c></rc>
    <rc><c>O </c><c>   2</c></rc>
    <rc><c>O </c><c>   2</c></rc>
    <rc><c>O </c><c>   2</c></rc>
    <rc><c>O </c><c>   2</c></rc>
    <rc><c>O </c><c>   2</c></rc>
    <rc><c>O </c><c>   2</c></rc>
    <rc><c>O </c><c>   2</c></rc>
    <rc><c>O </c><c>   2</c></rc>
    <rc><c>O </c><c>   2</c></rc>
    <rc><c>O </c><c>   2</c></rc>
    <rc><c>O </c><c>   2</c></rc>
    <rc><c>O </c><c>   2</c></rc>
    <rc><c>P </c><c>   3</c></rc>
   </set>
  </array>
  <array name="atomtypes" >
   <dimension dim="1">type</dimension>
   <field type="int">atomspertype</field>
   <field type="string">element</field>
   <field>mass</field>
   <field>valence</field>
   <field type="string">pseudopotential</field>
   <set>
    <rc><c>  47</c><c>Ga</c><c>     69.72300000</c><c>     13.00000000</c><c>  PAW_PBE Ga_d 06Jul2010                </c></rc>
    <rc><c>  71</c><c>O </c><c>     16.00000000</c><c>      6.00000000</c><c>   PAW_PBE O 08Apr2002                  </c></rc>
    <rc><c>   1</c><c>P </c><c>     30.97400000</c><c>      5.00000000</c><c>  PAW_PBE P 06Sep2000                   </c></rc>
   </set>
  </array>
 </atominfo>
 <structure name="initialpos" >
  <crystal>
   <varray name="basis" >
    <v>       0.00000000      12.28047342       0.00000000 </v>
    <v>       9.14270205       0.00000000       0.00000000 </v>
    <v>       0.00000000      -2.76826177     -11.30069772 </v>
   </varray>
   <i name="volume">   1268.80515525 </i>
   <varray name="rec_basis" >
    <v>       0.00000000       0.08143009      -0.01994742 </v>
    <v>       0.10937686      -0.00000000       0.00000000 </v>
    <v>       0.00000000       0.00000000      -0.08849011 </v>
   </varray>
  </crystal>
  <varray name="positions" >
   <v>       0.67164779       0.00000000       0.16957799 </v>
   <v>       0.65600614       0.00000000       0.64922566 </v>
   <v>       0.67254023       0.33007681       0.16406095 </v>
   <v>       0.64928279       0.32974776       0.65382934 </v>
   <v>       0.67254023       0.66992319       0.16406095 </v>
   <v>       0.64928279       0.67025224       0.65382934 </v>
   <v>       0.85863287       0.16145963       0.35962145 </v>
   <v>       0.83738011       0.16989825       0.84239544 </v>
   <v>       0.85053135       0.50000000       0.33745201 </v>
   <v>       0.81502930       0.50000000       0.84443139 </v>
   <v>       0.85863287       0.83854037       0.35962145 </v>
   <v>       0.83738011       0.83010175       0.84239544 </v>
   <v>       0.58793655       0.13037293       0.39378713 </v>
   <v>       0.59792685       0.16732778       0.90358912 </v>
   <v>       0.58845849       0.50000000       0.39178272 </v>
   <v>       0.59304883       0.50000000       0.90701587 </v>
   <v>       0.58793655       0.86962707       0.39378713 </v>
   <v>       0.59792685       0.83267222       0.90358912 </v>
   <v>       0.91777431       0.00000000       0.10797013 </v>
   <v>       0.93876483       0.00000000       0.63397309 </v>
   <v>       0.91088650       0.34783901       0.08490498 </v>
   <v>       0.89727104       0.37195879       0.59805058 </v>
   <v>       0.91088650       0.65216099       0.08490498 </v>
   <v>       0.89727104       0.62804121       0.59805058 </v>
   <v>       0.15677809       0.16149063       0.13249525 </v>
   <v>       0.15025955       0.17412001       0.65286832 </v>
   <v>       0.15712081       0.50000000       0.16015346 </v>
   <v>       0.17473191       0.50000000       0.65510557 </v>
   <v>       0.15677809       0.83850937       0.13249525 </v>
   <v>       0.15025955       0.82587999       0.65286832 </v>
   <v>       0.29669592       0.00000000       0.36377304 </v>
   <v>       0.34537415       0.00000000       0.84822686 </v>
   <v>       0.34627011       0.33248519       0.33162448 </v>
   <v>       0.34497166       0.32694127       0.84882740 </v>
   <v>       0.34627011       0.66751481       0.33162448 </v>
   <v>       0.34497166       0.67305873       0.84882740 </v>
   <v>       0.05929015       0.00000000       0.85191823 </v>
   <v>       0.09594424       0.32672287       0.39741111 </v>
   <v>       0.08642340       0.37216362       0.88713374 </v>
   <v>       0.09594424       0.67327713       0.39741111 </v>
   <v>       0.08642340       0.62783638       0.88713374 </v>
   <v>       0.42019886       0.16669034       0.11157917 </v>
   <v>       0.39278785       0.15769135       0.59864192 </v>
   <v>       0.41902614       0.50000000       0.10220895 </v>
   <v>       0.40817696       0.50000000       0.59742780 </v>
   <v>       0.42019886       0.83330966       0.11157917 </v>
   <v>       0.39278785       0.84230865       0.59864192 </v>
   <v>       0.99376799       0.17500373       0.11462622 </v>
   <v>       0.98841090       0.20218570       0.61472525 </v>
   <v>       0.00357327       0.50000000       0.17050959 </v>
   <v>       0.03183773       0.50000000       0.66946782 </v>
   <v>       0.99376799       0.82499627       0.11462622 </v>
   <v>       0.98841090       0.79781430       0.61472525 </v>
   <v>       0.44660706       0.00000000       0.35493914 </v>
   <v>       0.51080261       0.00000000       0.88569265 </v>
   <v>       0.51121081       0.32112372       0.36627117 </v>
   <v>       0.50871574       0.33312806       0.88450209 </v>
   <v>       0.51121081       0.67887628       0.36627117 </v>
   <v>       0.50871574       0.66687194       0.88450209 </v>
   <v>       0.68448373       0.16915121       0.28062279 </v>
   <v>       0.66283065       0.16037669       0.77613175 </v>
   <v>       0.67497470       0.50000000       0.27992833 </v>
   <v>       0.65378989       0.50000000       0.77437586 </v>
   <v>       0.68448373       0.83084879       0.28062279 </v>
   <v>       0.66283065       0.83962331       0.77613175 </v>
   <v>       0.83751564       0.00000000       0.22544995 </v>
   <v>       0.81763946       0.00000000       0.71923164 </v>
   <v>       0.83422915       0.34161184       0.21082485 </v>
   <v>       0.81543282       0.33507551       0.72705239 </v>
   <v>       0.83422915       0.65838816       0.21082485 </v>
   <v>       0.81543282       0.66492449       0.72705239 </v>
   <v>       0.85077146       0.00000000       0.46530102 </v>
   <v>       0.83720679       0.00000000       0.94727702 </v>
   <v>       0.82651298       0.33355517       0.43429400 </v>
   <v>       0.79297741       0.31560410       0.94607290 </v>
   <v>       0.82651298       0.66644483       0.43429400 </v>
   <v>       0.79297741       0.68439590       0.94607290 </v>
   <v>       0.67029034       0.15979861       0.05998646 </v>
   <v>       0.66473411       0.17284207       0.55472476 </v>
   <v>       0.67078853       0.50000000       0.06007765 </v>
   <v>       0.64965799       0.50000000       0.55275788 </v>
   <v>       0.67029034       0.84020139       0.05998646 </v>
   <v>       0.66473411       0.82715793       0.55472476 </v>
   <v>       0.50683719       0.00000000       0.13816156 </v>
   <v>       0.49371724       0.00000000       0.61684685 </v>
   <v>       0.50777494       0.33351169       0.12795833 </v>
   <v>       0.48808267       0.32664718       0.62561414 </v>
   <v>       0.50777494       0.66648831       0.12795833 </v>
   <v>       0.48808267       0.67335282       0.62561414 </v>
   <v>       0.00802150       0.17069568       0.36363509 </v>
   <v>       0.99658178       0.20287534       0.87328156 </v>
   <v>       0.01211967       0.50000000       0.40110607 </v>
   <v>       0.94641321       0.50000000       0.96014050 </v>
   <v>       0.00802150       0.82930432       0.36363509 </v>
   <v>       0.99658178       0.79712466       0.87328156 </v>
   <v>       0.16567538       0.00000000       0.24382147 </v>
   <v>       0.18689805       0.00000000       0.78476149 </v>
   <v>       0.17781395       0.33949367       0.28109230 </v>
   <v>       0.18493917       0.31332050       0.78427541 </v>
   <v>       0.17781395       0.66050633       0.28109230 </v>
   <v>       0.18493917       0.68667950       0.78427541 </v>
   <v>       0.31976740       0.18789864       0.20160964 </v>
   <v>       0.35236536       0.16938319       0.74044056 </v>
   <v>       0.33374663       0.50000000       0.21412064 </v>
   <v>       0.33670920       0.50000000       0.72540730 </v>
   <v>       0.31976740       0.81210136       0.20160964 </v>
   <v>       0.35236536       0.83061681       0.74044056 </v>
   <v>       0.32696354       0.19099188       0.44133895 </v>
   <v>       0.34318199       0.16395846       0.95679532 </v>
   <v>       0.34936596       0.50000000       0.43747964 </v>
   <v>       0.33807002       0.50000000       0.94692139 </v>
   <v>       0.32696354       0.80900812       0.44133895 </v>
   <v>       0.34318199       0.83604154       0.95679532 </v>
   <v>       0.14499044       0.00000000       0.01826142 </v>
   <v>       0.16114638       0.34044648       0.04983928 </v>
   <v>       0.18538066       0.34079566       0.55308230 </v>
   <v>       0.16114638       0.65955352       0.04983928 </v>
   <v>       0.18538066       0.65920434       0.55308230 </v>
   <v>       0.19592706       0.00000000       0.53109164 </v>
  </varray>
 </structure>
 <calculation>
  <scstep>
   <time name="total">    3.96    3.98</time>
   <energy>
    <i name="alphaZ">   5376.25786726 </i>
    <i name="ewald"> -86471.71720945 </i>
    <i name="hartreedc">  -2126.59831253 </i>
    <i name="XCdc">   2816.07945976 </i>
    <i name="pawpsdc"> 342963.60876573 </i>
    <i name="pawaedc">-371767.32125700 </i>
    <i name="eentropy">     -0.00841961 </i>
    <i name="bandstr"> -40242.03949239 </i>
    <i name="atom"> 131500.23896116 </i>
    <i name="e_fr_energy"> -17951.49963708 </i>
    <i name="e_wo_entrp"> -17951.49121747 </i>
    <i name="e_0_energy"> -17951.49542728 </i>
   </energy>
  </scstep>
  <scstep>
   <time name="total">    3.12    3.12</time>
   <energy>
    <i name="e_fr_energy"> -63841.89712334 </i>
    <i name="e_wo_entrp"> -63841.88270694 </i>
    <i name="e_0_energy"> -63841.88991514 </i>
   </energy>
  </scstep>
  <scstep>
   <time name="total">    3.50    3.50</time>
   <energy>
    <i name="e_fr_energy"> -69870.40559870 </i>
    <i name="e_wo_entrp"> -69870.37953612 </i>
    <i name="e_0_energy"> -69870.39256741 </i>
   </energy>
  </scstep>
  <scstep>
   <time name="total">    3.94    3.94</time>
   <energy>
    <i name="e_fr_energy"> -70843.11980930 </i>
    <i name="e_wo_entrp"> -70843.08252019 </i>
    <i name="e_0_energy"> -70843.10116475 </i>
   </energy>
  </scstep>
  <scstep>
   <time name="total">  235.70  235.70</time>
   <energy>
    <i name="e_fr_energy"> -41241.11171495 </i>
    <i name="e_wo_entrp"> -41241.11170390 </i>
    <i name="e_0_energy"> -41241.11170943 </i>
   </energy>
  </scstep>
  <scstep>
   <time name="total">  468.87  468.86</time>
   <energy>
    <i name="e_fr_energy">  41752.44643239 </i>
    <i name="e_wo_entrp">  41752.46582258 </i>
    <i name="e_0_energy">  41752.45612749 </i>
   </energy>
  </scstep>
  <scstep>
   <time name="total">  469.47  469.49</time>
   <energy>
    <i name="e_fr_energy">  22131.01951228 </i>
    <i name="e_wo_entrp">  22131.03452993 </i>
    <i name="e_0_energy">  22131.02702110 </i>
   </energy>
  </scstep>
  <scstep>
   <time name="total">  468.29  468.32</time>
   <energy>
    <i name="e_fr_energy">  15469.93689418 </i>
    <i name="e_wo_entrp">  15469.95975463 </i>
    <i name="e_0_energy">  15469.94832440 </i>
   </energy>
  </scstep>
  <scstep>
   <time name="total">  468.59  468.60</time>
   <energy>
    <i name="e_fr_energy">  11283.26137659 </i>
    <i name="e_wo_entrp">  11283.27799099 </i>
    <i name="e_0_energy">  11283.26968379 </i>
   </energy>
  </scstep>
  <scstep>
   <time name="total">  468.77  468.78</time>
   <energy>
    <i name="e_fr_energy">   9093.55394337 </i>
    <i name="e_wo_entrp">   9093.56040066 </i>
    <i name="e_0_energy">   9093.55717201 </i>
   </energy>
  </scstep>
  <scstep>
   <time name="total">  468.41  468.44</time>
   <energy>
    <i name="e_fr_energy">   8053.63174586 </i>
    <i name="e_wo_entrp">   8053.64051852 </i>
    <i name="e_0_energy">   8053.63613219 </i>
   </energy>
  </scstep>
  <scstep>
   <time name="total">  468.48  468.49</time>
   <energy>
    <i name="e_fr_energy">   6751.44720322 </i>
    <i name="e_wo_entrp">   6751.44825022 </i>
    <i name="e_0_energy">   6751.44772672 </i>
   </energy>
  </scstep>
  <scstep>
   <time name="total">  468.57  468.60</time>
   <energy>
    <i name="e_fr_energy">   4105.05598678 </i>
    <i name="e_wo_entrp">   4105.07038335 </i>
    <i name="e_0_energy">   4105.06318506 </i>
   </energy>
  </scstep>
  <scstep>
   <time name="total">  468.52  468.53</time>
   <energy>
    <i name="e_fr_energy">   2133.78433009 </i>
    <i name="e_wo_entrp">   2133.79459347 </i>
    <i name="e_0_energy">   2133.78946178 </i>
   </energy>
  </scstep>
  <scstep>
   <time name="total">  468.86  468.85</time>
   <energy>
    <i name="e_fr_energy">    695.27387935 </i>
    <i name="e_wo_entrp">    695.29012181 </i>
    <i name="e_0_energy">    695.28200058 </i>
   </energy>
  </scstep>
  <scstep>
   <time name="total">  468.89  468.88</time>
   <energy>
    <i name="e_fr_energy">   -125.22420989 </i>
    <i name="e_wo_entrp">   -125.21131382 </i>
    <i name="e_0_energy">   -125.21776185 </i>
   </energy>
  </scstep>
  <scstep>
   <time name="total">  469.08  469.05</time>
   <energy>
    <i name="e_fr_energy">   -431.70225155 </i>
    <i name="e_wo_entrp">   -431.68576989 </i>
    <i name="e_0_energy">   -431.69401072 </i>
   </energy>
  </scstep>
  <scstep>
   <time name="total">  468.58  468.55</time>
   <energy>
    <i name="e_fr_energy">   -560.66891061 </i>
    <i name="e_wo_entrp">   -560.65926471 </i>
    <i name="e_0_energy">   -560.66408766 </i>
   </energy>
  </scstep>
  <scstep>
   <time name="total">  468.35  468.32</time>
   <energy>
    <i name="e_fr_energy">   -644.30183237 </i>
    <i name="e_wo_entrp">   -644.29111767 </i>
    <i name="e_0_energy">   -644.29647502 </i>
   </energy>
  </scstep>
  <scstep>
   <time name="total">  468.30  468.25</time>
   <energy>
    <i name="e_fr_energy">   -707.49265076 </i>
    <i name="e_wo_entrp">   -707.49012059 </i>
    <i name="e_0_energy">   -707.49138567 </i>
   </energy>
  </scstep>
  <scstep>
   <time name="total">  468.45  468.45</time>
   <energy>
    <i name="e_fr_energy">   -753.80217384 </i>
    <i name="e_wo_entrp">   -753.79892977 </i>
    <i name="e_0_energy">   -753.80055180 </i>
   </energy>
  </scstep>
  <scstep>
   <time name="total">  467.74  467.76</time>
   <energy>
    <i name="e_fr_energy">   -787.41753503 </i>
    <i name="e_wo_entrp">   -787.41228700 </i>
    <i name="e_0_energy">   -787.41491102 </i>
   </energy>
  </scstep>
  <scstep>
   <time name="total">  467.91  467.89</time>
   <energy>
    <i name="e_fr_energy">   -808.63318365 </i>
    <i name="e_wo_entrp">   -808.62637490 </i>
    <i name="e_0_energy">   -808.62977927 </i>
   </energy>
  </scstep>
  <scstep>
   <time name="total">  467.99  467.97</time>
   <energy>
    <i name="e_fr_energy">   -820.43662168 </i>
    <i name="e_wo_entrp">   -820.42880831 </i>
    <i name="e_0_energy">   -820.43271499 </i>
   </energy>
  </scstep>
  <scstep>
   <time name="total">  468.13  468.08</time>
   <energy>
    <i name="e_fr_energy">   -827.19793240 </i>
    <i name="e_wo_entrp">   -827.18901316 </i>
    <i name="e_0_energy">   -827.19347278 </i>
   </energy>
  </scstep>
  <scstep>
   <time name="total">  468.02  468.02</time>
   <energy>
    <i name="e_fr_energy">   -831.68488160 </i>
    <i name="e_wo_entrp">   -831.67687054 </i>
    <i name="e_0_energy">   -831.68087607 </i>
   </energy>
  </scstep>
  <scstep>
   <time name="total">  468.02  467.98</time>
   <energy>
    <i name="e_fr_energy">   -834.79838183 </i>
    <i name="e_wo_entrp">   -834.79160419 </i>
    <i name="e_0_energy">   -834.79499301 </i>
   </energy>
  </scstep>
  <scstep>
   <time name="total">  467.88  467.87</time>
   <energy>
    <i name="e_fr_energy">   -836.81858795 </i>
    <i name="e_wo_entrp">   -836.81125643 </i>
    <i name="e_0_energy">   -836.81492219 </i>
   </energy>
  </scstep>
  <scstep>
   <time name="total">  468.09  468.09</time>
   <energy>
    <i name="e_fr_energy">   -838.10625329 </i>
    <i name="e_wo_entrp">   -838.09929602 </i>
    <i name="e_0_energy">   -838.10277466 </i>
   </energy>
  </scstep>
  <scstep>
   <time name="total">  467.82  467.80</time>
   <energy>
    <i name="e_fr_energy">   -838.92665600 </i>
    <i name="e_wo_entrp">   -838.91993174 </i>
    <i name="e_0_energy">   -838.92329387 </i>
   </energy>
  </scstep>
  <scstep>
   <time name="total">  467.93  467.96</time>
   <energy>
    <i name="e_fr_energy">   -839.44898903 </i>
    <i name="e_wo_entrp">   -839.44208191 </i>
    <i name="e_0_energy">   -839.44553547 </i>
   </energy>
  </scstep>
  <scstep>
   <time name="total">  467.95  467.95</time>
   <energy>
    <i name="e_fr_energy">   -839.80826594 </i>
    <i name="e_wo_entrp">   -839.80112757 </i>
    <i name="e_0_energy">   -839.80469676 </i>
   </energy>
  </scstep>
  <scstep>
   <time name="total">  468.30  468.28</time>
   <energy>
    <i name="e_fr_energy">   -840.05961791 </i>
    <i name="e_wo_entrp">   -840.05254789 </i>
    <i name="e_0_energy">   -840.05608290 </i>
   </energy>
  </scstep>
  <scstep>
   <time name="total">  468.50  468.47</time>
   <energy>
    <i name="e_fr_energy">   -840.23214428 </i>
    <i name="e_wo_entrp">   -840.22512064 </i>
    <i name="e_0_energy">   -840.22863246 </i>
   </energy>
  </scstep>
  <scstep>
   <time name="total">  467.93  467.89</time>
   <energy>
    <i name="e_fr_energy">   -840.34787892 </i>
    <i name="e_wo_entrp">   -840.34081139 </i>
    <i name="e_0_energy">   -840.34434516 </i>
   </energy>
  </scstep>
  <scstep>
   <time name="total">  467.95  467.95</time>
   <energy>
    <i name="e_fr_energy">   -840.42327459 </i>
    <i name="e_wo_entrp">   -840.41618752 </i>
    <i name="e_0_energy">   -840.41973106 </i>
   </energy>
  </scstep>
  <scstep>
   <time name="total">  467.96  467.94</time>
   <energy>
    <i name="e_fr_energy">   -840.47295580 </i>
    <i name="e_wo_entrp">   -840.46586773 </i>
    <i name="e_0_energy">   -840.46941177 </i>
   </energy>
  </scstep>
  <scstep>
   <time name="total">  468.40  468.38</time>
   <energy>
    <i name="e_fr_energy">   -840.50676242 </i>
    <i name="e_wo_entrp">   -840.49964951 </i>
    <i name="e_0_energy">   -840.50320597 </i>
   </energy>
  </scstep>
  <scstep>
   <time name="total">  468.09  468.07</time>
   <energy>
    <i name="e_fr_energy">   -840.53105865 </i>
    <i name="e_wo_entrp">   -840.52389890 </i>
    <i name="e_0_energy">   -840.52747877 </i>
   </energy>
  </scstep>
  <scstep>
   <time name="total">  467.98  467.95</time>
   <energy>
    <i name="e_fr_energy">   -840.54793667 </i>
    <i name="e_wo_entrp">   -840.54075771 </i>
    <i name="e_0_energy">   -840.54434719 </i>
   </energy>
  </scstep>
  <scstep>
   <time name="total">  467.87  467.87</time>
   <energy>
    <i name="e_fr_energy">   -840.55916543 </i>
    <i name="e_wo_entrp">   -840.55199691 </i>
    <i name="e_0_energy">   -840.55558117 </i>
   </energy>
  </scstep>
  <scstep>
   <time name="total">  467.82  467.83</time>
   <energy>
    <i name="e_fr_energy">   -840.56679777 </i>
    <i name="e_wo_entrp">   -840.55964332 </i>
    <i name="e_0_energy">   -840.56322055 </i>
   </energy>
  </scstep>
  <scstep>
   <time name="total">  468.01  467.99</time>
   <energy>
    <i name="e_fr_energy">   -840.57191489 </i>
    <i name="e_wo_entrp">   -840.56475221 </i>
    <i name="e_0_energy">   -840.56833355 </i>
   </energy>
  </scstep>
  <scstep>
   <time name="total">  468.14  468.14</time>
   <energy>
    <i name="e_fr_energy">   -840.57971084 </i>
    <i name="e_wo_entrp">   -840.57255871 </i>
    <i name="e_0_energy">   -840.57613478 </i>
   </energy>
  </scstep>
  <scstep>
   <time name="total">  468.07  468.04</time>
   <energy>
    <i name="e_fr_energy">   -840.58245481 </i>
    <i name="e_wo_entrp">   -840.57530663 </i>
    <i name="e_0_energy">   -840.57888072 </i>
   </energy>
  </scstep>
  <scstep>
   <time name="total">  468.23  468.22</time>
   <energy>
    <i name="e_fr_energy">   -840.58308472 </i>
    <i name="e_wo_entrp">   -840.57593573 </i>
    <i name="e_0_energy">   -840.57951023 </i>
   </energy>
  </scstep>
  <scstep>
   <time name="total">  468.27  468.24</time>
   <energy>
    <i name="e_fr_energy">   -840.58326580 </i>
    <i name="e_wo_entrp">   -840.57611647 </i>
    <i name="e_0_energy">   -840.57969113 </i>
   </energy>
  </scstep>
  <scstep>
   <time name="total">  468.11  468.11</time>
   <energy>
    <i name="e_fr_energy">   -840.58331500 </i>
    <i name="e_wo_entrp">   -840.57616649 </i>
    <i name="e_0_energy">   -840.57974074 </i>
   </energy>
  </scstep>
  <scstep>
   <time name="total">  468.20  468.19</time>
   <energy>
    <i name="e_fr_energy">   -840.58333216 </i>
    <i name="e_wo_entrp">   -840.57618421 </i>
    <i name="e_0_energy">   -840.57975818 </i>
   </energy>
  </scstep>
  <scstep>
   <time name="total">  697.78  697.77</time>
   <energy>
    <i name="alphaZ">   5376.25786726 </i>
    <i name="ewald"> -86471.71720945 </i>
    <i name="hartreedc"> -34100.05244131 </i>
    <i name="XCdc">   2905.84669892 </i>
    <i name="pawpsdc"> 121551.90697460 </i>
    <i name="pawaedc">-136820.33647576 </i>
    <i name="eentropy">     -0.00714831 </i>
    <i name="bandstr">  -8652.27310475 </i>
    <i name="atom"> 131500.23896116 </i>
    <i name="e_fr_energy">   -840.58334082 </i>
    <i name="e_wo_entrp">   -840.57619252 </i>
    <i name="e_0_energy">   -840.57976667 </i>
   </energy>
  </scstep>
  <structure>
   <crystal>
    <varray name="basis" >
     <v>       0.00000000      12.28047342       0.00000000 </v>
     <v>       9.14270205       0.00000000       0.00000000 </v>
     <v>       0.00000000      -2.76826177     -11.30069772 </v>
    </varray>
    <i name="volume">   1268.80515525 </i>
    <varray name="rec_basis" >
     <v>       0.00000000       0.08143009      -0.01994742 </v>
     <v>       0.10937686      -0.00000000       0.00000000 </v>
     <v>       0.00000000       0.00000000      -0.08849011 </v>
    </varray>
   </crystal>
   <varray name="positions" >
    <v>       0.67164779       0.00000000       0.16957799 </v>
    <v>       0.65600614       0.00000000       0.64922566 </v>
    <v>       0.67254023       0.33007681       0.16406095 </v>
    <v>       0.64928279       0.32974776       0.65382934 </v>
    <v>       0.67254023       0.66992319       0.16406095 </v>
    <v>       0.64928279       0.67025224       0.65382934 </v>
    <v>       0.85863287       0.16145963       0.35962145 </v>
    <v>       0.83738011       0.16989825       0.84239544 </v>
    <v>       0.85053135       0.50000000       0.33745201 </v>
    <v>       0.81502930       0.50000000       0.84443139 </v>
    <v>       0.85863287       0.83854037       0.35962145 </v>
    <v>       0.83738011       0.83010175       0.84239544 </v>
    <v>       0.58793655       0.13037293       0.39378713 </v>
    <v>       0.59792685       0.16732778       0.90358912 </v>
    <v>       0.58845849       0.50000000       0.39178272 </v>
    <v>       0.59304883       0.50000000       0.90701587 </v>
    <v>       0.58793655       0.86962707       0.39378713 </v>
    <v>       0.59792685       0.83267222       0.90358912 </v>
    <v>       0.91777431       0.00000000       0.10797013 </v>
    <v>       0.93876483       0.00000000       0.63397309 </v>
    <v>       0.91088650       0.34783901       0.08490498 </v>
    <v>       0.89727104       0.37195879       0.59805058 </v>
    <v>       0.91088650       0.65216099       0.08490498 </v>
    <v>       0.89727104       0.62804121       0.59805058 </v>
    <v>       0.15677809       0.16149063       0.13249525 </v>
    <v>       0.15025955       0.17412001       0.65286832 </v>
    <v>       0.15712081       0.50000000       0.16015346 </v>
    <v>       0.17473191       0.50000000       0.65510557 </v>
    <v>       0.15677809       0.83850937       0.13249525 </v>
    <v>       0.15025955       0.82587999       0.65286832 </v>
    <v>       0.29669592       0.00000000       0.36377304 </v>
    <v>       0.34537415       0.00000000       0.84822686 </v>
    <v>       0.34627011       0.33248519       0.33162448 </v>
    <v>       0.34497166       0.32694127       0.84882740 </v>
    <v>       0.34627011       0.66751481       0.33162448 </v>
    <v>       0.34497166       0.67305873       0.84882740 </v>
    <v>       0.05929015       0.00000000       0.85191823 </v>
    <v>       0.09594424       0.32672287       0.39741111 </v>
    <v>       0.08642340       0.37216362       0.88713374 </v>
    <v>       0.09594424       0.67327713       0.39741111 </v>
    <v>       0.08642340       0.62783638       0.88713374 </v>
    <v>       0.42019886       0.16669034       0.11157917 </v>
    <v>       0.39278785       0.15769135       0.59864192 </v>
    <v>       0.41902614       0.50000000       0.10220895 </v>
    <v>       0.40817696       0.50000000       0.59742780 </v>
    <v>       0.42019886       0.83330966       0.11157917 </v>
    <v>       0.39278785       0.84230865       0.59864192 </v>
    <v>       0.99376799       0.17500373       0.11462622 </v>
    <v>       0.98841090       0.20218570       0.61472525 </v>
    <v>       0.00357327       0.50000000       0.17050959 </v>
    <v>       0.03183773       0.50000000       0.66946782 </v>
    <v>       0.99376799       0.82499627       0.11462622 </v>
    <v>       0.98841090       0.79781430       0.61472525 </v>
    <v>       0.44660706       0.00000000       0.35493914 </v>
    <v>       0.51080261       0.00000000       0.88569265 </v>
    <v>       0.51121081       0.32112372       0.36627117 </v>
    <v>       0.50871574       0.33312806       0.88450209 </v>
    <v>       0.51121081       0.67887628       0.36627117 </v>
    <v>       0.50871574       0.66687194       0.88450209 </v>
    <v>       0.68448373       0.16915121       0.28062279 </v>
    <v>       0.66283065       0.16037669       0.77613175 </v>
    <v>       0.67497470       0.50000000       0.27992833 </v>
    <v>       0.65378989       0.50000000       0.77437586 </v>
    <v>       0.68448373       0.83084879       0.28062279 </v>
    <v>       0.66283065       0.83962331       0.77613175 </v>
    <v>       0.83751564       0.00000000       0.22544995 </v>
    <v>       0.81763946       0.00000000       0.71923164 </v>
    <v>       0.83422915       0.34161184       0.21082485 </v>
    <v>       0.81543282       0.33507551       0.72705239 </v>
    <v>       0.83422915       0.65838816       0.21082485 </v>
    <v>       0.81543282       0.66492449       0.72705239 </v>
    <v>       0.85077146       0.00000000       0.46530102 </v>
    <v>       0.83720679       0.00000000       0.94727702 </v>
    <v>       0.82651298       0.33355517       0.43429400 </v>
    <v>       0.79297741       0.31560410       0.94607290 </v>
    <v>       0.82651298       0.66644483       0.43429400 </v>
    <v>       0.79297741       0.68439590       0.94607290 </v>
    <v>       0.67029034       0.15979861       0.05998646 </v>
    <v>       0.66473411       0.17284207       0.55472476 </v>
    <v>       0.67078853       0.50000000       0.06007765 </v>
    <v>       0.64965799       0.50000000       0.55275788 </v>
    <v>       0.67029034       0.84020139       0.05998646 </v>
    <v>       0.66473411       0.82715793       0.55472476 </v>
    <v>       0.50683719       0.00000000       0.13816156 </v>
    <v>       0.49371724       0.00000000       0.61684685 </v>
    <v>       0.50777494       0.33351169       0.12795833 </v>
    <v>       0.48808267       0.32664718       0.62561414 </v>
    <v>       0.50777494       0.66648831       0.12795833 </v>
    <v>       0.48808267       0.67335282       0.62561414 </v>
    <v>       0.00802150       0.17069568       0.36363509 </v>
    <v>       0.99658178       0.20287534       0.87328156 </v>
    <v>       0.01211967       0.50000000       0.40110607 </v>
    <v>       0.94641321       0.50000000       0.96014050 </v>
    <v>       0.00802150       0.82930432       0.36363509 </v>
    <v>       0.99658178       0.79712466       0.87328156 </v>
    <v>       0.16567538       0.00000000       0.24382147 </v>
    <v>       0.18689805       0.00000000       0.78476149 </v>
    <v>       0.17781395       0.33949367       0.28109230 </v>
    <v>       0.18493917       0.31332050       0.78427541 </v>
    <v>       0.17781395       0.66050633       0.28109230 </v>
    <v>       0.18493917       0.68667950       0.78427541 </v>
    <v>       0.31976740       0.18789864       0.20160964 </v>
    <v>       0.35236536       0.16938319       0.74044056 </v>
    <v>       0.33374663       0.50000000       0.21412064 </v>
    <v>       0.33670920       0.50000000       0.72540730 </v>
    <v>       0.31976740       0.81210136       0.20160964 </v>
    <v>       0.35236536       0.83061681       0.74044056 </v>
    <v>       0.32696354       0.19099188       0.44133895 </v>
    <v>       0.34318199       0.16395846       0.95679532 </v>
    <v>       0.34936596       0.50000000       0.43747964 </v>
    <v>       0.33807002       0.50000000       0.94692139 </v>
    <v>       0.32696354       0.80900812       0.44133895 </v>
    <v>       0.34318199       0.83604154       0.95679532 </v>
    <v>       0.14499044       0.00000000       0.01826142 </v>
    <v>       0.16114638       0.34044648       0.04983928 </v>
    <v>       0.18538066       0.34079566       0.55308230 </v>
    <v>       0.16114638       0.65955352       0.04983928 </v>
    <v>       0.18538066       0.65920434       0.55308230 </v>
    <v>       0.19592706       0.00000000       0.53109164 </v>
   </varray>
  </structure>
  <varray name="forces" >
   <v>       0.00000000       0.03895567      -0.08945889 </v>
   <v>       0.00000000       0.15683726       0.05637909 </v>
   <v>      -0.04715054       0.10086646      -0.10396360 </v>
   <v>      -0.08922153       0.09989124       0.13319502 </v>
   <v>       0.04715054       0.10086646      -0.10396360 </v>
   <v>       0.08922153       0.09989124       0.13319502 </v>
   <v>       0.04439488       0.05685174      -0.17572407 </v>
   <v>       0.11452739      -0.01697568       0.05033036 </v>
   <v>       0.00000000      -0.12256918      -0.15017491 </v>
   <v>       0.00000000       0.00502840      -0.02138910 </v>
   <v>      -0.04439488       0.05685174      -0.17572407 </v>
   <v>      -0.11452739      -0.01697568       0.05033036 </v>
   <v>      -0.06603645       0.13498237      -0.09574921 </v>
   <v>      -0.01688707      -0.07880172       0.01033003 </v>
   <v>       0.00000000       0.08284869      -0.03156639 </v>
   <v>       0.00000000      -0.08669916       0.01909884 </v>
   <v>       0.06603645       0.13498237      -0.09574921 </v>
   <v>       0.01688707      -0.07880172       0.01033003 </v>
   <v>       0.00000000       0.02464809      -0.03915043 </v>
   <v>       0.00000000      -0.14994448      -0.06524024 </v>
   <v>      -0.03353024       0.02641863      -0.13529180 </v>
   <v>       0.00648056       0.07742850       0.08528489 </v>
   <v>       0.03353024       0.02641863      -0.13529180 </v>
   <v>      -0.00648056       0.07742850       0.08528489 </v>
   <v>      -0.03907883       0.03147217      -0.00945873 </v>
   <v>       0.28575880      -0.15724133      -0.13884771 </v>
   <v>       0.00000000      -0.07181991      -0.07453958 </v>
   <v>       0.00000000      -0.19551913       0.11090995 </v>
   <v>       0.03907883       0.03147217      -0.00945873 </v>
   <v>      -0.28575880      -0.15724133      -0.13884771 </v>
   <v>       0.00000000       0.25275763       0.05335749 </v>
   <v>       0.00000000      -0.16103730       0.07851383 </v>
   <v>      -0.09784105      -0.15661736      -0.06588640 </v>
   <v>      -0.16784611      -0.09712726       0.05768871 </v>
   <v>       0.09784105      -0.15661736      -0.06588640 </v>
   <v>       0.16784611      -0.09712726       0.05768871 </v>
   <v>       0.00000000       0.28854647       0.09395938 </v>
   <v>      -0.10060514      -0.03024927       0.06101703 </v>
   <v>      -0.35023515       0.13700166      -0.13204016 </v>
   <v>       0.10060514      -0.03024927       0.06101703 </v>
   <v>       0.35023515       0.13700166      -0.13204016 </v>
   <v>       0.04884309      -0.07369767       0.05540241 </v>
   <v>       0.07216510       0.10092220      -0.04762408 </v>
   <v>       0.00000000      -0.01147360      -0.00555321 </v>
   <v>       0.00000000       0.10350218       0.01217285 </v>
   <v>      -0.04884309      -0.07369767       0.05540241 </v>
   <v>      -0.07216510       0.10092220      -0.04762408 </v>
   <v>      -0.08340910      -0.16446035       0.14072277 </v>
   <v>       0.08982017       0.02318430      -0.01103934 </v>
   <v>       0.00000000      -0.02533811       0.61427684 </v>
   <v>       0.00000000       0.66281744       0.12162961 </v>
   <v>       0.08340910      -0.16446035       0.14072277 </v>
   <v>      -0.08982017       0.02318430      -0.01103934 </v>
   <v>       0.00000000      -0.55201146      -0.07105172 </v>
   <v>       0.00000000       0.26550083      -0.06799833 </v>
   <v>       0.12364412       0.02898639      -0.04364705 </v>
   <v>       0.01833229       0.22601151      -0.08399466 </v>
   <v>      -0.12364412       0.02898639      -0.04364705 </v>
   <v>      -0.01833229       0.22601151      -0.08399466 </v>
   <v>       0.02664367       0.12565278       0.26947629 </v>
   <v>       0.03508785      -0.04880275      -0.19843962 </v>
   <v>       0.00000000      -0.05780110      -0.03580630 </v>
   <v>       0.00000000       0.16768523      -0.26796622 </v>
   <v>      -0.02664367       0.12565278       0.26947629 </v>
   <v>      -0.03508785      -0.04880275      -0.19843962 </v>
   <v>       0.00000000      -0.00778221       0.21949793 </v>
   <v>       0.00000000      -0.25243020      -0.07569059 </v>
   <v>       0.17389641      -0.12972913       0.16985663 </v>
   <v>      -0.04782305      -0.23988891      -0.22835396 </v>
   <v>      -0.17389641      -0.12972913       0.16985663 </v>
   <v>       0.04782305      -0.23988891      -0.22835396 </v>
   <v>       0.00000000       0.40313503       0.19179687 </v>
   <v>       0.00000000       0.31431636      -0.01962635 </v>
   <v>      -0.17208261       0.48805125       0.22616281 </v>
   <v>       0.00739457       0.56143769      -0.00202021 </v>
   <v>       0.17208261       0.48805125       0.22616281 </v>
   <v>      -0.00739457       0.56143769      -0.00202021 </v>
   <v>       0.00581705      -0.30281467       0.11325151 </v>
   <v>       0.06773689      -0.41902992      -0.27346412 </v>
   <v>       0.00000000      -0.31664897       0.11753038 </v>
   <v>       0.00000000      -0.34363464       0.06415736 </v>
   <v>      -0.00581705      -0.30281467       0.11325151 </v>
   <v>      -0.06773689      -0.41902992      -0.27346412 </v>
   <v>       0.00000000      -0.24831265       0.13869686 </v>
   <v>       0.00000000      -0.29139350       0.04341211 </v>
   <v>      -0.03229431      -0.23087530       0.07139324 </v>
   <v>       0.13949884      -0.09243288       0.09100330 </v>
   <v>       0.03229431      -0.23087530       0.07139324 </v>
   <v>      -0.13949884      -0.09243288       0.09100330 </v>
   <v>       0.64468874      -0.36621362      -0.12562227 </v>
   <v>       0.14255026      -0.11379919      -0.01565468 </v>
   <v>       0.00000000       0.18539174       0.23951378 </v>
   <v>       0.00000000      -0.66446468       0.04412957 </v>
   <v>      -0.64468874      -0.36621362      -0.12562227 </v>
   <v>      -0.14255026      -0.11379919      -0.01565468 </v>
   <v>       0.00000000       0.60925886       0.20259268 </v>
   <v>       0.00000000       0.20520227      -0.07649356 </v>
   <v>       0.16748277      -0.05059946      -0.14692828 </v>
   <v>      -0.07285972       0.16038781       0.08063477 </v>
   <v>      -0.16748277      -0.05059946      -0.14692828 </v>
   <v>       0.07285972       0.16038781       0.08063477 </v>
   <v>       0.13822610       0.11944308       0.22375159 </v>
   <v>       0.03261528       0.08190434       0.06726602 </v>
   <v>       0.00000000       0.12166615       0.04326673 </v>
   <v>       0.00000000      -0.14772470       0.25617349 </v>
   <v>      -0.13822610       0.11944308       0.22375159 </v>
   <v>      -0.03261528       0.08190434       0.06726602 </v>
   <v>      -0.08920479       0.28504963      -0.03996617 </v>
   <v>       0.02483215       0.39289452      -0.09959242 </v>
   <v>       0.00000000       0.24798332      -0.12754324 </v>
   <v>       0.00000000       0.38839645      -0.08822274 </v>
   <v>       0.08920479       0.28504963      -0.03996617 </v>
   <v>      -0.02483215       0.39289452      -0.09959242 </v>
   <v>       0.00000000      -0.27288300      -0.14967351 </v>
   <v>      -0.07829718      -0.33711228      -0.13484100 </v>
   <v>       0.09205252      -0.43674131      -0.03441938 </v>
   <v>       0.07829718      -0.33711228      -0.13484100 </v>
   <v>      -0.09205252      -0.43674131      -0.03441938 </v>
   <v>       0.00000000       0.02375337      -0.39231727 </v>
  </varray>
  <varray name="stress" >
   <v>     175.41882800       0.00000000       0.00000000 </v>
   <v>       0.00000000     202.46288634       7.40062794 </v>
   <v>       0.00000000       7.40062861     204.06153227 </v>
  </varray>
  <energy>
   <i name="e_fr_energy">   -840.58334082 </i>
   <i name="e_wo_entrp">   -840.57619252 </i>
   <i name="e_0_energy">   -840.57976667 </i>
  </energy>
  <time name="totalsc">22139.2922141.31</time>
  <eigenvalues>
   <array>
    <dimension dim="1">band</dimension>
    <dimension dim="2">kpoint</dimension>
    <dimension dim="3">spin</dimension>
    <field>eigene</field>
    <field>occ</field>
    <set>
     <set comment="spin 1">
      <set comment="kpoint 1">
       <r>  -18.9988    1.0000 </r>
       <r>  -18.6999    1.0000 </r>
       <r>  -18.5419    1.0000 </r>
       <r>  -18.4372    1.0000 </r>
       <r>  -18.3133    1.0000 </r>
       <r>  -18.3076    1.0000 </r>
       <r>  -18.1836    1.0000 </r>
       <r>  -18.1388    1.0000 </r>
       <r>  -18.0820    1.0000 </r>
       <r>  -18.0240    1.0000 </r>
       <r>  -17.9742    1.0000 </r>
       <r>  -17.9569    1.0000 </r>
       <r>  -17.9329    1.0000 </r>
       <r>  -17.8301    1.0000 </r>
       <r>  -17.7717    1.0000 </r>
       <r>  -17.7690    1.0000 </r>
       <r>  -17.6699    1.0000 </r>
       <r>  -17.6675    1.0000 </r>
       <r>  -17.6289    1.0000 </r>
       <r>  -17.6148    1.0000 </r>
       <r>  -17.6134    1.0000 </r>
       <r>  -17.5569    1.0000 </r>
       <r>  -17.5409    1.0000 </r>
       <r>  -17.5085    1.0000 </r>
       <r>  -17.4942    1.0000 </r>
       <r>  -17.4757    1.0000 </r>
       <r>  -17.4397    1.0000 </r>
       <r>  -17.4282    1.0000 </r>
       <r>  -17.4029    1.0000 </r>
       <r>  -17.3678    1.0000 </r>
       <r>  -17.3475    1.0000 </r>
       <r>  -17.3110    1.0000 </r>
       <r>  -17.3085    1.0000 </r>
       <r>  -17.2870    1.0000 </r>
       <r>  -17.2701    1.0000 </r>
       <r>  -17.2434    1.0000 </r>
       <r>  -17.2192    1.0000 </r>
       <r>  -17.1817    1.0000 </r>
       <r>  -17.1688    1.0000 </r>
       <r>  -17.1396    1.0000 </r>
       <r>  -17.0816    1.0000 </r>
       <r>  -17.0778    1.0000 </r>
       <r>  -17.0599    1.0000 </r>
       <r>  -17.0568    1.0000 </r>
       <r>  -17.0273    1.0000 </r>
       <r>  -16.9521    1.0000 </r>
       <r>  -16.9476    1.0000 </r>
       <r>  -16.9256    1.0000 </r>
       <r>  -16.9217    1.0000 </r>
       <r>  -16.9041    1.0000 </r>
       <r>  -16.8731    1.0000 </r>
       <r>  -16.8664    1.0000 </r>
       <r>  -16.8161    1.0000 </r>
       <r>  -16.8160    1.0000 </r>
       <r>  -16.7867    1.0000 </r>
       <r>  -16.7766    1.0000 </r>
       <r>  -16.7316    1.0000 </r>
       <r>  -16.7244    1.0000 </r>
       <r>  -16.6775    1.0000 </r>
       <r>  -16.6486    1.0000 </r>
       <r>  -16.6154    1.0000 </r>
       <r>  -16.5580    1.0000 </r>
       <r>  -16.4707    1.0000 </r>
       <r>  -16.3952    1.0000 </r>
       <r>  -16.3743    1.0000 </r>
       <r>  -16.3500    1.0000 </r>
       <r>  -16.2908    1.0000 </r>
       <r>  -16.1635    1.0000 </r>
       <r>  -15.9155    1.0000 </r>
       <r>  -15.8693    1.0000 </r>
       <r>  -15.5395    1.0000 </r>
       <r>  -13.5546    1.0000 </r>
       <r>  -13.5079    1.0000 </r>
       <r>  -13.4765    1.0000 </r>
       <r>  -13.4546    1.0000 </r>
       <r>  -13.4500    1.0000 </r>
       <r>  -13.4160    1.0000 </r>
       <r>  -13.4157    1.0000 </r>
       <r>  -13.4104    1.0000 </r>
       <r>  -13.4042    1.0000 </r>
       <r>  -13.4030    1.0000 </r>
       <r>  -13.3841    1.0000 </r>
       <r>  -13.3733    1.0000 </r>
       <r>  -13.3696    1.0000 </r>
       <r>  -13.3633    1.0000 </r>
       <r>  -13.3492    1.0000 </r>
       <r>  -13.3415    1.0000 </r>
       <r>  -13.3415    1.0000 </r>
       <r>  -13.3389    1.0000 </r>
       <r>  -13.3263    1.0000 </r>
       <r>  -13.3225    1.0000 </r>
       <r>  -13.3143    1.0000 </r>
       <r>  -13.3056    1.0000 </r>
       <r>  -13.3029    1.0000 </r>
       <r>  -13.2943    1.0000 </r>
       <r>  -13.2791    1.0000 </r>
       <r>  -13.2747    1.0000 </r>
       <r>  -13.2630    1.0000 </r>
       <r>  -13.2611    1.0000 </r>
       <r>  -13.2603    1.0000 </r>
       <r>  -13.2507    1.0000 </r>
       <r>  -13.2448    1.0000 </r>
       <r>  -13.2438    1.0000 </r>
       <r>  -13.2400    1.0000 </r>
       <r>  -13.2250    1.0000 </r>
       <r>  -13.2121    1.0000 </r>
       <r>  -13.2119    1.0000 </r>
       <r>  -13.2058    1.0000 </r>
       <r>  -13.2003    1.0000 </r>
       <r>  -13.1933    1.0000 </r>
       <r>  -13.1862    1.0000 </r>
       <r>  -13.1853    1.0000 </r>
       <r>  -13.1822    1.0000 </r>
       <r>  -13.1681    1.0000 </r>
       <r>  -13.1677    1.0000 </r>
       <r>  -13.1646    1.0000 </r>
       <r>  -13.1590    1.0000 </r>
       <r>  -13.1581    1.0000 </r>
       <r>  -13.1496    1.0000 </r>
       <r>  -13.1347    1.0000 </r>
       <r>  -13.1247    1.0000 </r>
       <r>  -13.1222    1.0000 </r>
       <r>  -13.1206    1.0000 </r>
       <r>  -13.1189    1.0000 </r>
       <r>  -13.1069    1.0000 </r>
       <r>  -13.0875    1.0000 </r>
       <r>  -13.0853    1.0000 </r>
       <r>  -13.0809    1.0000 </r>
       <r>  -13.0732    1.0000 </r>
       <r>  -13.0575    1.0000 </r>
       <r>  -13.0558    1.0000 </r>
       <r>  -13.0543    1.0000 </r>
       <r>  -13.0484    1.0000 </r>
       <r>  -13.0449    1.0000 </r>
       <r>  -13.0372    1.0000 </r>
       <r>  -13.0341    1.0000 </r>
       <r>  -13.0246    1.0000 </r>
       <r>  -13.0201    1.0000 </r>
       <r>  -13.0135    1.0000 </r>
       <r>  -13.0106    1.0000 </r>
       <r>  -13.0084    1.0000 </r>
       <r>  -13.0054    1.0000 </r>
       <r>  -12.9977    1.0000 </r>
       <r>  -12.9941    1.0000 </r>
       <r>  -12.9926    1.0000 </r>
       <r>  -12.9884    1.0000 </r>
       <r>  -12.9820    1.0000 </r>
       <r>  -12.9787    1.0000 </r>
       <r>  -12.9667    1.0000 </r>
       <r>  -12.9657    1.0000 </r>
       <r>  -12.9580    1.0000 </r>
       <r>  -12.9540    1.0000 </r>
       <r>  -12.9472    1.0000 </r>
       <r>  -12.9442    1.0000 </r>
       <r>  -12.9388    1.0000 </r>
       <r>  -12.9349    1.0000 </r>
       <r>  -12.9249    1.0000 </r>
       <r>  -12.9242    1.0000 </r>
       <r>  -12.9237    1.0000 </r>
       <r>  -12.9177    1.0000 </r>
       <r>  -12.9116    1.0000 </r>
       <r>  -12.9062    1.0000 </r>
       <r>  -12.8986    1.0000 </r>
       <r>  -12.8976    1.0000 </r>
       <r>  -12.8961    1.0000 </r>
       <r>  -12.8851    1.0000 </r>
       <r>  -12.8683    1.0000 </r>
       <r>  -12.8660    1.0000 </r>
       <r>  -12.8633    1.0000 </r>
       <r>  -12.8548    1.0000 </r>
       <r>  -12.8547    1.0000 </r>
       <r>  -12.8518    1.0000 </r>
       <r>  -12.8496    1.0000 </r>
       <r>  -12.8384    1.0000 </r>
       <r>  -12.8290    1.0000 </r>
       <r>  -12.8259    1.0000 </r>
       <r>  -12.8163    1.0000 </r>
       <r>  -12.8109    1.0000 </r>
       <r>  -12.8042    1.0000 </r>
       <r>  -12.7991    1.0000 </r>
       <r>  -12.7964    1.0000 </r>
       <r>  -12.7928    1.0000 </r>
       <r>  -12.7866    1.0000 </r>
       <r>  -12.7789    1.0000 </r>
       <r>  -12.7789    1.0000 </r>
       <r>  -12.7701    1.0000 </r>
       <r>  -12.7624    1.0000 </r>
       <r>  -12.7623    1.0000 </r>
       <r>  -12.7569    1.0000 </r>
       <r>  -12.7559    1.0000 </r>
       <r>  -12.7538    1.0000 </r>
       <r>  -12.7431    1.0000 </r>
       <r>  -12.7376    1.0000 </r>
       <r>  -12.7278    1.0000 </r>
       <r>  -12.7260    1.0000 </r>
       <r>  -12.7178    1.0000 </r>
       <r>  -12.7160    1.0000 </r>
       <r>  -12.7083    1.0000 </r>
       <r>  -12.6988    1.0000 </r>
       <r>  -12.6956    1.0000 </r>
       <r>  -12.6776    1.0000 </r>
       <r>  -12.6741    1.0000 </r>
[...]
       <r>   -12.6552   368.4533   413.7038 </r>
       <r>   -12.5212   336.1275   458.7226 </r>
       <r>   -12.3873   252.0388   492.4791 </r>
       <r>   -12.2534   195.8771   518.7136 </r>
       <r>   -12.1194   166.4918   541.0125 </r>
       <r>   -11.9855   166.6148   563.3278 </r>
       <r>   -11.8516   127.8269   580.4481 </r>
       <r>   -11.7176    92.2548   592.8042 </r>
       <r>   -11.5837    84.0025   604.0549 </r>
       <r>   -11.4498    43.1461   609.8337 </r>
       <r>   -11.3158    14.9833   611.8404 </r>
       <r>   -11.1819     1.1914   612.0000 </r>
       <r>   -11.0480     0.0000   612.0000 </r>
       <r>   -10.9140     0.0000   612.0000 </r>
       <r>   -10.7801     0.0000   612.0000 </r>
       <r>   -10.6462     0.0000   612.0000 </r>
       <r>   -10.5122     0.0000   612.0000 </r>
       <r>   -10.3783     0.0000   612.0000 </r>
       <r>   -10.2444     0.0000   612.0000 </r>
       <r>   -10.1104     0.0000   612.0000 </r>
       <r>    -9.9765     0.0000   612.0000 </r>
       <r>    -9.8426     0.0000   612.0000 </r>
       <r>    -9.7086     0.0000   612.0000 </r>
       <r>    -9.5747     0.0000   612.0000 </r>
       <r>    -9.4408     0.0000   612.0000 </r>
       <r>    -9.3068     0.0000   612.0000 </r>
       <r>    -9.1729     0.0000   612.0000 </r>
       <r>    -9.0390     0.0000   612.0000 </r>
       <r>    -8.9050     0.0000   612.0000 </r>
       <r>    -8.7711     0.0000   612.0000 </r>
       <r>    -8.6372     0.0000   612.0000 </r>
       <r>    -8.5032     0.0000   612.0000 </r>
       <r>    -8.3693     0.0000   612.0000 </r>
       <r>    -8.2354     0.0000   612.0000 </r>
       <r>    -8.1014     0.0000   612.0000 </r>
       <r>    -7.9675     0.0000   612.0000 </r>
       <r>    -7.8336     0.0000   612.0000 </r>
       <r>    -7.6996     0.0000   612.0000 </r>
       <r>    -7.5657     0.0000   612.0000 </r>
       <r>    -7.4318     0.0000   612.0000 </r>
       <r>    -7.2978     0.0000   612.0000 </r>
       <r>    -7.1639     0.0000   612.0000 </r>
       <r>    -7.0300     0.0000   612.0000 </r>
       <r>    -6.8960     0.0000   612.0000 </r>
       <r>    -6.7621     0.0106   612.0014 </r>
       <r>    -6.6282    10.5031   613.4081 </r>
       <r>    -6.4942     4.4190   614.0000 </r>
       <r>    -6.3603     0.0001   614.0000 </r>
       <r>    -6.2264     0.0000   614.0000 </r>
       <r>    -6.0924     0.0000   614.0000 </r>
       <r>    -5.9585     0.0000   614.0000 </r>
       <r>    -5.8246     0.0000   614.0000 </r>
       <r>    -5.6906     0.0000   614.0000 </r>
       <r>    -5.5567     0.0544   614.0073 </r>
       <r>    -5.4228     5.9442   614.8034 </r>
       <r>    -5.2888     3.9186   615.3282 </r>
       <r>    -5.1549    18.2120   617.7674 </r>
       <r>    -5.0210    25.6363   621.2010 </r>
       <r>    -4.8870    17.5135   623.5466 </r>
       <r>    -4.7531    24.3243   626.8045 </r>
       <r>    -4.6192    36.0971   631.6391 </r>
       <r>    -4.4852    42.6623   637.3530 </r>
       <r>    -4.3513    39.1656   642.5986 </r>
       <r>    -4.2174    46.2001   648.7864 </r>
       <r>    -4.0834    33.1258   653.2230 </r>
       <r>    -3.9495    33.4852   657.7078 </r>
       <r>    -3.8155    36.1056   662.5436 </r>
       <r>    -3.6816    39.8796   667.8848 </r>
       <r>    -3.5477    36.4019   672.7603 </r>
       <r>    -3.4137    33.3726   677.2300 </r>
       <r>    -3.2798    37.5853   682.2639 </r>
       <r>    -3.1459    32.2940   686.5892 </r>
       <r>    -3.0119    36.6793   691.5018 </r>
       <r>    -2.8780    33.9836   696.0533 </r>
       <r>    -2.7441    33.2765   700.5102 </r>
       <r>    -2.6101    46.4456   706.7308 </r>
       <r>    -2.4762    42.7948   712.4625 </r>
       <r>    -2.3423    42.4456   718.1474 </r>
       <r>    -2.2083    40.6572   723.5927 </r>
       <r>    -2.0744    50.3519   730.3365 </r>
       <r>    -1.9405    48.0863   736.7769 </r>
       <r>    -1.8065    55.8989   744.2637 </r>
       <r>    -1.6726    45.7752   750.3945 </r>
       <r>    -1.5387    47.7473   756.7895 </r>
       <r>    -1.4047    58.6859   764.6495 </r>
       <r>    -1.2708    62.1714   772.9764 </r>
       <r>    -1.1369    52.2377   779.9728 </r>
       <r>    -1.0029    57.6087   787.6885 </r>
       <r>    -0.8690    63.1081   796.1408 </r>
       <r>    -0.7351    62.1907   804.4702 </r>
       <r>    -0.6011    62.5594   812.8491 </r>
       <r>    -0.4672    62.7794   821.2573 </r>
       <r>    -0.3333    60.3972   829.3466 </r>
       <r>    -0.1993    63.7068   837.8790 </r>
       <r>    -0.0654    63.7244   846.4139 </r>
       <r>     0.0685    69.0916   855.6676 </r>
       <r>     0.2025    71.0910   865.1891 </r>
       <r>     0.3364    71.3476   874.7449 </r>
       <r>     0.4703    69.8074   884.0945 </r>
       <r>     0.6043    76.7971   894.3802 </r>
       <r>     0.7382    88.3415   906.2121 </r>
       <r>     0.8721    79.3746   916.8431 </r>
       <r>     1.0061    94.3773   929.4834 </r>
       <r>     1.1400    92.0375   941.8103 </r>
       <r>     1.2739    90.2114   953.8927 </r>
       <r>     1.4079   105.4913   968.0215 </r>
       <r>     1.5418   107.8572   982.4672 </r>
       <r>     1.6757    87.2711   994.1558 </r>
       <r>     1.8097    86.3396  1005.7195 </r>
       <r>     1.9436    68.0110  1014.8285 </r>
       <r>     2.0775    34.5992  1019.4625 </r>
       <r>     2.2115    32.2114  1023.7767 </r>
       <r>     2.3454    38.1551  1028.8870 </r>
       <r>     2.4793    28.1820  1032.6615 </r>
       <r>     2.6133     8.1251  1033.7497 </r>
       <r>     2.7472    22.0429  1036.7020 </r>
       <r>     2.8811    24.1818  1039.9407 </r>
       <r>     3.0151     0.4424  1040.0000 </r>
       <r>     3.1490     0.0000  1040.0000 </r>
       <r>     3.2829     0.0000  1040.0000 </r>
       <r>     3.4169     0.0000  1040.0000 </r>
       <r>     3.5508     0.2082  1040.0279 </r>
       <r>     3.6847    12.4562  1041.6962 </r>
       <r>     3.8187     9.3070  1042.9427 </r>
       <r>     3.9526     5.3275  1043.6562 </r>
       <r>     4.0865     2.5665  1044.0000 </r>
       <r>     4.2205     0.0001  1044.0000 </r>
       <r>     4.3544     0.0391  1044.0052 </r>
       <r>     4.4883     1.8345  1044.2509 </r>
       <r>     4.6223     4.4756  1044.8504 </r>
       <r>     4.7562    12.5289  1046.5284 </r>
       <r>     4.8901    10.9784  1047.9988 </r>
       <r>     5.0241     0.0090  1048.0000 </r>
       <r>     5.1580     0.0000  1048.0000 </r>
       <r>     5.2919     0.0000  1048.0000 </r>
       <r>     5.4259     0.0004  1048.0001 </r>
       <r>     5.5598     1.1524  1048.1544 </r>
       <r>     5.6937     3.8938  1048.6759 </r>
       <r>     5.8277     6.0718  1049.4891 </r>
       <r>     5.9616    14.5587  1051.4390 </r>
       <r>     6.0955     7.6361  1052.4618 </r>
       <r>     6.2295    11.3408  1053.9807 </r>
       <r>     6.3634     0.1441  1054.0000 </r>
       <r>     6.4973     0.0000  1054.0000 </r>
       <r>     6.6313     0.0000  1054.0000 </r>
       <r>     6.7652     0.0000  1054.0000 </r>
       <r>     6.8991     0.0000  1054.0000 </r>
       <r>     7.0331     0.0000  1054.0000 </r>
       <r>     7.1670     0.0000  1054.0000 </r>
       <r>     7.3009     0.0000  1054.0000 </r>
       <r>     7.4349     0.0000  1054.0000 </r>
       <r>     7.5688     0.4481  1054.0600 </r>
       <r>     7.7028     3.8869  1054.5806 </r>
       <r>     7.8367     3.1283  1054.9996 </r>
       <r>     7.9706     0.0031  1055.0000 </r>
       <r>     8.1046     0.8696  1055.1165 </r>
       <r>     8.2385     2.9171  1055.5072 </r>
       <r>     8.3724     2.7901  1055.8809 </r>
       <r>     8.5064     3.4769  1056.3465 </r>
       <r>     8.6403     4.0741  1056.8922 </r>
       <r>     8.7742     7.5189  1057.8992 </r>
       <r>     8.9082     6.3117  1058.7446 </r>
       <r>     9.0421     5.9297  1059.5388 </r>
       <r>     9.1760     9.6194  1060.8271 </r>
       <r>     9.3100     1.9006  1061.0817 </r>
       <r>     9.4439     9.1252  1062.3039 </r>
       <r>     9.5778    10.6887  1063.7354 </r>
       <r>     9.7118    14.5686  1065.6867 </r>
       <r>     9.8457    17.2021  1067.9906 </r>
       <r>     9.9796    21.2186  1070.8325 </r>
       <r>    10.1136    18.5038  1073.3108 </r>
       <r>    10.2475    22.8603  1076.3726 </r>
       <r>    10.3814    26.6312  1079.9394 </r>
       <r>    10.5154    21.6991  1082.8456 </r>
       <r>    10.6493    28.9772  1086.7266 </r>
       <r>    10.7832    26.6086  1090.2904 </r>
       <r>    10.9172    33.0342  1094.7148 </r>
       <r>    11.0511    33.8320  1099.2461 </r>
       <r>    11.1850    30.2021  1103.2911 </r>
       <r>    11.3190    30.6595  1107.3975 </r>
       <r>    11.4529    31.5577  1111.6241 </r>
       <r>    11.5868    33.2489  1116.0773 </r>
       <r>    11.7208    35.4640  1120.8271 </r>
       <r>    11.8547    44.4389  1126.7790 </r>
       <r>    11.9886    24.5857  1130.0718 </r>
       <r>    12.1226    33.9028  1134.6125 </r>
       <r>    12.2565    31.3633  1138.8132 </r>
       <r>    12.3904    31.2228  1142.9949 </r>
       <r>    12.5244    38.4354  1148.1427 </r>
       <r>    12.6583    41.6199  1153.7170 </r>
       <r>    12.7922    30.7603  1157.8369 </r>
       <r>    12.9262    26.9375  1161.4447 </r>
       <r>    13.0601    33.5867  1165.9431 </r>
       <r>    13.1940    33.0686  1170.3721 </r>
       <r>    13.3280    33.8483  1174.9055 </r>
       <r>    13.4619    38.7491  1180.0954 </r>
       <r>    13.5958    33.3264  1184.5589 </r>
       <r>    13.7298    22.4049  1187.5596 </r>
       <r>    13.8637    34.5234  1192.1835 </r>
       <r>    13.9976    28.3065  1195.9747 </r>
       <r>    14.1316    31.5632  1200.2021 </r>
       <r>    14.2655    24.8831  1203.5347 </r>
       <r>    14.3994    40.5616  1208.9673 </r>
       <r>    14.5334    31.7147  1213.2150 </r>
       <r>    14.6673    29.8492  1217.2128 </r>
       <r>    14.8012    33.9019  1221.7534 </r>
       <r>    14.9352    33.1416  1226.1922 </r>
       <r>    15.0691    35.7983  1230.9868 </r>
       <r>    15.2030    27.4103  1234.6579 </r>
       <r>    15.3370    31.7010  1238.9038 </r>
       <r>    15.4709    36.3890  1243.7775 </r>
       <r>    15.6048    28.4274  1247.5849 </r>
       <r>    15.7388    24.9975  1250.9329 </r>
       <r>    15.8727    24.8069  1254.2553 </r>
       <r>    16.0066    21.0991  1257.0812 </r>
       <r>    16.1406    19.2123  1259.6544 </r>
       <r>    16.2745    12.5383  1261.3337 </r>
       <r>    16.4084    10.8195  1262.7828 </r>
       <r>    16.5424     8.0025  1263.8546 </r>
       <r>    16.6763     8.2164  1264.9550 </r>
       <r>    16.8102     3.7183  1265.4531 </r>
       <r>    16.9442     0.3505  1265.5000 </r>
       <r>    17.0781     0.0000  1265.5000 </r>
       <r>    17.2120     0.0000  1265.5000 </r>
       <r>    17.3460     0.3739  1265.5501 </r>
       <r>    17.4799     1.6468  1265.7706 </r>
       <r>    17.6138     1.6976  1265.9980 </r>
       <r>    17.7478     0.0149  1266.0000 </r>
       <r>    17.8817     0.0000  1266.0000 </r>
       <r>    18.0156     0.0000  1266.0000 </r>
       <r>    18.1496     0.0000  1266.0000 </r>
       <r>    18.2835     0.0000  1266.0000 </r>
       <r>    18.4174     0.0000  1266.0000 </r>
       <r>    18.5514     0.0000  1266.0000 </r>
       <r>    18.6853     0.0000  1266.0000 </r>
       <r>    18.8193     0.0000  1266.0000 </r>
       <r>    18.9532     0.0000  1266.0000 </r>
       <r>    19.0871     0.0000  1266.0000 </r>
       <r>    19.2211     0.0000  1266.0000 </r>
       <r>    19.3550     0.0000  1266.0000 </r>
      </set>
     </set>
    </array>
   </total>
  </dos>
 </calculation>
 <structure name="finalpos" >
  <crystal>
   <varray name="basis" >
    <v>       0.00000000      12.28047342       0.00000000 </v>
    <v>       9.14270205       0.00000000       0.00000000 </v>
    <v>       0.00000000      -2.76826177     -11.30069772 </v>
   </varray>
   <i name="volume">   1268.80515525 </i>
   <varray name="rec_basis" >
    <v>       0.00000000       0.08143009      -0.01994742 </v>
    <v>       0.10937686      -0.00000000       0.00000000 </v>
    <v>       0.00000000       0.00000000      -0.08849011 </v>
   </varray>
  </crystal>
  <varray name="positions" >
   <v>       0.67164779       0.00000000       0.16957799 </v>
   <v>       0.65600614       0.00000000       0.64922566 </v>
   <v>       0.67254023       0.33007681       0.16406095 </v>
   <v>       0.64928279       0.32974776       0.65382934 </v>
   <v>       0.67254023       0.66992319       0.16406095 </v>
   <v>       0.64928279       0.67025224       0.65382934 </v>
   <v>       0.85863287       0.16145963       0.35962145 </v>
   <v>       0.83738011       0.16989825       0.84239544 </v>
   <v>       0.85053135       0.50000000       0.33745201 </v>
   <v>       0.81502930       0.50000000       0.84443139 </v>
   <v>       0.85863287       0.83854037       0.35962145 </v>
   <v>       0.83738011       0.83010175       0.84239544 </v>
   <v>       0.58793655       0.13037293       0.39378713 </v>
   <v>       0.59792685       0.16732778       0.90358912 </v>
   <v>       0.58845849       0.50000000       0.39178272 </v>
   <v>       0.59304883       0.50000000       0.90701587 </v>
   <v>       0.58793655       0.86962707       0.39378713 </v>
   <v>       0.59792685       0.83267222       0.90358912 </v>
   <v>       0.91777431       0.00000000       0.10797013 </v>
   <v>       0.93876483       0.00000000       0.63397309 </v>
   <v>       0.91088650       0.34783901       0.08490498 </v>
   <v>       0.89727104       0.37195879       0.59805058 </v>
   <v>       0.91088650       0.65216099       0.08490498 </v>
   <v>       0.89727104       0.62804121       0.59805058 </v>
   <v>       0.15677809       0.16149063       0.13249525 </v>
   <v>       0.15025955       0.17412001       0.65286832 </v>
   <v>       0.15712081       0.50000000       0.16015346 </v>
   <v>       0.17473191       0.50000000       0.65510557 </v>
   <v>       0.15677809       0.83850937       0.13249525 </v>
   <v>       0.15025955       0.82587999       0.65286832 </v>
   <v>       0.29669592       0.00000000       0.36377304 </v>
   <v>       0.34537415       0.00000000       0.84822686 </v>
   <v>       0.34627011       0.33248519       0.33162448 </v>
   <v>       0.34497166       0.32694127       0.84882740 </v>
   <v>       0.34627011       0.66751481       0.33162448 </v>
   <v>       0.34497166       0.67305873       0.84882740 </v>
   <v>       0.05929015       0.00000000       0.85191823 </v>
   <v>       0.09594424       0.32672287       0.39741111 </v>
   <v>       0.08642340       0.37216362       0.88713374 </v>
   <v>       0.09594424       0.67327713       0.39741111 </v>
   <v>       0.08642340       0.62783638       0.88713374 </v>
   <v>       0.42019886       0.16669034       0.11157917 </v>
   <v>       0.39278785       0.15769135       0.59864192 </v>
   <v>       0.41902614       0.50000000       0.10220895 </v>
   <v>       0.40817696       0.50000000       0.59742780 </v>
   <v>       0.42019886       0.83330966       0.11157917 </v>
   <v>       0.39278785       0.84230865       0.59864192 </v>
   <v>       0.99376799       0.17500373       0.11462622 </v>
   <v>       0.98841090       0.20218570       0.61472525 </v>
   <v>       0.00357327       0.50000000       0.17050959 </v>
   <v>       0.03183773       0.50000000       0.66946782 </v>
   <v>       0.99376799       0.82499627       0.11462622 </v>
   <v>       0.98841090       0.79781430       0.61472525 </v>
   <v>       0.44660706       0.00000000       0.35493914 </v>
   <v>       0.51080261       0.00000000       0.88569265 </v>
   <v>       0.51121081       0.32112372       0.36627117 </v>
   <v>       0.50871574       0.33312806       0.88450209 </v>
   <v>       0.51121081       0.67887628       0.36627117 </v>
   <v>       0.50871574       0.66687194       0.88450209 </v>
   <v>       0.68448373       0.16915121       0.28062279 </v>
   <v>       0.66283065       0.16037669       0.77613175 </v>
   <v>       0.67497470       0.50000000       0.27992833 </v>
   <v>       0.65378989       0.50000000       0.77437586 </v>
   <v>       0.68448373       0.83084879       0.28062279 </v>
   <v>       0.66283065       0.83962331       0.77613175 </v>
   <v>       0.83751564       0.00000000       0.22544995 </v>
   <v>       0.81763946       0.00000000       0.71923164 </v>
   <v>       0.83422915       0.34161184       0.21082485 </v>
   <v>       0.81543282       0.33507551       0.72705239 </v>
   <v>       0.83422915       0.65838816       0.21082485 </v>
   <v>       0.81543282       0.66492449       0.72705239 </v>
   <v>       0.85077146       0.00000000       0.46530102 </v>
   <v>       0.83720679       0.00000000       0.94727702 </v>
   <v>       0.82651298       0.33355517       0.43429400 </v>
   <v>       0.79297741       0.31560410       0.94607290 </v>
   <v>       0.82651298       0.66644483       0.43429400 </v>
   <v>       0.79297741       0.68439590       0.94607290 </v>
   <v>       0.67029034       0.15979861       0.05998646 </v>
   <v>       0.66473411       0.17284207       0.55472476 </v>
   <v>       0.67078853       0.50000000       0.06007765 </v>
   <v>       0.64965799       0.50000000       0.55275788 </v>
   <v>       0.67029034       0.84020139       0.05998646 </v>
   <v>       0.66473411       0.82715793       0.55472476 </v>
   <v>       0.50683719       0.00000000       0.13816156 </v>
   <v>       0.49371724       0.00000000       0.61684685 </v>
   <v>       0.50777494       0.33351169       0.12795833 </v>
   <v>       0.48808267       0.32664718       0.62561414 </v>
   <v>       0.50777494       0.66648831       0.12795833 </v>
   <v>       0.48808267       0.67335282       0.62561414 </v>
   <v>       0.00802150       0.17069568       0.36363509 </v>
   <v>       0.99658178       0.20287534       0.87328156 </v>
   <v>       0.01211967       0.50000000       0.40110607 </v>
   <v>       0.94641321       0.50000000       0.96014050 </v>
   <v>       0.00802150       0.82930432       0.36363509 </v>
   <v>       0.99658178       0.79712466       0.87328156 </v>
   <v>       0.16567538       0.00000000       0.24382147 </v>
   <v>       0.18689805       0.00000000       0.78476149 </v>
   <v>       0.17781395       0.33949367       0.28109230 </v>
   <v>       0.18493917       0.31332050       0.78427541 </v>
   <v>       0.17781395       0.66050633       0.28109230 </v>
   <v>       0.18493917       0.68667950       0.78427541 </v>
   <v>       0.31976740       0.18789864       0.20160964 </v>
   <v>       0.35236536       0.16938319       0.74044056 </v>
   <v>       0.33374663       0.50000000       0.21412064 </v>
   <v>       0.33670920       0.50000000       0.72540730 </v>
   <v>       0.31976740       0.81210136       0.20160964 </v>
   <v>       0.35236536       0.83061681       0.74044056 </v>
   <v>       0.32696354       0.19099188       0.44133895 </v>
   <v>       0.34318199       0.16395846       0.95679532 </v>
   <v>       0.34936596       0.50000000       0.43747964 </v>
   <v>       0.33807002       0.50000000       0.94692139 </v>
   <v>       0.32696354       0.80900812       0.44133895 </v>
   <v>       0.34318199       0.83604154       0.95679532 </v>
   <v>       0.14499044       0.00000000       0.01826142 </v>
   <v>       0.16114638       0.34044648       0.04983928 </v>
   <v>       0.18538066       0.34079566       0.55308230 </v>
   <v>       0.16114638       0.65955352       0.04983928 </v>
   <v>       0.18538066       0.65920434       0.55308230 </v>
   <v>       0.19592706       0.00000000       0.53109164 </v>
  </varray>
 </structure>
</modeling>
