<?xml version="1.0" encoding="ISO-8859-1"?>
<modeling>
 <generator>
  <i name="program" type="string">vasp </i>
  <i name="version" type="string">6.4.2  </i>
  <i name="subversion" type="string">20Jul23 (build Nov 12 2023 22:16:35) complex                          parallel </i>
  <i name="platform" type="string">LinuxNV </i>
  <i name="date" type="string">2025 03 29 </i>
  <i name="time" type="string">16:32:36 </i>
 </generator>
 <incar>
  <i type="int" name="ISTART">     0</i>
  <i type="string" name="PREC">Normal</i>
  <i type="string" name="ALGO">All</i>
  <i type="int" name="ISPIN">     1</i>
  <i type="int" name="ICHARG">     0</i>
  <i type="int" name="NELM">   500</i>
  <i type="int" name="IBRION">    -1</i>
  <i name="EDIFF">      0.00001000</i>
  <i name="EDIFFG">     -0.00500000</i>
  <i type="int" name="NSW">     0</i>
  <i type="int" name="ISIF">     2</i>
  <i name="ENCUT">    450.00000000</i>
  <i name="NELECT">   1043.00000000</i>
  <i type="string" name="LREAL">Auto</i>
  <i type="logical" name="LPLANE"> T  </i>
  <i name="TIME">      0.40000000</i>
  <i type="int" name="ISMEAR">     0</i>
  <i name="SIGMA">      0.05000000</i>
  <i type="logical" name="LWAVE"> T  </i>
  <i type="logical" name="LCHARG"> T  </i>
  <i name="HFSCREEN">      0.20000000</i>
  <i type="logical" name="LHFCALC"> T  </i>
  <i type="int" name="LMAXFOCK">     4</i>
  <i name="AEXX">      0.32000000</i>
  <i type="string" name="PRECFOCK">Fast</i>
 </incar>
 <primitive_cell>
  <structure name="primitive_cell" >
   <crystal>
    <varray name="basis" >
     <v>       0.00000000      12.28047342       0.00000000 </v>
     <v>       9.14270205       0.00000000       0.00000000 </v>
     <v>       0.00000000      -2.76826177     -11.30069772 </v>
    </varray>
    <i name="volume">   1268.80515525 </i>
    <varray name="rec_basis" >
     <v>       0.00000000       0.08143009      -0.01994742 </v>
     <v>       0.10937686      -0.00000000       0.00000000 </v>
     <v>       0.00000000       0.00000000      -0.08849011 </v>
    </varray>
   </crystal>
   <varray name="positions" >
    <v>       0.65763608       0.00000000       0.15600516 </v>
    <v>       0.66021686       0.00000000       0.65726015 </v>
    <v>       0.65933239       0.33334081       0.15816452 </v>
    <v>       0.66031463       0.33379810       0.65692019 </v>
    <v>       0.65933239       0.66665919       0.15816452 </v>
    <v>       0.66031463       0.66620190       0.65692019 </v>
    <v>       0.83940566       0.16361902       0.34246673 </v>
    <v>       0.84018474       0.16674759       0.84449979 </v>
    <v>       0.84419980       0.50000000       0.34362777 </v>
    <v>       0.84089069       0.50000000       0.84364127 </v>
    <v>       0.83940566       0.83638098       0.34246673 </v>
    <v>       0.84018474       0.83325241       0.84449979 </v>
    <v>       0.59137682       0.16712874       0.39899909 </v>
    <v>       0.59198566       0.16724688       0.89860966 </v>
    <v>       0.59043718       0.50000000       0.39794452 </v>
    <v>       0.59256914       0.50000000       0.89893195 </v>
    <v>       0.59137682       0.83287126       0.39899909 </v>
    <v>       0.59198566       0.83275312       0.89860966 </v>
    <v>       0.90952164       0.00000000       0.10328539 </v>
    <v>       0.90724405       0.00000000       0.60344700 </v>
    <v>       0.90813525       0.33403471       0.10130837 </v>
    <v>       0.91077204       0.33300003       0.60474499 </v>
    <v>       0.90813525       0.66596529       0.10130837 </v>
    <v>       0.91077204       0.66699997       0.60474499 </v>
    <v>       0.15748914       0.17079275       0.15547415 </v>
    <v>       0.15958409       0.16143484       0.66088603 </v>
    <v>       0.15883241       0.50000000       0.15635316 </v>
    <v>       0.15995469       0.50000000       0.65711922 </v>
    <v>       0.15748914       0.82920725       0.15547415 </v>
    <v>       0.15958409       0.83856516       0.66088603 </v>
    <v>       0.34291439       0.00000000       0.34667124 </v>
    <v>       0.34303987       0.00000000       0.84779591 </v>
    <v>       0.34003355       0.33324114       0.34545886 </v>
    <v>       0.34139137       0.33331384       0.84525184 </v>
    <v>       0.34003355       0.66675886       0.34545886 </v>
    <v>       0.34139137       0.66668616       0.84525184 </v>
    <v>       0.08939873       0.00000000       0.90274408 </v>
    <v>       0.09272651       0.32925330       0.39922813 </v>
    <v>       0.09144875       0.33356020       0.89720608 </v>
    <v>       0.09272651       0.67074670       0.39922813 </v>
    <v>       0.09144875       0.66643980       0.89720608 </v>
    <v>       0.40829930       0.16701880       0.10547581 </v>
    <v>       0.41102433       0.16695563       0.60454155 </v>
    <v>       0.40808103       0.50000000       0.10361028 </v>
    <v>       0.40912260       0.50000000       0.60341126 </v>
    <v>       0.40829930       0.83298120       0.10547581 </v>
    <v>       0.41102433       0.83304437       0.60454155 </v>
    <v>       0.99623522       0.16771930       0.12882375 </v>
    <v>       0.99671147       0.16452361       0.62723186 </v>
    <v>       0.99668361       0.50000000       0.12667719 </v>
    <v>       0.99802020       0.50000000       0.62888524 </v>
    <v>       0.99623522       0.83228070       0.12882375 </v>
    <v>       0.99671147       0.83547639       0.62723186 </v>
    <v>       0.50407605       0.00000000       0.37434639 </v>
    <v>       0.50480769       0.00000000       0.87486403 </v>
    <v>       0.50225517       0.33311111       0.37378765 </v>
    <v>       0.50387996       0.33381606       0.87364021 </v>
    <v>       0.50225517       0.66688889       0.37378765 </v>
    <v>       0.50387996       0.66618394       0.87364021 </v>
    <v>       0.67268329       0.16728453       0.28158098 </v>
    <v>       0.67260620       0.16702577       0.78065568 </v>
    <v>       0.67576080       0.50000000       0.28355402 </v>
    <v>       0.67279859       0.50000000       0.78026879 </v>
    <v>       0.67268329       0.83271547       0.28158098 </v>
    <v>       0.67260620       0.83297423       0.78065568 </v>
    <v>       0.82766684       0.00000000       0.22072606 </v>
    <v>       0.82741439       0.00000000       0.72124924 </v>
    <v>       0.83054577       0.33077062       0.22186275 </v>
    <v>       0.82827536       0.33337308       0.72038515 </v>
    <v>       0.83054577       0.66922938       0.22186275 </v>
    <v>       0.82827536       0.66662692       0.72038515 </v>
    <v>       0.83209668       0.00000000       0.44602855 </v>
    <v>       0.83189406       0.00000000       0.94723362 </v>
    <v>       0.84307303       0.33008882       0.44537138 </v>
    <v>       0.83007242       0.33377961       0.94585196 </v>
    <v>       0.84307303       0.66991118       0.44537138 </v>
    <v>       0.83007242       0.66622039       0.94585196 </v>
    <v>       0.66859397       0.16709162       0.05560314 </v>
    <v>       0.67046589       0.16717571       0.55464210 </v>
    <v>       0.66940757       0.50000000       0.05639712 </v>
    <v>       0.67107792       0.50000000       0.55349376 </v>
    <v>       0.66859397       0.83290838       0.05560314 </v>
    <v>       0.67046589       0.83282429       0.55464210 </v>
    <v>       0.49588408       0.00000000       0.13001602 </v>
    <v>       0.49827560       0.00000000       0.62693263 </v>
    <v>       0.49643380       0.33357696       0.13030881 </v>
    <v>       0.49760454       0.33404732       0.62683846 </v>
    <v>       0.49643380       0.66642304       0.13030881 </v>
    <v>       0.49760454       0.66595268       0.62683846 </v>
    <v>       0.01663158       0.14097986       0.37328524 </v>
    <v>       0.00290442       0.16732666       0.87489465 </v>
    <v>       0.00721609       0.50000000       0.37254786 </v>
    <v>       0.00351865       0.50000000       0.87352342 </v>
    <v>       0.01663158       0.85902014       0.37328524 </v>
    <v>       0.00290442       0.83267334       0.87489465 </v>
    <v>       0.16107915       0.00000000       0.28825159 </v>
    <v>       0.17473580       0.00000000       0.78975581 </v>
    <v>       0.17131072       0.33169215       0.28051219 </v>
    <v>       0.17325143       0.33189153       0.78060817 </v>
    <v>       0.17131072       0.66830785       0.28051219 </v>
    <v>       0.17325143       0.66810847       0.78060817 </v>
    <v>       0.32424172       0.16314817       0.22220160 </v>
    <v>       0.32865981       0.16369943       0.72063813 </v>
    <v>       0.32616042       0.50000000       0.22112838 </v>
    <v>       0.32697095       0.50000000       0.71983063 </v>
    <v>       0.32424172       0.83685183       0.22220160 </v>
    <v>       0.32865981       0.83630057       0.72063813 </v>
    <v>       0.33096609       0.16538375       0.44828482 </v>
    <v>       0.33296359       0.16750080       0.94846836 </v>
    <v>       0.32945969       0.50000000       0.44722426 </v>
    <v>       0.33174887       0.50000000       0.94677078 </v>
    <v>       0.33096609       0.83461625       0.44828482 </v>
    <v>       0.33296359       0.83249920       0.94846836 </v>
    <v>       0.16622802       0.00000000       0.06007683 </v>
    <v>       0.16916616       0.33412378       0.05390004 </v>
    <v>       0.16663412       0.32936904       0.55534147 </v>
    <v>       0.16916616       0.66587622       0.05390004 </v>
    <v>       0.16663412       0.67063096       0.55534147 </v>
    <v>       0.10314475       0.00000000       0.40306771 </v>
   </varray>
  </structure>
  <varray name="primitive_index" >
   <v type="int" >        1 </v>
   <v type="int" >        2 </v>
   <v type="int" >        3 </v>
   <v type="int" >        4 </v>
   <v type="int" >        5 </v>
   <v type="int" >        6 </v>
   <v type="int" >        7 </v>
   <v type="int" >        8 </v>
   <v type="int" >        9 </v>
   <v type="int" >       10 </v>
   <v type="int" >       11 </v>
   <v type="int" >       12 </v>
   <v type="int" >       13 </v>
   <v type="int" >       14 </v>
   <v type="int" >       15 </v>
   <v type="int" >       16 </v>
   <v type="int" >       17 </v>
   <v type="int" >       18 </v>
   <v type="int" >       19 </v>
   <v type="int" >       20 </v>
   <v type="int" >       21 </v>
   <v type="int" >       22 </v>
   <v type="int" >       23 </v>
   <v type="int" >       24 </v>
   <v type="int" >       25 </v>
   <v type="int" >       26 </v>
   <v type="int" >       27 </v>
   <v type="int" >       28 </v>
   <v type="int" >       29 </v>
   <v type="int" >       30 </v>
   <v type="int" >       31 </v>
   <v type="int" >       32 </v>
   <v type="int" >       33 </v>
   <v type="int" >       34 </v>
   <v type="int" >       35 </v>
   <v type="int" >       36 </v>
   <v type="int" >       37 </v>
   <v type="int" >       38 </v>
   <v type="int" >       39 </v>
   <v type="int" >       40 </v>
   <v type="int" >       41 </v>
   <v type="int" >       42 </v>
   <v type="int" >       43 </v>
   <v type="int" >       44 </v>
   <v type="int" >       45 </v>
   <v type="int" >       46 </v>
   <v type="int" >       47 </v>
   <v type="int" >       48 </v>
   <v type="int" >       49 </v>
   <v type="int" >       50 </v>
   <v type="int" >       51 </v>
   <v type="int" >       52 </v>
   <v type="int" >       53 </v>
   <v type="int" >       54 </v>
   <v type="int" >       55 </v>
   <v type="int" >       56 </v>
   <v type="int" >       57 </v>
   <v type="int" >       58 </v>
   <v type="int" >       59 </v>
   <v type="int" >       60 </v>
   <v type="int" >       61 </v>
   <v type="int" >       62 </v>
   <v type="int" >       63 </v>
   <v type="int" >       64 </v>
   <v type="int" >       65 </v>
   <v type="int" >       66 </v>
   <v type="int" >       67 </v>
   <v type="int" >       68 </v>
   <v type="int" >       69 </v>
   <v type="int" >       70 </v>
   <v type="int" >       71 </v>
   <v type="int" >       72 </v>
   <v type="int" >       73 </v>
   <v type="int" >       74 </v>
   <v type="int" >       75 </v>
   <v type="int" >       76 </v>
   <v type="int" >       77 </v>
   <v type="int" >       78 </v>
   <v type="int" >       79 </v>
   <v type="int" >       80 </v>
   <v type="int" >       81 </v>
   <v type="int" >       82 </v>
   <v type="int" >       83 </v>
   <v type="int" >       84 </v>
   <v type="int" >       85 </v>
   <v type="int" >       86 </v>
   <v type="int" >       87 </v>
   <v type="int" >       88 </v>
   <v type="int" >       89 </v>
   <v type="int" >       90 </v>
   <v type="int" >       91 </v>
   <v type="int" >       92 </v>
   <v type="int" >       93 </v>
   <v type="int" >       94 </v>
   <v type="int" >       95 </v>
   <v type="int" >       96 </v>
   <v type="int" >       97 </v>
   <v type="int" >       98 </v>
   <v type="int" >       99 </v>
   <v type="int" >      100 </v>
   <v type="int" >      101 </v>
   <v type="int" >      102 </v>
   <v type="int" >      103 </v>
   <v type="int" >      104 </v>
   <v type="int" >      105 </v>
   <v type="int" >      106 </v>
   <v type="int" >      107 </v>
   <v type="int" >      108 </v>
   <v type="int" >      109 </v>
   <v type="int" >      110 </v>
   <v type="int" >      111 </v>
   <v type="int" >      112 </v>
   <v type="int" >      113 </v>
   <v type="int" >      114 </v>
   <v type="int" >      115 </v>
   <v type="int" >      116 </v>
   <v type="int" >      117 </v>
   <v type="int" >      118 </v>
   <v type="int" >      119 </v>
  </varray>
 </primitive_cell>
 <kpoints>
  <generation param="Gamma">
   <v type="int" name="divisions">       1        1        1 </v>
   <v name="usershift">      0.00000000       0.00000000       0.00000000 </v>
   <v name="genvec1">      1.00000000       0.00000000       0.00000000 </v>
   <v name="genvec2">      0.00000000       1.00000000       0.00000000 </v>
   <v name="genvec3">      0.00000000       0.00000000       1.00000000 </v>
   <v name="shift">      0.00000000       0.00000000       0.00000000 </v>
  </generation>
  <varray name="kpointlist" >
   <v>       0.00000000       0.00000000       0.00000000 </v>
  </varray>
  <varray name="weights" >
   <v>       1.00000000 </v>
  </varray>
 </kpoints>
 <parameters>
  <separator name="general" >
   <i type="string" name="SYSTEM">unknown system</i>
   <i type="logical" name="LCOMPAT"> F  </i>
  </separator>
  <separator name="electronic" >
   <i type="string" name="PREC">normal</i>
   <i name="ENMAX">    450.00000000</i>
   <i name="ENAUG">    605.39200000</i>
   <i name="EDIFF">      0.00001000</i>
   <i type="int" name="IALGO">    58</i>
   <i type="int" name="IWAVPR">    10</i>
   <i type="int" name="NBANDS">   625</i>
   <i type="int" name="NBANDSLOW">    -1</i>
   <i type="int" name="NBANDSHIGH">    -1</i>
   <i name="NELECT">   1043.00000000</i>
   <i type="int" name="TURBO">     0</i>
   <i type="int" name="IRESTART">     0</i>
   <i type="int" name="NREBOOT">     0</i>
   <i type="int" name="NMIN">     0</i>
   <i name="EREF">      0.00000000</i>
   <separator name="electronic smearing" >
    <i type="int" name="ISMEAR">     0</i>
    <i name="SIGMA">      0.05000000</i>
    <i name="KSPACING">      0.50000000</i>
    <i type="logical" name="KGAMMA"> T  </i>
    <i type="logical" name="KBLOWUP"> T  </i>
   </separator>
   <separator name="electronic projectors" >
    <i type="logical" name="LREAL"> T  </i>
    <v name="ROPT">     -0.00050000     -0.00050000     -0.00050000</v>
    <i type="int" name="LMAXPAW">  -100</i>
    <i type="int" name="LMAXMIX">     2</i>
    <i type="logical" name="NLSPLINE"> F  </i>
   </separator>
   <separator name="electronic startup" >
    <i type="int" name="ISTART">     0</i>
    <i type="int" name="ICHARG">     0</i>
    <i type="int" name="INIWAV">     1</i>
   </separator>
   <separator name="electronic spin" >
    <i type="int" name="ISPIN">     1</i>
    <i type="logical" name="LNONCOLLINEAR"> F  </i>
    <v name="MAGMOM">      1.00000000      1.00000000      1.00000000      1.00000000      1.00000000      1.00000000      1.00000000      1.00000000      1.00000000      1.00000000      1.00000000      1.00000000      1.00000000      1.00000000      1.00000000      1.00000000      1.00000000      1.00000000      1.00000000      1.00000000
      1.00000000      1.00000000      1.00000000      1.00000000      1.00000000      1.00000000      1.00000000      1.00000000      1.00000000      1.00000000      1.00000000      1.00000000      1.00000000      1.00000000      1.00000000      1.00000000      1.00000000      1.00000000      1.00000000      1.00000000
      1.00000000      1.00000000      1.00000000      1.00000000      1.00000000      1.00000000      1.00000000      1.00000000      1.00000000      1.00000000      1.00000000      1.00000000      1.00000000      1.00000000      1.00000000      1.00000000      1.00000000      1.00000000      1.00000000      1.00000000
      1.00000000      1.00000000      1.00000000      1.00000000      1.00000000      1.00000000      1.00000000      1.00000000      1.00000000      1.00000000      1.00000000      1.00000000      1.00000000      1.00000000      1.00000000      1.00000000      1.00000000      1.00000000      1.00000000      1.00000000
      1.00000000      1.00000000      1.00000000      1.00000000      1.00000000      1.00000000      1.00000000      1.00000000      1.00000000      1.00000000      1.00000000      1.00000000      1.00000000      1.00000000      1.00000000      1.00000000      1.00000000      1.00000000      1.00000000      1.00000000
      1.00000000      1.00000000      1.00000000      1.00000000      1.00000000      1.00000000      1.00000000      1.00000000      1.00000000      1.00000000      1.00000000      1.00000000      1.00000000      1.00000000      1.00000000      1.00000000      1.00000000      1.00000000      1.00000000</v>
    <i name="NUPDOWN">     -1.00000000</i>
    <i type="logical" name="LSORBIT"> F  </i>
    <v name="SAXIS">      0.00000000      0.00000000      1.00000000</v>
    <i type="logical" name="LSPIRAL"> F  </i>
    <v name="QSPIRAL">      0.00000000      0.00000000      0.00000000</v>
    <i type="logical" name="LZEROZ"> F  </i>
   </separator>
   <separator name="electronic exchange-correlation" >
    <i type="logical" name="LASPH"> F  </i>
    <i type="logical" name="LMETAGGA"> F  </i>
   </separator>
   <separator name="electronic convergence" >
    <i type="int" name="NELM">   500</i>
    <i type="int" name="NELMDL">    -5</i>
    <i type="int" name="NELMIN">     2</i>
    <i name="ENINI">    450.00000000</i>
    <separator name="electronic convergence detail" >
     <i type="logical" name="LDIAG"> T  </i>
     <i type="logical" name="LSUBROT"> F  </i>
     <i name="WEIMIN">      0.00000000</i>
     <i name="EBREAK">      0.00000000</i>
     <i name="DEPER">      0.30000000</i>
     <i type="int" name="NRMM">     4</i>
     <i name="TIME">      0.40000000</i>
    </separator>
   </separator>
   <separator name="electronic mixer" >
    <i name="AMIX">      0.40000000</i>
    <i name="BMIX">      1.00000000</i>
    <i name="AMIN">      0.10000000</i>
    <i name="AMIX_MAG">      1.60000000</i>
    <i name="BMIX_MAG">      1.00000000</i>
    <separator name="electronic mixer details" >
     <i type="int" name="IMIX">     4</i>
     <i type="logical" name="MIXFIRST"> F  </i>
     <i type="int" name="MAXMIX">   -45</i>
     <i name="WC">    100.00000000</i>
     <i type="int" name="INIMIX">     1</i>
     <i type="int" name="MIXPRE">     1</i>
     <i type="int" name="MREMOVE">     5</i>
    </separator>
   </separator>
   <separator name="electronic dipolcorrection" >
    <i type="logical" name="LDIPOL"> F  </i>
    <i type="logical" name="LMONO"> F  </i>
    <i type="int" name="IDIPOL">     0</i>
    <i name="EPSILON">      1.00000000</i>
    <v name="DIPOL">   -100.00000000   -100.00000000   -100.00000000</v>
    <i name="EFIELD">      0.00000000</i>
   </separator>
  </separator>
  <separator name="grids" >
   <i type="int" name="NGX">    64</i>
   <i type="int" name="NGY">    48</i>
   <i type="int" name="NGZ">    60</i>
   <i type="int" name="NGXF">   128</i>
   <i type="int" name="NGYF">    96</i>
   <i type="int" name="NGZF">   120</i>
   <i type="logical" name="ADDGRID"> F  </i>
  </separator>
  <separator name="ionic" >
   <i type="int" name="NSW">     0</i>
   <i type="int" name="IBRION">    -1</i>
   <i type="int" name="MDALGO">     0</i>
   <i type="int" name="ISIF">     2</i>
   <i name="PSTRESS">      0.00000000</i>
   <i name="EDIFFG">     -0.00500000</i>
   <i type="int" name="NFREE">     0</i>
   <i name="POTIM">      0.50000000</i>
   <i name="SMASS">     -3.00000000</i>
   <i name="SCALEE">      1.00000000</i>
  </separator>
  <separator name="ionic md" >
   <i name="TEBEG">      0.00010000</i>
   <i name="TEEND">      0.00010000</i>
   <i type="int" name="NBLOCK">     1</i>
   <i type="int" name="KBLOCK">     1</i>
   <i type="int" name="NPACO">   256</i>
   <i name="APACO">     10.00000000</i>
  </separator>
  <separator name="symmetry" >
   <i type="int" name="ISYM">     3</i>
   <i name="SYMPREC">      0.00001000</i>
  </separator>
  <separator name="dos" >
   <i type="int" name="LORBIT">     0</i>
   <v name="RWIGS">     -1.00000000     -1.00000000     -1.00000000</v>
   <i type="int" name="NEDOS">   301</i>
   <i name="EMIN">     10.00000000</i>
   <i name="EMAX">    -10.00000000</i>
   <i name="EFERMI">      0.00000000</i>
  </separator>
  <separator name="writing" >
   <i type="int" name="NWRITE">     2</i>
   <i type="logical" name="LWAVE"> T  </i>
   <i type="logical" name="LDOWNSAMPLE"> F  </i>
   <i type="logical" name="LCHARG"> T  </i>
   <i type="logical" name="LPARD"> F  </i>
   <i type="logical" name="LVTOT"> F  </i>
   <i type="logical" name="LVHAR"> F  </i>
   <i type="logical" name="LELF"> F  </i>
   <i type="logical" name="LOPTICS"> F  </i>
   <v name="STM">      0.00000000      0.00000000      0.00000000      0.00000000      0.00000000      0.00000000      0.00000000</v>
  </separator>
  <separator name="performance" >
   <i type="int" name="NPAR">     1</i>
   <i type="int" name="NSIM">     4</i>
   <i type="int" name="NBLK">    -1</i>
   <i type="logical" name="LPLANE"> T  </i>
   <i type="logical" name="LSCALAPACK"> T  </i>
   <i type="logical" name="LSCAAWARE"> F  </i>
   <i type="logical" name="LSCALU"> F  </i>
   <i type="logical" name="LASYNC"> F  </i>
   <i type="logical" name="LORBITALREAL"> F  </i>
  </separator>
  <separator name="miscellaneous" >
   <i type="int" name="IDIOT">     3</i>
   <i type="int" name="PHON_NSTRUCT">    -1</i>
   <i type="logical" name="LMUSIC"> F  </i>
   <v name="POMASS">     69.72300000     16.00000000     30.97400000</v>
   <v name="DARWINR">      0.00000000      0.00000000      0.00000000</v>
   <v name="DARWINV">      1.00000000      1.00000000      1.00000000</v>
   <i type="logical" name="LCORR"> T  </i>
  </separator>
  <i type="logical" name="GGA_COMPAT"> T  </i>
  <i type="logical" name="LBERRY"> F  </i>
  <i type="int" name="ICORELEVEL">     0</i>
  <i type="logical" name="LDAU"> F  </i>
  <i type="int" name="I_CONSTRAINED_M">     0</i>
  <separator name="electronic exchange-correlation" >
   <i type="string" name="GGA">--</i>
   <i type="int" name="VOSKOWN">     0</i>
   <i type="logical" name="LHFCALC"> T  </i>
   <i type="string" name="PRECFOCK">fast</i>
   <i type="logical" name="LSYMGRAD"> F  </i>
   <i type="logical" name="LHFONE"> F  </i>
   <i type="logical" name="LRHFCALC"> F  </i>
   <i type="logical" name="LTHOMAS"> F  </i>
   <i type="logical" name="LMODELHF"> F  </i>
   <i type="logical" name="LFOCKACE"> T  </i>
   <i name="ENCUT4O">     -1.00000000</i>
   <i type="int" name="EXXOEP">     0</i>
   <i type="int" name="FOURORBIT">     0</i>
   <i name="AEXX">      0.32000000</i>
   <i name="HFALPHA">     -1.00000000</i>
   <i name="MCALPHA">      0.00000000</i>
   <i name="ALDAX">      0.68000000</i>
   <i name="AGGAX">      0.68000000</i>
   <i name="ALDAC">      1.00000000</i>
   <i name="AGGAC">      1.00000000</i>
   <i type="int" name="NKREDX">     1</i>
   <i type="int" name="NKREDY">     1</i>
   <i type="int" name="NKREDZ">     1</i>
   <i type="logical" name="SHIFTRED"> F  </i>
   <i type="logical" name="ODDONLY"> F  </i>
   <i type="logical" name="EVENONLY"> F  </i>
   <i type="int" name="LMAXFOCK">     4</i>
   <i type="int" name="NMAXFOCKAE">     1</i>
   <i type="logical" name="LFOCKAEDFT"> F  </i>
   <i name="HFSCREEN">      0.20000000</i>
   <i name="HFSCREENC">      0.20000000</i>
   <i type="int" name="NBANDSGWLOW">     1</i>
  </separator>
  <separator name="vdW DFT" >
   <i type="logical" name="LUSE_VDW"> F  </i>
   <i type="int" name="IVDW_NL">     1</i>
   <i type="logical" name="LSPIN_VDW"> F  </i>
   <i name="Zab_VDW">     -0.84910000</i>
   <i name="PARAM1">      0.12340000</i>
   <i name="PARAM2">      1.00000000</i>
   <i name="PARAM3">      0.00000000</i>
  </separator>
  <separator name="model GW" >
   <i type="int" name="MODEL_GW">     0</i>
   <i name="MODEL_EPS0">      6.39733692</i>
   <i name="MODEL_ALPHA">      1.00000000</i>
  </separator>
  <separator name="linear response parameters" >
   <i type="logical" name="LEPSILON"> F  </i>
   <i type="logical" name="LRPA"> F  </i>
   <i type="logical" name="LNABLA"> F  </i>
   <i type="logical" name="LVEL"> F  </i>
   <i name="CSHIFT">      0.10000000</i>
   <i name="OMEGAMAX">     -1.00000000</i>
   <i name="DEG_THRESHOLD">      0.00200000</i>
   <i name="RTIME">     -0.10000000</i>
   <i name="WPLASMAI">      0.00000000</i>
   <v name="DFIELD">      0.00000000      0.00000000      0.00000000</v>
   <v name="WPLASMA">      0.00000000      0.00000000      0.00000000      0.00000000      0.00000000      0.00000000      0.00000000      0.00000000      0.00000000</v>
  </separator>
  <separator name="orbital magnetization" >
   <i type="logical" name="NUCIND"> F  </i>
   <v name="MAGPOS">      0.00000000      0.00000000      0.00000000</v>
   <i type="logical" name="LNICSALL"> T  </i>
   <i type="logical" name="ORBITALMAG"> F  </i>
   <i type="logical" name="LMAGBLOCH"> F  </i>
   <i type="logical" name="LCHIMAG"> F  </i>
   <i type="logical" name="LGAUGE"> T  </i>
   <i type="int" name="MAGATOM">     0</i>
   <v name="MAGDIPOL">      0.00000000      0.00000000      0.00000000</v>
   <v name="AVECCONST">      0.00000000      0.00000000      0.00000000</v>
  </separator>
  <separator name="response functions" >
   <i type="logical" name="LALL_IN_ONE"> F  </i>
   <i type="int" name="IALL_IN_ONE">    -1</i>
   <i type="int" name="NBANDS_WAVE">    -1</i>
   <i type="logical" name="LFINITE_TEMPERATURE"> F  </i>
   <i type="logical" name="LADDER"> F  </i>
   <i type="logical" name="LRPAFORCE"> F  </i>
   <i type="logical" name="LFXC"> F  </i>
   <i type="logical" name="LHARTREE"> T  </i>
   <i type="int" name="IBSE">     0</i>
   <v type="int" name="KPOINT">    -1     0     0     0</v>
   <i type="logical" name="LTCTC"> F  </i>
   <i type="logical" name="LTCTE"> F  </i>
   <i type="logical" name="LTETE"> F  </i>
   <i type="logical" name="LTRIPLET"> F  </i>
   <i type="logical" name="LFXCEPS"> F  </i>
   <i type="logical" name="LFXHEG"> F  </i>
   <i type="int" name="NATURALO">     2</i>
   <i type="logical" name="LHOLEGF"> F  </i>
   <i type="logical" name="L2ORDER"> F  </i>
   <i type="logical" name="LDMP1"> F  </i>
   <i type="logical" name="LMP2LT"> F  </i>
   <i type="logical" name="LSMP2LT"> F  </i>
   <i type="logical" name="LGWLF"> F  </i>
   <i name="ENCUTGW">     -1.60000002</i>
   <i name="ENCUTGWSOFT">     -1.60000002</i>
   <i name="ENCUTLF">     -1.00000000</i>
   <i type="logical" name="LESF_SPLINES"> F  </i>
   <i type="int" name="LMAXMP2">    -1</i>
   <i name="SCISSOR">      0.00000000</i>
   <i type="int" name="NOMEGA">     0</i>
   <i type="int" name="NOMEGAR">     0</i>
   <i type="int" name="NBANDSGW">    -1</i>
   <i type="int" name="NBANDSO">    -1</i>
   <i type="int" name="NBANDSV">    -1</i>
   <i type="int" name="NELMGW">     1</i>
   <i type="int" name="NELMHF">     1</i>
   <i type="int" name="DIM">     3</i>
   <i type="int" name="IESPILON">     4</i>
   <i type="int" name="ANTIRES">     0</i>
   <i name="OMEGAMAX">    -30.00000000</i>
   <i name="OMEGAMIN">    -30.00000000</i>
   <i name="OMEGATL">   -200.00000000</i>
   <i type="int" name="OMEGAGRID">     0</i>
   <i name="CSHIFT">     -0.10000000</i>
   <i type="logical" name="LSELFENERGY"> F  </i>
   <i type="logical" name="LSPECTRAL"> F  </i>
   <i type="logical" name="LSPECTRALGW"> F  </i>
   <i type="logical" name="LSINGLES"> F  </i>
   <i type="logical" name="LFERMIGW"> F  </i>
   <i type="logical" name="ODDONLYGW"> F  </i>
   <i type="logical" name="EVENONLYGW"> F  </i>
   <i type="int" name="NKREDLFX">     1</i>
   <i type="int" name="NKREDLFY">     1</i>
   <i type="int" name="NKREDLFZ">     1</i>
   <i type="int" name="MAXMEM">  2800</i>
   <i type="int" name="TELESCOPE">     0</i>
   <i type="int" name="NTAUPAR">    -1</i>
   <i type="int" name="NOMEGAPAR">    -1</i>
   <i name="DAMP_NEWTON">      0.80000001</i>
   <i name="LAMBDA">      1.00000000</i>
  </separator>
  <separator name="External order field" >
   <i name="OFIELD_KAPPA">      0.00000000</i>
   <v name="OFIELD_K">      0.00000000      0.00000000      0.00000000</v>
   <i name="OFIELD_Q6_NEAR">      0.00000000</i>
   <i name="OFIELD_Q6_FAR">      0.00000000</i>
   <i name="OFIELD_A">      0.00000000</i>
  </separator>
  <separator name="optional k-points parameters" >
   <i type="int" name="KPOINTS_OPT_MODE">     1</i>
   <i type="logical" name="LKPOINTS_OPT"> F  </i>
  </separator>
 </parameters>
 <atominfo>
  <atoms>     119 </atoms>
  <types>       3 </types>
  <array name="atoms" >
   <dimension dim="1">ion</dimension>
   <field type="string">element</field>
   <field type="int">atomtype</field>
   <set>
    <rc><c>Ga</c><c>   1</c></rc>
    <rc><c>Ga</c><c>   1</c></rc>
    <rc><c>Ga</c><c>   1</c></rc>
    <rc><c>Ga</c><c>   1</c></rc>
    <rc><c>Ga</c><c>   1</c></rc>
    <rc><c>Ga</c><c>   1</c></rc>
    <rc><c>Ga</c><c>   1</c></rc>
    <rc><c>Ga</c><c>   1</c></rc>
    <rc><c>Ga</c><c>   1</c></rc>
    <rc><c>Ga</c><c>   1</c></rc>
    <rc><c>Ga</c><c>   1</c></rc>
    <rc><c>Ga</c><c>   1</c></rc>
    <rc><c>Ga</c><c>   1</c></rc>
    <rc><c>Ga</c><c>   1</c></rc>
    <rc><c>Ga</c><c>   1</c></rc>
    <rc><c>Ga</c><c>   1</c></rc>
    <rc><c>Ga</c><c>   1</c></rc>
    <rc><c>Ga</c><c>   1</c></rc>
    <rc><c>Ga</c><c>   1</c></rc>
    <rc><c>Ga</c><c>   1</c></rc>
    <rc><c>Ga</c><c>   1</c></rc>
    <rc><c>Ga</c><c>   1</c></rc>
    <rc><c>Ga</c><c>   1</c></rc>
    <rc><c>Ga</c><c>   1</c></rc>
    <rc><c>Ga</c><c>   1</c></rc>
    <rc><c>Ga</c><c>   1</c></rc>
    <rc><c>Ga</c><c>   1</c></rc>
    <rc><c>Ga</c><c>   1</c></rc>
    <rc><c>Ga</c><c>   1</c></rc>
    <rc><c>Ga</c><c>   1</c></rc>
    <rc><c>Ga</c><c>   1</c></rc>
    <rc><c>Ga</c><c>   1</c></rc>
    <rc><c>Ga</c><c>   1</c></rc>
    <rc><c>Ga</c><c>   1</c></rc>
    <rc><c>Ga</c><c>   1</c></rc>
    <rc><c>Ga</c><c>   1</c></rc>
    <rc><c>Ga</c><c>   1</c></rc>
    <rc><c>Ga</c><c>   1</c></rc>
    <rc><c>Ga</c><c>   1</c></rc>
    <rc><c>Ga</c><c>   1</c></rc>
    <rc><c>Ga</c><c>   1</c></rc>
    <rc><c>Ga</c><c>   1</c></rc>
    <rc><c>Ga</c><c>   1</c></rc>
    <rc><c>Ga</c><c>   1</c></rc>
    <rc><c>Ga</c><c>   1</c></rc>
    <rc><c>Ga</c><c>   1</c></rc>
    <rc><c>Ga</c><c>   1</c></rc>
    <rc><c>O </c><c>   2</c></rc>
    <rc><c>O </c><c>   2</c></rc>
    <rc><c>O </c><c>   2</c></rc>
    <rc><c>O </c><c>   2</c></rc>
    <rc><c>O </c><c>   2</c></rc>
    <rc><c>O </c><c>   2</c></rc>
    <rc><c>O </c><c>   2</c></rc>
    <rc><c>O </c><c>   2</c></rc>
    <rc><c>O </c><c>   2</c></rc>
    <rc><c>O </c><c>   2</c></rc>
    <rc><c>O </c><c>   2</c></rc>
    <rc><c>O </c><c>   2</c></rc>
    <rc><c>O </c><c>   2</c></rc>
    <rc><c>O </c><c>   2</c></rc>
    <rc><c>O </c><c>   2</c></rc>
    <rc><c>O </c><c>   2</c></rc>
    <rc><c>O </c><c>   2</c></rc>
    <rc><c>O </c><c>   2</c></rc>
    <rc><c>O </c><c>   2</c></rc>
    <rc><c>O </c><c>   2</c></rc>
    <rc><c>O </c><c>   2</c></rc>
    <rc><c>O </c><c>   2</c></rc>
    <rc><c>O </c><c>   2</c></rc>
    <rc><c>O </c><c>   2</c></rc>
    <rc><c>O </c><c>   2</c></rc>
    <rc><c>O </c><c>   2</c></rc>
    <rc><c>O </c><c>   2</c></rc>
    <rc><c>O </c><c>   2</c></rc>
    <rc><c>O </c><c>   2</c></rc>
    <rc><c>O </c><c>   2</c></rc>
    <rc><c>O </c><c>   2</c></rc>
    <rc><c>O </c><c>   2</c></rc>
    <rc><c>O </c><c>   2</c></rc>
    <rc><c>O </c><c>   2</c></rc>
    <rc><c>O </c><c>   2</c></rc>
    <rc><c>O </c><c>   2</c></rc>
    <rc><c>O </c><c>   2</c></rc>
    <rc><c>O </c><c>   2</c></rc>
    <rc><c>O </c><c>   2</c></rc>
    <rc><c>O </c><c>   2</c></rc>
    <rc><c>O </c><c>   2</c></rc>
    <rc><c>O </c><c>   2</c></rc>
    <rc><c>O </c><c>   2</c></rc>
    <rc><c>O </c><c>   2</c></rc>
    <rc><c>O </c><c>   2</c></rc>
    <rc><c>O </c><c>   2</c></rc>
    <rc><c>O </c><c>   2</c></rc>
    <rc><c>O </c><c>   2</c></rc>
    <rc><c>O </c><c>   2</c></rc>
    <rc><c>O </c><c>   2</c></rc>
    <rc><c>O </c><c>   2</c></rc>
    <rc><c>O </c><c>   2</c></rc>
    <rc><c>O </c><c>   2</c></rc>
    <rc><c>O </c><c>   2</c></rc>
    <rc><c>O </c><c>   2</c></rc>
    <rc><c>O </c><c>   2</c></rc>
    <rc><c>O </c><c>   2</c></rc>
    <rc><c>O </c><c>   2</c></rc>
    <rc><c>O </c><c>   2</c></rc>
    <rc><c>O </c><c>   2</c></rc>
    <rc><c>O </c><c>   2</c></rc>
    <rc><c>O </c><c>   2</c></rc>
    <rc><c>O </c><c>   2</c></rc>
    <rc><c>O </c><c>   2</c></rc>
    <rc><c>O </c><c>   2</c></rc>
    <rc><c>O </c><c>   2</c></rc>
    <rc><c>O </c><c>   2</c></rc>
    <rc><c>O </c><c>   2</c></rc>
    <rc><c>O </c><c>   2</c></rc>
    <rc><c>O </c><c>   2</c></rc>
    <rc><c>O </c><c>   2</c></rc>
    <rc><c>P </c><c>   3</c></rc>
   </set>
  </array>
  <array name="atomtypes" >
   <dimension dim="1">type</dimension>
   <field type="int">atomspertype</field>
   <field type="string">element</field>
   <field>mass</field>
   <field>valence</field>
   <field type="string">pseudopotential</field>
   <set>
    <rc><c>  47</c><c>Ga</c><c>     69.72300000</c><c>     13.00000000</c><c>  PAW_PBE Ga_d 06Jul2010                </c></rc>
    <rc><c>  71</c><c>O </c><c>     16.00000000</c><c>      6.00000000</c><c>   PAW_PBE O 08Apr2002                  </c></rc>
    <rc><c>   1</c><c>P </c><c>     30.97400000</c><c>      5.00000000</c><c>  PAW_PBE P 06Sep2000                   </c></rc>
   </set>
  </array>
 </atominfo>
 <structure name="initialpos" >
  <crystal>
   <varray name="basis" >
    <v>       0.00000000      12.28047342       0.00000000 </v>
    <v>       9.14270205       0.00000000       0.00000000 </v>
    <v>       0.00000000      -2.76826177     -11.30069772 </v>
   </varray>
   <i name="volume">   1268.80515525 </i>
   <varray name="rec_basis" >
    <v>       0.00000000       0.08143009      -0.01994742 </v>
    <v>       0.10937686      -0.00000000       0.00000000 </v>
    <v>       0.00000000       0.00000000      -0.08849011 </v>
   </varray>
  </crystal>
  <varray name="positions" >
   <v>       0.65763608       0.00000000       0.15600516 </v>
   <v>       0.66021686       0.00000000       0.65726015 </v>
   <v>       0.65933239       0.33334081       0.15816452 </v>
   <v>       0.66031463       0.33379810       0.65692019 </v>
   <v>       0.65933239       0.66665919       0.15816452 </v>
   <v>       0.66031463       0.66620190       0.65692019 </v>
   <v>       0.83940566       0.16361902       0.34246673 </v>
   <v>       0.84018474       0.16674759       0.84449979 </v>
   <v>       0.84419980       0.50000000       0.34362777 </v>
   <v>       0.84089069       0.50000000       0.84364127 </v>
   <v>       0.83940566       0.83638098       0.34246673 </v>
   <v>       0.84018474       0.83325241       0.84449979 </v>
   <v>       0.59137682       0.16712874       0.39899909 </v>
   <v>       0.59198566       0.16724688       0.89860966 </v>
   <v>       0.59043718       0.50000000       0.39794452 </v>
   <v>       0.59256914       0.50000000       0.89893195 </v>
   <v>       0.59137682       0.83287126       0.39899909 </v>
   <v>       0.59198566       0.83275312       0.89860966 </v>
   <v>       0.90952164       0.00000000       0.10328539 </v>
   <v>       0.90724405       0.00000000       0.60344700 </v>
   <v>       0.90813525       0.33403471       0.10130837 </v>
   <v>       0.91077204       0.33300003       0.60474499 </v>
   <v>       0.90813525       0.66596529       0.10130837 </v>
   <v>       0.91077204       0.66699997       0.60474499 </v>
   <v>       0.15748914       0.17079275       0.15547415 </v>
   <v>       0.15958409       0.16143484       0.66088603 </v>
   <v>       0.15883241       0.50000000       0.15635316 </v>
   <v>       0.15995469       0.50000000       0.65711922 </v>
   <v>       0.15748914       0.82920725       0.15547415 </v>
   <v>       0.15958409       0.83856516       0.66088603 </v>
   <v>       0.34291439       0.00000000       0.34667124 </v>
   <v>       0.34303987       0.00000000       0.84779591 </v>
   <v>       0.34003355       0.33324114       0.34545886 </v>
   <v>       0.34139137       0.33331384       0.84525184 </v>
   <v>       0.34003355       0.66675886       0.34545886 </v>
   <v>       0.34139137       0.66668616       0.84525184 </v>
   <v>       0.08939873       0.00000000       0.90274408 </v>
   <v>       0.09272651       0.32925330       0.39922813 </v>
   <v>       0.09144875       0.33356020       0.89720608 </v>
   <v>       0.09272651       0.67074670       0.39922813 </v>
   <v>       0.09144875       0.66643980       0.89720608 </v>
   <v>       0.40829930       0.16701880       0.10547581 </v>
   <v>       0.41102433       0.16695563       0.60454155 </v>
   <v>       0.40808103       0.50000000       0.10361028 </v>
   <v>       0.40912260       0.50000000       0.60341126 </v>
   <v>       0.40829930       0.83298120       0.10547581 </v>
   <v>       0.41102433       0.83304437       0.60454155 </v>
   <v>       0.99623522       0.16771930       0.12882375 </v>
   <v>       0.99671147       0.16452361       0.62723186 </v>
   <v>       0.99668361       0.50000000       0.12667719 </v>
   <v>       0.99802020       0.50000000       0.62888524 </v>
   <v>       0.99623522       0.83228070       0.12882375 </v>
   <v>       0.99671147       0.83547639       0.62723186 </v>
   <v>       0.50407605       0.00000000       0.37434639 </v>
   <v>       0.50480769       0.00000000       0.87486403 </v>
   <v>       0.50225517       0.33311111       0.37378765 </v>
   <v>       0.50387996       0.33381606       0.87364021 </v>
   <v>       0.50225517       0.66688889       0.37378765 </v>
   <v>       0.50387996       0.66618394       0.87364021 </v>
   <v>       0.67268329       0.16728453       0.28158098 </v>
   <v>       0.67260620       0.16702577       0.78065568 </v>
   <v>       0.67576080       0.50000000       0.28355402 </v>
   <v>       0.67279859       0.50000000       0.78026879 </v>
   <v>       0.67268329       0.83271547       0.28158098 </v>
   <v>       0.67260620       0.83297423       0.78065568 </v>
   <v>       0.82766684       0.00000000       0.22072606 </v>
   <v>       0.82741439       0.00000000       0.72124924 </v>
   <v>       0.83054577       0.33077062       0.22186275 </v>
   <v>       0.82827536       0.33337308       0.72038515 </v>
   <v>       0.83054577       0.66922938       0.22186275 </v>
   <v>       0.82827536       0.66662692       0.72038515 </v>
   <v>       0.83209668       0.00000000       0.44602855 </v>
   <v>       0.83189406       0.00000000       0.94723362 </v>
   <v>       0.84307303       0.33008882       0.44537138 </v>
   <v>       0.83007242       0.33377961       0.94585196 </v>
   <v>       0.84307303       0.66991118       0.44537138 </v>
   <v>       0.83007242       0.66622039       0.94585196 </v>
   <v>       0.66859397       0.16709162       0.05560314 </v>
   <v>       0.67046589       0.16717571       0.55464210 </v>
   <v>       0.66940757       0.50000000       0.05639712 </v>
   <v>       0.67107792       0.50000000       0.55349376 </v>
   <v>       0.66859397       0.83290838       0.05560314 </v>
   <v>       0.67046589       0.83282429       0.55464210 </v>
   <v>       0.49588408       0.00000000       0.13001602 </v>
   <v>       0.49827560       0.00000000       0.62693263 </v>
   <v>       0.49643380       0.33357696       0.13030881 </v>
   <v>       0.49760454       0.33404732       0.62683846 </v>
   <v>       0.49643380       0.66642304       0.13030881 </v>
   <v>       0.49760454       0.66595268       0.62683846 </v>
   <v>       0.01663158       0.14097986       0.37328524 </v>
   <v>       0.00290442       0.16732666       0.87489465 </v>
   <v>       0.00721609       0.50000000       0.37254786 </v>
   <v>       0.00351865       0.50000000       0.87352342 </v>
   <v>       0.01663158       0.85902014       0.37328524 </v>
   <v>       0.00290442       0.83267334       0.87489465 </v>
   <v>       0.16107915       0.00000000       0.28825159 </v>
   <v>       0.17473580       0.00000000       0.78975581 </v>
   <v>       0.17131072       0.33169215       0.28051219 </v>
   <v>       0.17325143       0.33189153       0.78060817 </v>
   <v>       0.17131072       0.66830785       0.28051219 </v>
   <v>       0.17325143       0.66810847       0.78060817 </v>
   <v>       0.32424172       0.16314817       0.22220160 </v>
   <v>       0.32865981       0.16369943       0.72063813 </v>
   <v>       0.32616042       0.50000000       0.22112838 </v>
   <v>       0.32697095       0.50000000       0.71983063 </v>
   <v>       0.32424172       0.83685183       0.22220160 </v>
   <v>       0.32865981       0.83630057       0.72063813 </v>
   <v>       0.33096609       0.16538375       0.44828482 </v>
   <v>       0.33296359       0.16750080       0.94846836 </v>
   <v>       0.32945969       0.50000000       0.44722426 </v>
   <v>       0.33174887       0.50000000       0.94677078 </v>
   <v>       0.33096609       0.83461625       0.44828482 </v>
   <v>       0.33296359       0.83249920       0.94846836 </v>
   <v>       0.16622802       0.00000000       0.06007683 </v>
   <v>       0.16916616       0.33412378       0.05390004 </v>
   <v>       0.16663412       0.32936904       0.55534147 </v>
   <v>       0.16916616       0.66587622       0.05390004 </v>
   <v>       0.16663412       0.67063096       0.55534147 </v>
   <v>       0.10314475       0.00000000       0.40306771 </v>
  </varray>
 </structure>
 <calculation>
  <scstep>
   <time name="total">    1.45    1.46</time>
   <energy>
    <i name="alphaZ">   5376.25786726 </i>
    <i name="ewald"> -86622.35723278 </i>
    <i name="hartreedc">  -2084.26607214 </i>
    <i name="XCdc">   2756.64165243 </i>
    <i name="pawpsdc"> 326852.27376384 </i>
    <i name="pawaedc">-355612.56045630 </i>
    <i name="eentropy">     -0.02828010 </i>
    <i name="bandstr"> -40446.39696266 </i>
    <i name="atom"> 131500.23896116 </i>
    <i name="e_fr_energy"> -18280.19675929 </i>
    <i name="e_wo_entrp"> -18280.16847919 </i>
    <i name="e_0_energy"> -18280.18261924 </i>
   </energy>
  </scstep>
  <scstep>
   <time name="total">    1.18    1.18</time>
   <energy>
    <i name="e_fr_energy"> -62653.04781173 </i>
    <i name="e_wo_entrp"> -62653.01956619 </i>
    <i name="e_0_energy"> -62653.03368896 </i>
   </energy>
  </scstep>
  <scstep>
   <time name="total">    1.56    1.82</time>
   <energy>
    <i name="e_fr_energy"> -67602.56392448 </i>
    <i name="e_wo_entrp"> -67602.52206221 </i>
    <i name="e_0_energy"> -67602.54299334 </i>
   </energy>
  </scstep>
  <scstep>
   <time name="total">    1.57    1.57</time>
   <energy>
    <i name="e_fr_energy"> -68334.73603390 </i>
    <i name="e_wo_entrp"> -68334.68018390 </i>
    <i name="e_0_energy"> -68334.70810890 </i>
   </energy>
  </scstep>
  <scstep>
   <time name="total">   17.37   17.37</time>
   <energy>
    <i name="e_fr_energy"> -38781.66498061 </i>
    <i name="e_wo_entrp"> -38781.63677113 </i>
    <i name="e_0_energy"> -38781.65087587 </i>
   </energy>
  </scstep>
  <scstep>
   <time name="total">   32.83   32.83</time>
   <energy>
    <i name="e_fr_energy">  29318.07538048 </i>
    <i name="e_wo_entrp">  29318.10358997 </i>
    <i name="e_0_energy">  29318.08948522 </i>
   </energy>
  </scstep>
  <scstep>
   <time name="total">   32.85   32.85</time>
   <energy>
    <i name="e_fr_energy">  11553.09161854 </i>
    <i name="e_wo_entrp">  11553.12583715 </i>
    <i name="e_0_energy">  11553.10872785 </i>
   </energy>
  </scstep>
  <scstep>
   <time name="total">   32.98   32.98</time>
   <energy>
    <i name="e_fr_energy">   5053.61314725 </i>
    <i name="e_wo_entrp">   5053.64139225 </i>
    <i name="e_0_energy">   5053.62726975 </i>
   </energy>
  </scstep>
  <scstep>
   <time name="total">   32.95   32.95</time>
   <energy>
    <i name="e_fr_energy">   3739.78180098 </i>
    <i name="e_wo_entrp">   3739.81022779 </i>
    <i name="e_0_energy">   3739.79601438 </i>
   </energy>
  </scstep>
  <scstep>
   <time name="total">   32.83   32.82</time>
   <energy>
    <i name="e_fr_energy">   1828.98976766 </i>
    <i name="e_wo_entrp">   1829.01797845 </i>
    <i name="e_0_energy">   1829.00387305 </i>
   </energy>
  </scstep>
  <scstep>
   <time name="total">   32.92   32.91</time>
   <energy>
    <i name="e_fr_energy">    589.19380474 </i>
    <i name="e_wo_entrp">    589.22201422 </i>
    <i name="e_0_energy">    589.20790948 </i>
   </energy>
  </scstep>
  <scstep>
   <time name="total">   32.85   32.84</time>
   <energy>
    <i name="e_fr_energy">   -141.99321175 </i>
    <i name="e_wo_entrp">   -141.96500227 </i>
    <i name="e_0_energy">   -141.97910701 </i>
   </energy>
  </scstep>
  <scstep>
   <time name="total">   32.81   32.81</time>
   <energy>
    <i name="e_fr_energy">   -548.70484506 </i>
    <i name="e_wo_entrp">   -548.66299251 </i>
    <i name="e_0_energy">   -548.68391878 </i>
   </energy>
  </scstep>
  <scstep>
   <time name="total">   32.85   32.84</time>
   <energy>
    <i name="e_fr_energy">   -765.65763622 </i>
    <i name="e_wo_entrp">   -765.62942674 </i>
    <i name="e_0_energy">   -765.64353148 </i>
   </energy>
  </scstep>
  <scstep>
   <time name="total">   32.80   32.81</time>
   <energy>
    <i name="e_fr_energy">   -855.88730233 </i>
    <i name="e_wo_entrp">   -855.85909285 </i>
    <i name="e_0_energy">   -855.87319759 </i>
   </energy>
  </scstep>
  <scstep>
   <time name="total">   32.83   32.83</time>
   <energy>
    <i name="e_fr_energy">   -893.87543450 </i>
    <i name="e_wo_entrp">   -893.84722502 </i>
    <i name="e_0_energy">   -893.86132976 </i>
   </energy>
  </scstep>
  <scstep>
   <time name="total">   32.88   32.87</time>
   <energy>
    <i name="e_fr_energy">   -914.01745390 </i>
    <i name="e_wo_entrp">   -913.98924442 </i>
    <i name="e_0_energy">   -914.00334916 </i>
   </energy>
  </scstep>
  <scstep>
   <time name="total">   32.81   32.81</time>
   <energy>
    <i name="e_fr_energy">   -924.82980681 </i>
    <i name="e_wo_entrp">   -924.80159733 </i>
    <i name="e_0_energy">   -924.81570207 </i>
   </energy>
  </scstep>
  <scstep>
   <time name="total">   32.77   32.77</time>
   <energy>
    <i name="e_fr_energy">   -931.12759538 </i>
    <i name="e_wo_entrp">   -931.09938590 </i>
    <i name="e_0_energy">   -931.11349064 </i>
   </energy>
  </scstep>
  <scstep>
   <time name="total">   32.83   32.82</time>
   <energy>
    <i name="e_fr_energy">   -934.76344764 </i>
    <i name="e_wo_entrp">   -934.73523816 </i>
    <i name="e_0_energy">   -934.74934290 </i>
   </energy>
  </scstep>
  <scstep>
   <time name="total">   32.79   32.79</time>
   <energy>
    <i name="e_fr_energy">   -936.75146830 </i>
    <i name="e_wo_entrp">   -936.72325882 </i>
    <i name="e_0_energy">   -936.73736356 </i>
   </energy>
  </scstep>
  <scstep>
   <time name="total">   32.82   32.81</time>
   <energy>
    <i name="e_fr_energy">   -937.75382261 </i>
    <i name="e_wo_entrp">   -937.72561313 </i>
    <i name="e_0_energy">   -937.73971787 </i>
   </energy>
  </scstep>
  <scstep>
   <time name="total">   32.76   32.75</time>
   <energy>
    <i name="e_fr_energy">   -938.29598587 </i>
    <i name="e_wo_entrp">   -938.26777639 </i>
    <i name="e_0_energy">   -938.28188113 </i>
   </energy>
  </scstep>
  <scstep>
   <time name="total">   32.81   32.81</time>
   <energy>
    <i name="e_fr_energy">   -938.57081306 </i>
    <i name="e_wo_entrp">   -938.54260358 </i>
    <i name="e_0_energy">   -938.55670832 </i>
   </energy>
  </scstep>
  <scstep>
   <time name="total">   32.84   32.84</time>
   <energy>
    <i name="e_fr_energy">   -938.71750804 </i>
    <i name="e_wo_entrp">   -938.68929856 </i>
    <i name="e_0_energy">   -938.70340330 </i>
   </energy>
  </scstep>
  <scstep>
   <time name="total">   32.79   32.78</time>
   <energy>
    <i name="e_fr_energy">   -938.80928105 </i>
    <i name="e_wo_entrp">   -938.78107157 </i>
    <i name="e_0_energy">   -938.79517631 </i>
   </energy>
  </scstep>
  <scstep>
   <time name="total">   32.77   32.77</time>
   <energy>
    <i name="e_fr_energy">   -938.85938823 </i>
    <i name="e_wo_entrp">   -938.83117875 </i>
    <i name="e_0_energy">   -938.84528349 </i>
   </energy>
  </scstep>
  <scstep>
   <time name="total">   32.83   32.83</time>
   <energy>
    <i name="e_fr_energy">   -938.88791907 </i>
    <i name="e_wo_entrp">   -938.85970959 </i>
    <i name="e_0_energy">   -938.87381433 </i>
   </energy>
  </scstep>
  <scstep>
   <time name="total">   32.76   32.76</time>
   <energy>
    <i name="e_fr_energy">   -938.90267148 </i>
    <i name="e_wo_entrp">   -938.87446200 </i>
    <i name="e_0_energy">   -938.88856674 </i>
   </energy>
  </scstep>
  <scstep>
   <time name="total">   32.80   32.81</time>
   <energy>
    <i name="e_fr_energy">   -938.91005833 </i>
    <i name="e_wo_entrp">   -938.88184885 </i>
    <i name="e_0_energy">   -938.89595359 </i>
   </energy>
  </scstep>
  <scstep>
   <time name="total">   32.82   32.81</time>
   <energy>
    <i name="e_fr_energy">   -938.91446595 </i>
    <i name="e_wo_entrp">   -938.88625647 </i>
    <i name="e_0_energy">   -938.90036121 </i>
   </energy>
  </scstep>
  <scstep>
   <time name="total">   32.81   32.80</time>
   <energy>
    <i name="e_fr_energy">   -938.91696985 </i>
    <i name="e_wo_entrp">   -938.88876037 </i>
    <i name="e_0_energy">   -938.90286511 </i>
   </energy>
  </scstep>
  <scstep>
   <time name="total">   32.77   32.76</time>
   <energy>
    <i name="e_fr_energy">   -938.91848375 </i>
    <i name="e_wo_entrp">   -938.89027427 </i>
    <i name="e_0_energy">   -938.90437901 </i>
   </energy>
  </scstep>
  <scstep>
   <time name="total">   32.80   32.80</time>
   <energy>
    <i name="e_fr_energy">   -938.91932679 </i>
    <i name="e_wo_entrp">   -938.89111731 </i>
    <i name="e_0_energy">   -938.90522205 </i>
   </energy>
  </scstep>
  <scstep>
   <time name="total">   32.80   32.79</time>
   <energy>
    <i name="e_fr_energy">   -938.91976429 </i>
    <i name="e_wo_entrp">   -938.89155481 </i>
    <i name="e_0_energy">   -938.90565955 </i>
   </energy>
  </scstep>
  <scstep>
   <time name="total">   32.80   32.79</time>
   <energy>
    <i name="e_fr_energy">   -938.92000957 </i>
    <i name="e_wo_entrp">   -938.89180009 </i>
    <i name="e_0_energy">   -938.90590483 </i>
   </energy>
  </scstep>
  <scstep>
   <time name="total">   32.80   32.79</time>
   <energy>
    <i name="e_fr_energy">   -938.92014896 </i>
    <i name="e_wo_entrp">   -938.89193948 </i>
    <i name="e_0_energy">   -938.90604422 </i>
   </energy>
  </scstep>
  <scstep>
   <time name="total">   32.79   32.79</time>
   <energy>
    <i name="e_fr_energy">   -938.92027654 </i>
    <i name="e_wo_entrp">   -938.89206706 </i>
    <i name="e_0_energy">   -938.90617180 </i>
   </energy>
  </scstep>
  <scstep>
   <time name="total">   32.78   32.79</time>
   <energy>
    <i name="e_fr_energy">   -938.92032155 </i>
    <i name="e_wo_entrp">   -938.89211207 </i>
    <i name="e_0_energy">   -938.90621681 </i>
   </energy>
  </scstep>
  <scstep>
   <time name="total">   32.81   32.81</time>
   <energy>
    <i name="e_fr_energy">   -938.92033801 </i>
    <i name="e_wo_entrp">   -938.89212853 </i>
    <i name="e_0_energy">   -938.90623327 </i>
   </energy>
  </scstep>
  <scstep>
   <time name="total">   46.48   46.47</time>
   <energy>
    <i name="alphaZ">   5376.25786726 </i>
    <i name="ewald"> -86622.35723278 </i>
    <i name="hartreedc"> -33928.11846458 </i>
    <i name="XCdc">   2872.19051274 </i>
    <i name="pawpsdc"> 120574.76711594 </i>
    <i name="pawaedc">-135813.07405925 </i>
    <i name="eentropy">     -0.02820948 </i>
    <i name="bandstr">  -8735.74941558 </i>
    <i name="atom"> 131500.23896116 </i>
    <i name="e_fr_energy">   -938.92034375 </i>
    <i name="e_wo_entrp">   -938.89213427 </i>
    <i name="e_0_energy">   -938.90623901 </i>
   </energy>
  </scstep>
  <structure>
   <crystal>
    <varray name="basis" >
     <v>       0.00000000      12.28047342       0.00000000 </v>
     <v>       9.14270205       0.00000000       0.00000000 </v>
     <v>       0.00000000      -2.76826177     -11.30069772 </v>
    </varray>
    <i name="volume">   1268.80515525 </i>
    <varray name="rec_basis" >
     <v>       0.00000000       0.08143009      -0.01994742 </v>
     <v>       0.10937686      -0.00000000       0.00000000 </v>
     <v>       0.00000000       0.00000000      -0.08849011 </v>
    </varray>
   </crystal>
   <varray name="positions" >
    <v>       0.65763608       0.00000000       0.15600516 </v>
    <v>       0.66021686       0.00000000       0.65726015 </v>
    <v>       0.65933239       0.33334081       0.15816452 </v>
    <v>       0.66031463       0.33379810       0.65692019 </v>
    <v>       0.65933239       0.66665919       0.15816452 </v>
    <v>       0.66031463       0.66620190       0.65692019 </v>
    <v>       0.83940566       0.16361902       0.34246673 </v>
    <v>       0.84018474       0.16674759       0.84449979 </v>
    <v>       0.84419980       0.50000000       0.34362777 </v>
    <v>       0.84089069       0.50000000       0.84364127 </v>
    <v>       0.83940566       0.83638098       0.34246673 </v>
    <v>       0.84018474       0.83325241       0.84449979 </v>
    <v>       0.59137682       0.16712874       0.39899909 </v>
    <v>       0.59198566       0.16724688       0.89860966 </v>
    <v>       0.59043718       0.50000000       0.39794452 </v>
    <v>       0.59256914       0.50000000       0.89893195 </v>
    <v>       0.59137682       0.83287126       0.39899909 </v>
    <v>       0.59198566       0.83275312       0.89860966 </v>
    <v>       0.90952164       0.00000000       0.10328539 </v>
    <v>       0.90724405       0.00000000       0.60344700 </v>
    <v>       0.90813525       0.33403471       0.10130837 </v>
    <v>       0.91077204       0.33300003       0.60474499 </v>
    <v>       0.90813525       0.66596529       0.10130837 </v>
    <v>       0.91077204       0.66699997       0.60474499 </v>
    <v>       0.15748914       0.17079275       0.15547415 </v>
    <v>       0.15958409       0.16143484       0.66088603 </v>
    <v>       0.15883241       0.50000000       0.15635316 </v>
    <v>       0.15995469       0.50000000       0.65711922 </v>
    <v>       0.15748914       0.82920725       0.15547415 </v>
    <v>       0.15958409       0.83856516       0.66088603 </v>
    <v>       0.34291439       0.00000000       0.34667124 </v>
    <v>       0.34303987       0.00000000       0.84779591 </v>
    <v>       0.34003355       0.33324114       0.34545886 </v>
    <v>       0.34139137       0.33331384       0.84525184 </v>
    <v>       0.34003355       0.66675886       0.34545886 </v>
    <v>       0.34139137       0.66668616       0.84525184 </v>
    <v>       0.08939873       0.00000000       0.90274408 </v>
    <v>       0.09272651       0.32925330       0.39922813 </v>
    <v>       0.09144875       0.33356020       0.89720608 </v>
    <v>       0.09272651       0.67074670       0.39922813 </v>
    <v>       0.09144875       0.66643980       0.89720608 </v>
    <v>       0.40829930       0.16701880       0.10547581 </v>
    <v>       0.41102433       0.16695563       0.60454155 </v>
    <v>       0.40808103       0.50000000       0.10361028 </v>
    <v>       0.40912260       0.50000000       0.60341126 </v>
    <v>       0.40829930       0.83298120       0.10547581 </v>
    <v>       0.41102433       0.83304437       0.60454155 </v>
    <v>       0.99623522       0.16771930       0.12882375 </v>
    <v>       0.99671147       0.16452361       0.62723186 </v>
    <v>       0.99668361       0.50000000       0.12667719 </v>
    <v>       0.99802020       0.50000000       0.62888524 </v>
    <v>       0.99623522       0.83228070       0.12882375 </v>
    <v>       0.99671147       0.83547639       0.62723186 </v>
    <v>       0.50407605       0.00000000       0.37434639 </v>
    <v>       0.50480769       0.00000000       0.87486403 </v>
    <v>       0.50225517       0.33311111       0.37378765 </v>
    <v>       0.50387996       0.33381606       0.87364021 </v>
    <v>       0.50225517       0.66688889       0.37378765 </v>
    <v>       0.50387996       0.66618394       0.87364021 </v>
    <v>       0.67268329       0.16728453       0.28158098 </v>
    <v>       0.67260620       0.16702577       0.78065568 </v>
    <v>       0.67576080       0.50000000       0.28355402 </v>
    <v>       0.67279859       0.50000000       0.78026879 </v>
    <v>       0.67268329       0.83271547       0.28158098 </v>
    <v>       0.67260620       0.83297423       0.78065568 </v>
    <v>       0.82766684       0.00000000       0.22072606 </v>
    <v>       0.82741439       0.00000000       0.72124924 </v>
    <v>       0.83054577       0.33077062       0.22186275 </v>
    <v>       0.82827536       0.33337308       0.72038515 </v>
    <v>       0.83054577       0.66922938       0.22186275 </v>
    <v>       0.82827536       0.66662692       0.72038515 </v>
    <v>       0.83209668       0.00000000       0.44602855 </v>
    <v>       0.83189406       0.00000000       0.94723362 </v>
    <v>       0.84307303       0.33008882       0.44537138 </v>
    <v>       0.83007242       0.33377961       0.94585196 </v>
    <v>       0.84307303       0.66991118       0.44537138 </v>
    <v>       0.83007242       0.66622039       0.94585196 </v>
    <v>       0.66859397       0.16709162       0.05560314 </v>
    <v>       0.67046589       0.16717571       0.55464210 </v>
    <v>       0.66940757       0.50000000       0.05639712 </v>
    <v>       0.67107792       0.50000000       0.55349376 </v>
    <v>       0.66859397       0.83290838       0.05560314 </v>
    <v>       0.67046589       0.83282429       0.55464210 </v>
    <v>       0.49588408       0.00000000       0.13001602 </v>
    <v>       0.49827560       0.00000000       0.62693263 </v>
    <v>       0.49643380       0.33357696       0.13030881 </v>
    <v>       0.49760454       0.33404732       0.62683846 </v>
    <v>       0.49643380       0.66642304       0.13030881 </v>
    <v>       0.49760454       0.66595268       0.62683846 </v>
    <v>       0.01663158       0.14097986       0.37328524 </v>
    <v>       0.00290442       0.16732666       0.87489465 </v>
    <v>       0.00721609       0.50000000       0.37254786 </v>
    <v>       0.00351865       0.50000000       0.87352342 </v>
    <v>       0.01663158       0.85902014       0.37328524 </v>
    <v>       0.00290442       0.83267334       0.87489465 </v>
    <v>       0.16107915       0.00000000       0.28825159 </v>
    <v>       0.17473580       0.00000000       0.78975581 </v>
    <v>       0.17131072       0.33169215       0.28051219 </v>
    <v>       0.17325143       0.33189153       0.78060817 </v>
    <v>       0.17131072       0.66830785       0.28051219 </v>
    <v>       0.17325143       0.66810847       0.78060817 </v>
    <v>       0.32424172       0.16314817       0.22220160 </v>
    <v>       0.32865981       0.16369943       0.72063813 </v>
    <v>       0.32616042       0.50000000       0.22112838 </v>
    <v>       0.32697095       0.50000000       0.71983063 </v>
    <v>       0.32424172       0.83685183       0.22220160 </v>
    <v>       0.32865981       0.83630057       0.72063813 </v>
    <v>       0.33096609       0.16538375       0.44828482 </v>
    <v>       0.33296359       0.16750080       0.94846836 </v>
    <v>       0.32945969       0.50000000       0.44722426 </v>
    <v>       0.33174887       0.50000000       0.94677078 </v>
    <v>       0.33096609       0.83461625       0.44828482 </v>
    <v>       0.33296359       0.83249920       0.94846836 </v>
    <v>       0.16622802       0.00000000       0.06007683 </v>
    <v>       0.16916616       0.33412378       0.05390004 </v>
    <v>       0.16663412       0.32936904       0.55534147 </v>
    <v>       0.16916616       0.66587622       0.05390004 </v>
    <v>       0.16663412       0.67063096       0.55534147 </v>
    <v>       0.10314475       0.00000000       0.40306771 </v>
   </varray>
  </structure>
  <varray name="forces" >
   <v>       0.00000000       0.05422160       0.03198757 </v>
   <v>       0.00000000       0.06367982      -0.01184500 </v>
   <v>      -0.00958492       0.05203007       0.02973495 </v>
   <v>      -0.00309774       0.07510416      -0.01379809 </v>
   <v>       0.00958492       0.05203007       0.02973495 </v>
   <v>       0.00309774       0.07510416      -0.01379809 </v>
   <v>      -0.04397207      -0.15423401      -0.02741245 </v>
   <v>      -0.00318800      -0.03499125       0.02820553 </v>
   <v>       0.00000000      -0.02757497      -0.04995771 </v>
   <v>       0.00000000      -0.06607267       0.03068866 </v>
   <v>       0.04397207      -0.15423401      -0.02741245 </v>
   <v>       0.00318800      -0.03499125       0.02820553 </v>
   <v>      -0.01243792      -0.02461417      -0.00505368 </v>
   <v>      -0.00697243      -0.06254121       0.04453967 </v>
   <v>       0.00000000      -0.01136162      -0.01369123 </v>
   <v>       0.00000000      -0.05617626       0.04655335 </v>
   <v>       0.01243792      -0.02461417      -0.00505368 </v>
   <v>       0.00697243      -0.06254121       0.04453967 </v>
   <v>       0.00000000       0.03336041      -0.03526437 </v>
   <v>       0.00000000       0.19950583      -0.04762193 </v>
   <v>      -0.02543722       0.03060990      -0.01747074 </v>
   <v>      -0.07164421       0.12263344      -0.02962486 </v>
   <v>       0.02543722       0.03060990      -0.01747074 </v>
   <v>       0.07164421       0.12263344      -0.02962486 </v>
   <v>      -0.01036705       0.04746378       0.01851601 </v>
   <v>      -0.02561958       0.03554793      -0.13152881 </v>
   <v>       0.00000000       0.07987683       0.01770277 </v>
   <v>       0.00000000       0.07795927       0.03978100 </v>
   <v>       0.01036705       0.04746378       0.01851601 </v>
   <v>       0.02561958       0.03554793      -0.13152881 </v>
   <v>       0.00000000      -0.05815767      -0.08023790 </v>
   <v>       0.00000000      -0.19956308       0.11395331 </v>
   <v>      -0.01044972      -0.09762294      -0.04151813 </v>
   <v>      -0.05997216      -0.07861888       0.04710949 </v>
   <v>       0.01044972      -0.09762294      -0.04151813 </v>
   <v>       0.05997216      -0.07861888       0.04710949 </v>
   <v>       0.00000000       0.14808753       0.12973735 </v>
   <v>       0.03731903       0.10760284      -0.08870218 </v>
   <v>      -0.03809471       0.00101790       0.06359525 </v>
   <v>      -0.03731903       0.10760284      -0.08870218 </v>
   <v>       0.03809471       0.00101790       0.06359525 </v>
   <v>      -0.01829467       0.01225566       0.05633648 </v>
   <v>      -0.04008101      -0.08978297      -0.06450776 </v>
   <v>       0.00000000       0.02079544       0.00815688 </v>
   <v>       0.00000000      -0.01581231      -0.04181455 </v>
   <v>       0.01829467       0.01225566       0.05633648 </v>
   <v>       0.04008101      -0.08978297      -0.06450776 </v>
   <v>       0.01598557      -0.17353021       0.15641729 </v>
   <v>       0.11041852      -0.39258127       0.12145800 </v>
   <v>       0.00000000      -0.17837850       0.13044079 </v>
   <v>       0.00000000      -0.21312083       0.11639079 </v>
   <v>      -0.01598557      -0.17353021       0.15641729 </v>
   <v>      -0.11041852      -0.39258127       0.12145800 </v>
   <v>       0.00000000       0.16533430      -0.11837348 </v>
   <v>       0.00000000       0.21245567      -0.15248049 </v>
   <v>       0.00542015       0.17975996      -0.11886822 </v>
   <v>       0.01378732       0.21977484      -0.15341891 </v>
   <v>      -0.00542015       0.17975996      -0.11886822 </v>
   <v>      -0.01378732       0.21977484      -0.15341891 </v>
   <v>       0.01091418      -0.02181442      -0.11901223 </v>
   <v>       0.00042121      -0.02155894      -0.13540810 </v>
   <v>       0.00000000      -0.04741262      -0.09043129 </v>
   <v>       0.00000000      -0.02721398      -0.11625759 </v>
   <v>      -0.01091418      -0.02181442      -0.11901223 </v>
   <v>      -0.00042121      -0.02155894      -0.13540810 </v>
   <v>       0.00000000       0.02373534       0.06908799 </v>
   <v>       0.00000000      -0.01999307       0.11261494 </v>
   <v>      -0.00832087       0.04418013       0.12101821 </v>
   <v>       0.02767617      -0.00476303       0.10496289 </v>
   <v>       0.00832087       0.04418013       0.12101821 </v>
   <v>      -0.02767617      -0.00476303       0.10496289 </v>
   <v>       0.00000000       0.38148861       0.02056584 </v>
   <v>       0.00000000       0.38796131      -0.10373296 </v>
   <v>      -0.00297492       0.27656324      -0.01470402 </v>
   <v>       0.00195354       0.40901792      -0.11211404 </v>
   <v>       0.00297492       0.27656324      -0.01470402 </v>
   <v>      -0.00195354       0.40901792      -0.11211404 </v>
   <v>      -0.00576602      -0.39576167       0.05016372 </v>
   <v>       0.00848937      -0.41424980       0.10852039 </v>
   <v>       0.00000000      -0.39023677       0.04296463 </v>
   <v>       0.00000000      -0.42237627       0.09900776 </v>
   <v>       0.00576602      -0.39576167       0.05016372 </v>
   <v>      -0.00848937      -0.41424980       0.10852039 </v>
   <v>       0.00000000      -0.14604657       0.10128427 </v>
   <v>       0.00000000      -0.10864274       0.11543335 </v>
   <v>       0.00354792      -0.16876756       0.10852434 </v>
   <v>       0.00526359      -0.14765570       0.12530913 </v>
   <v>      -0.00354792      -0.16876756       0.10852434 </v>
   <v>      -0.00526359      -0.14765570       0.12530913 </v>
   <v>      -0.11675581       0.29899156      -0.10233993 </v>
   <v>       0.02280726       0.11737700      -0.15516285 </v>
   <v>       0.00000000       0.12436600      -0.09478919 </v>
   <v>       0.00000000       0.16803159      -0.12853937 </v>
   <v>       0.11675581       0.29899156      -0.10233993 </v>
   <v>      -0.02280726       0.11737700      -0.15516285 </v>
   <v>       0.00000000      -0.23519967      -0.15584951 </v>
   <v>       0.00000000      -0.11795919      -0.47859804 </v>
   <v>      -0.01333934      -0.02807670      -0.10799681 </v>
   <v>       0.05260330      -0.06684807      -0.18636117 </v>
   <v>       0.01333934      -0.02807670      -0.10799681 </v>
   <v>      -0.05260330      -0.06684807      -0.18636117 </v>
   <v>       0.00858279       0.04581024       0.10497981 </v>
   <v>       0.12666544       0.19641518       0.00653455 </v>
   <v>       0.00000000       0.03104141       0.12816863 </v>
   <v>       0.00000000       0.06788068       0.11851571 </v>
   <v>      -0.00858279       0.04581024       0.10497981 </v>
   <v>      -0.12666544       0.19641518       0.00653455 </v>
   <v>       0.01488572       0.45212506      -0.01784878 </v>
   <v>       0.02498673       0.41259460      -0.16623545 </v>
   <v>       0.00000000       0.43715356      -0.04524096 </v>
   <v>       0.00000000       0.40182970      -0.11719366 </v>
   <v>      -0.01488572       0.45212506      -0.01784878 </v>
   <v>      -0.02498673       0.41259460      -0.16623545 </v>
   <v>       0.00000000      -0.42209186      -0.00623865 </v>
   <v>      -0.00284443      -0.42587537       0.04031624 </v>
   <v>       0.08660518      -0.36382075       0.18743961 </v>
   <v>       0.00284443      -0.42587537       0.04031624 </v>
   <v>      -0.08660518      -0.36382075       0.18743961 </v>
   <v>       0.00000000      -0.25370720       0.98593364 </v>
  </varray>
  <varray name="stress" >
   <v>     -28.27282177       0.00000000       0.00000000 </v>
   <v>       0.00000000     -20.97938739       0.96793629 </v>
   <v>       0.00000000       0.96793660      -4.90417256 </v>
  </varray>
  <energy>
   <i name="e_fr_energy">   -938.92034375 </i>
   <i name="e_wo_entrp">   -938.89213427 </i>
   <i name="e_0_energy">   -938.90623901 </i>
  </energy>
  <time name="totalsc"> 1260.95 1261.33</time>
  <eigenvalues>
   <array>
    <dimension dim="1">band</dimension>
    <dimension dim="2">kpoint</dimension>
    <dimension dim="3">spin</dimension>
    <field>eigene</field>
    <field>occ</field>
    <set>
     <set comment="spin 1">
      <set comment="kpoint 1">
       <r>  -19.7177    1.0000 </r>
       <r>  -18.6031    1.0000 </r>
       <r>  -18.4231    1.0000 </r>
       <r>  -18.3466    1.0000 </r>
       <r>  -18.2751    1.0000 </r>
       <r>  -18.1922    1.0000 </r>
       <r>  -18.0975    1.0000 </r>
       <r>  -18.0002    1.0000 </r>
       <r>  -17.9270    1.0000 </r>
       <r>  -17.8926    1.0000 </r>
       <r>  -17.8477    1.0000 </r>
       <r>  -17.8019    1.0000 </r>
       <r>  -17.7892    1.0000 </r>
       <r>  -17.7626    1.0000 </r>
       <r>  -17.7466    1.0000 </r>
       <r>  -17.6762    1.0000 </r>
       <r>  -17.6413    1.0000 </r>
       <r>  -17.6377    1.0000 </r>
       <r>  -17.6119    1.0000 </r>
       <r>  -17.6076    1.0000 </r>
       <r>  -17.5777    1.0000 </r>
       <r>  -17.5023    1.0000 </r>
       <r>  -17.4880    1.0000 </r>
       <r>  -17.4826    1.0000 </r>
       <r>  -17.4818    1.0000 </r>
       <r>  -17.4724    1.0000 </r>
       <r>  -17.4292    1.0000 </r>
       <r>  -17.4245    1.0000 </r>
       <r>  -17.4159    1.0000 </r>
       <r>  -17.3975    1.0000 </r>
       <r>  -17.3841    1.0000 </r>
       <r>  -17.3432    1.0000 </r>
       <r>  -17.3316    1.0000 </r>
       <r>  -17.3073    1.0000 </r>
       <r>  -17.2944    1.0000 </r>
       <r>  -17.2665    1.0000 </r>
       <r>  -17.2592    1.0000 </r>
       <r>  -17.2524    1.0000 </r>
       <r>  -17.2340    1.0000 </r>
       <r>  -17.2287    1.0000 </r>
       <r>  -17.2219    1.0000 </r>
       <r>  -17.2155    1.0000 </r>
       <r>  -17.2074    1.0000 </r>
       <r>  -17.1729    1.0000 </r>
       <r>  -17.1405    1.0000 </r>
       <r>  -17.1309    1.0000 </r>
       <r>  -17.0992    1.0000 </r>
       <r>  -17.0751    1.0000 </r>
       <r>  -17.0720    1.0000 </r>
       <r>  -17.0576    1.0000 </r>
       <r>  -17.0406    1.0000 </r>
       <r>  -17.0252    1.0000 </r>
       <r>  -17.0059    1.0000 </r>
       <r>  -16.9828    1.0000 </r>
       <r>  -16.9572    1.0000 </r>
       <r>  -16.9564    1.0000 </r>
       <r>  -16.9425    1.0000 </r>
       <r>  -16.9324    1.0000 </r>
       <r>  -16.9189    1.0000 </r>
       <r>  -16.9059    1.0000 </r>
       <r>  -16.8897    1.0000 </r>
       <r>  -16.8838    1.0000 </r>
       <r>  -16.8767    1.0000 </r>
       <r>  -16.8714    1.0000 </r>
       <r>  -16.8646    1.0000 </r>
       <r>  -16.8614    1.0000 </r>
       <r>  -16.8533    1.0000 </r>
       <r>  -16.8314    1.0000 </r>
       <r>  -16.8266    1.0000 </r>
       <r>  -16.7920    1.0000 </r>
       <r>  -16.7672    1.0000 </r>
       <r>  -13.2744    1.0000 </r>
       <r>  -13.2239    1.0000 </r>
       <r>  -13.1695    1.0000 </r>
       <r>  -13.1505    1.0000 </r>
       <r>  -13.1452    1.0000 </r>
       <r>  -13.1226    1.0000 </r>
       <r>  -13.0903    1.0000 </r>
       <r>  -13.0849    1.0000 </r>
       <r>  -13.0779    1.0000 </r>
       <r>  -13.0732    1.0000 </r>
       <r>  -13.0590    1.0000 </r>
       <r>  -13.0487    1.0000 </r>
       <r>  -13.0330    1.0000 </r>
       <r>  -13.0177    1.0000 </r>
       <r>  -13.0082    1.0000 </r>
       <r>  -13.0028    1.0000 </r>
       <r>  -12.9948    1.0000 </r>
       <r>  -12.9927    1.0000 </r>
       <r>  -12.9910    1.0000 </r>
       <r>  -12.9817    1.0000 </r>
       <r>  -12.9770    1.0000 </r>
       <r>  -12.9765    1.0000 </r>
       <r>  -12.9684    1.0000 </r>
       <r>  -12.9669    1.0000 </r>
       <r>  -12.9587    1.0000 </r>
       <r>  -12.9564    1.0000 </r>
       <r>  -12.9550    1.0000 </r>
       <r>  -12.9478    1.0000 </r>
       <r>  -12.9413    1.0000 </r>
       <r>  -12.9409    1.0000 </r>
       <r>  -12.9319    1.0000 </r>
       <r>  -12.9299    1.0000 </r>
       <r>  -12.9280    1.0000 </r>
       <r>  -12.9255    1.0000 </r>
       <r>  -12.9204    1.0000 </r>
       <r>  -12.9189    1.0000 </r>
       <r>  -12.9117    1.0000 </r>
       <r>  -12.9116    1.0000 </r>
       <r>  -12.9096    1.0000 </r>
       <r>  -12.9061    1.0000 </r>
       <r>  -12.9014    1.0000 </r>
       <r>  -12.9010    1.0000 </r>
       <r>  -12.8969    1.0000 </r>
       <r>  -12.8955    1.0000 </r>
       <r>  -12.8835    1.0000 </r>
       <r>  -12.8816    1.0000 </r>
       <r>  -12.8789    1.0000 </r>
       <r>  -12.8775    1.0000 </r>
       <r>  -12.8732    1.0000 </r>
       <r>  -12.8711    1.0000 </r>
       <r>  -12.8698    1.0000 </r>
       <r>  -12.8668    1.0000 </r>
       <r>  -12.8655    1.0000 </r>
       <r>  -12.8615    1.0000 </r>
       <r>  -12.8575    1.0000 </r>
       <r>  -12.8571    1.0000 </r>
       <r>  -12.8535    1.0000 </r>
       <r>  -12.8506    1.0000 </r>
       <r>  -12.8494    1.0000 </r>
       <r>  -12.8481    1.0000 </r>
       <r>  -12.8445    1.0000 </r>
       <r>  -12.8426    1.0000 </r>
       <r>  -12.8406    1.0000 </r>
       <r>  -12.8350    1.0000 </r>
       <r>  -12.8319    1.0000 </r>
       <r>  -12.8286    1.0000 </r>
       <r>  -12.8147    1.0000 </r>
       <r>  -12.8115    1.0000 </r>
       <r>  -12.8114    1.0000 </r>
       <r>  -12.8091    1.0000 </r>
       <r>  -12.8063    1.0000 </r>
       <r>  -12.7987    1.0000 </r>
       <r>  -12.7919    1.0000 </r>
       <r>  -12.7872    1.0000 </r>
       <r>  -12.7861    1.0000 </r>
       <r>  -12.7812    1.0000 </r>
       <r>  -12.7799    1.0000 </r>
       <r>  -12.7793    1.0000 </r>
       <r>  -12.7762    1.0000 </r>
       <r>  -12.7748    1.0000 </r>
       <r>  -12.7732    1.0000 </r>
       <r>  -12.7677    1.0000 </r>
       <r>  -12.7635    1.0000 </r>
       <r>  -12.7635    1.0000 </r>
       <r>  -12.7622    1.0000 </r>
       <r>  -12.7608    1.0000 </r>
       <r>  -12.7582    1.0000 </r>
       <r>  -12.7558    1.0000 </r>
       <r>  -12.7525    1.0000 </r>
       <r>  -12.7521    1.0000 </r>
       <r>  -12.7458    1.0000 </r>
       <r>  -12.7428    1.0000 </r>
       <r>  -12.7391    1.0000 </r>
       <r>  -12.7369    1.0000 </r>
       <r>  -12.7359    1.0000 </r>
       <r>  -12.7270    1.0000 </r>
       <r>  -12.7243    1.0000 </r>
       <r>  -12.7238    1.0000 </r>
       <r>  -12.7219    1.0000 </r>
       <r>  -12.7216    1.0000 </r>
       <r>  -12.7158    1.0000 </r>
       <r>  -12.7102    1.0000 </r>
       <r>  -12.7101    1.0000 </r>
       <r>  -12.7071    1.0000 </r>
       <r>  -12.7063    1.0000 </r>
       <r>  -12.7037    1.0000 </r>
       <r>  -12.7018    1.0000 </r>
       <r>  -12.7016    1.0000 </r>
       <r>  -12.6965    1.0000 </r>
       <r>  -12.6944    1.0000 </r>
       <r>  -12.6903    1.0000 </r>
       <r>  -12.6889    1.0000 </r>
       <r>  -12.6855    1.0000 </r>
       <r>  -12.6837    1.0000 </r>
       <r>  -12.6833    1.0000 </r>
       <r>  -12.6826    1.0000 </r>
       <r>  -12.6812    1.0000 </r>
       <r>  -12.6774    1.0000 </r>
       <r>  -12.6751    1.0000 </r>
       <r>  -12.6727    1.0000 </r>
       <r>  -12.6706    1.0000 </r>
       <r>  -12.6674    1.0000 </r>
       <r>  -12.6657    1.0000 </r>
       <r>  -12.6641    1.0000 </r>
       <r>  -12.6594    1.0000 </r>
       <r>  -12.6586    1.0000 </r>
       <r>  -12.6577    1.0000 </r>
       <r>  -12.6533    1.0000 </r>
       <r>  -12.6500    1.0000 </r>
       <r>  -12.6476    1.0000 </r>
       <r>  -12.6459    1.0000 </r>
       <r>  -12.6453    1.0000 </r>
       <r>  -12.6387    1.0000 </r>
       <r>  -12.6383    1.0000 </r>
       <r>  -12.6340    1.0000 </r>
       <r>  -12.6314    1.0000 </r>
       <r>  -12.6309    1.0000 </r>
       <r>  -12.6300    1.0000 </r>
       <r>  -12.6279    1.0000 </r>
       <r>  -12.6251    1.0000 </r>
       <r>  -12.6243    1.0000 </r>
       <r>  -12.6232    1.0000 </r>
       <r>  -12.6157    1.0000 </r>
       <r>  -12.6091    1.0000 </r>
       <r>  -12.6077    1.0000 </r>
       <r>  -12.6051    1.0000 </r>
       <r>  -12.5959    1.0000 </r>
       <r>  -12.5939    1.0000 </r>
       <r>  -12.5918    1.0000 </r>
       <r>  -12.5901    1.0000 </r>
       <r>  -12.5898    1.0000 </r>
       <r>  -12.5817    1.0000 </r>
       <r>  -12.5801    1.0000 </r>
       <r>  -12.5752    1.0000 </r>
       <r>  -12.5742    1.0000 </r>
       <r>  -12.5691    1.0000 </r>
       <r>  -12.5665    1.0000 </r>
       <r>  -12.5643    1.0000 </r>
       <r>  -12.5618    1.0000 </r>
       <r>  -12.5567    1.0000 </r>
       <r>  -12.5562    1.0000 </r>
       <r>  -12.5495    1.0000 </r>
       <r>  -12.5360    1.0000 </r>
       <r>  -12.5342    1.0000 </r>
       <r>  -12.5290    1.0000 </r>
       <r>  -12.5270    1.0000 </r>
       <r>  -12.5186    1.0000 </r>
       <r>  -12.5137    1.0000 </r>
       <r>  -12.5126    1.0000 </r>
       <r>  -12.5103    1.0000 </r>
       <r>  -12.5066    1.0000 </r>
       <r>  -12.5047    1.0000 </r>
       <r>  -12.4998    1.0000 </r>
       <r>  -12.4961    1.0000 </r>
       <r>  -12.4950    1.0000 </r>
       <r>  -12.4887    1.0000 </r>
       <r>  -12.4872    1.0000 </r>
       <r>  -12.4774    1.0000 </r>
       <r>  -12.4760    1.0000 </r>
       <r>  -12.4738    1.0000 </r>
       <r>  -12.4690    1.0000 </r>
       <r>  -12.4555    1.0000 </r>
       <r>  -12.4517    1.0000 </r>
       <r>  -12.4487    1.0000 </r>
       <r>  -12.4399    1.0000 </r>
       <r>  -12.4314    1.0000 </r>
       <r>  -12.4273    1.0000 </r>
       <r>  -12.4181    1.0000 </r>
       <r>  -12.4129    1.0000 </r>
       <r>  -12.4060    1.0000 </r>
       <r>  -12.3932    1.0000 </r>
       <r>  -12.3884    1.0000 </r>
       <r>  -12.3871    1.0000 </r>
       <r>  -12.3713    1.0000 </r>
       <r>  -12.3673    1.0000 </r>
       <r>  -12.3649    1.0000 </r>
       <r>  -12.3611    1.0000 </r>
       <r>  -12.3345    1.0000 </r>
       <r>  -12.3300    1.0000 </r>
       <r>  -12.3111    1.0000 </r>
       <r>  -12.2991    1.0000 </r>
       <r>  -12.2700    1.0000 </r>
       <r>  -12.2573    1.0000 </r>
       <r>  -12.2442    1.0000 </r>
       <r>  -12.2076    1.0000 </r>
       <r>  -12.1951    1.0000 </r>
       <r>  -12.1677    1.0000 </r>
       <r>  -12.1606    1.0000 </r>
[...]
       <r>   -13.2708     9.3548   143.2735 </r>
       <r>   -13.1346    61.1147   151.5922 </r>
       <r>   -12.9985   190.7201   177.5522 </r>
       <r>   -12.8624   520.7219   248.4306 </r>
       <r>   -12.7263   652.0522   337.1852 </r>
       <r>   -12.5902   753.5118   439.7500 </r>
       <r>   -12.4541   479.8284   505.0622 </r>
       <r>   -12.3180   253.0620   539.5079 </r>
       <r>   -12.1818   111.7052   554.7127 </r>
       <r>   -12.0457   103.1525   568.7534 </r>
       <r>   -11.9096    84.3799   580.2388 </r>
       <r>   -11.7735   141.1930   599.4574 </r>
       <r>   -11.6374    74.3456   609.5770 </r>
       <r>   -11.5013    15.2981   611.6593 </r>
       <r>   -11.3651     2.5029   612.0000 </r>
       <r>   -11.2290     0.0000   612.0000 </r>
       <r>   -11.0929     0.0000   612.0000 </r>
       <r>   -10.9568     0.0000   612.0000 </r>
       <r>   -10.8207     0.0000   612.0000 </r>
       <r>   -10.6846     0.0000   612.0000 </r>
       <r>   -10.5484     0.0000   612.0000 </r>
       <r>   -10.4123     0.0000   612.0000 </r>
       <r>   -10.2762     0.0000   612.0000 </r>
       <r>   -10.1401     0.0000   612.0000 </r>
       <r>   -10.0040     0.0000   612.0000 </r>
       <r>    -9.8679     0.0000   612.0000 </r>
       <r>    -9.7318     0.0000   612.0000 </r>
       <r>    -9.5956     0.0000   612.0000 </r>
       <r>    -9.4595     0.0000   612.0000 </r>
       <r>    -9.3234     0.0000   612.0000 </r>
       <r>    -9.1873     0.0000   612.0000 </r>
       <r>    -9.0512     0.0000   612.0000 </r>
       <r>    -8.9151     0.0000   612.0000 </r>
       <r>    -8.7789     0.0000   612.0000 </r>
       <r>    -8.6428     0.0000   612.0000 </r>
       <r>    -8.5067     0.0000   612.0000 </r>
       <r>    -8.3706     0.0000   612.0000 </r>
       <r>    -8.2345     0.0000   612.0000 </r>
       <r>    -8.0984     0.0000   612.0000 </r>
       <r>    -7.9622     0.0000   612.0000 </r>
       <r>    -7.8261     0.0000   612.0000 </r>
       <r>    -7.6900     0.0000   612.0000 </r>
       <r>    -7.5539     0.0000   612.0000 </r>
       <r>    -7.4178     0.0000   612.0000 </r>
       <r>    -7.2817     0.0008   612.0001 </r>
       <r>    -7.1456     7.1972   612.9798 </r>
       <r>    -7.0094     7.4944   613.9999 </r>
       <r>    -6.8733     0.0010   614.0000 </r>
       <r>    -6.7372     0.0000   614.0000 </r>
       <r>    -6.6011     0.0000   614.0000 </r>
       <r>    -6.4650     0.0000   614.0000 </r>
       <r>    -6.3289     0.0000   614.0000 </r>
       <r>    -6.1927     0.0000   614.0000 </r>
       <r>    -6.0566     0.0000   614.0000 </r>
       <r>    -5.9205     0.0000   614.0000 </r>
       <r>    -5.7844     0.0000   614.0000 </r>
       <r>    -5.6483     0.0000   614.0000 </r>
       <r>    -5.5122     0.0000   614.0000 </r>
       <r>    -5.3760     0.0000   614.0000 </r>
       <r>    -5.2399     0.6773   614.0922 </r>
       <r>    -5.1038    24.9112   617.4830 </r>
       <r>    -4.9677     3.8007   618.0003 </r>
       <r>    -4.8316    10.9458   619.4902 </r>
       <r>    -4.6955    32.9168   623.9707 </r>
       <r>    -4.5594    15.4960   626.0800 </r>
       <r>    -4.4232    41.4199   631.7179 </r>
       <r>    -4.2871    31.3550   635.9858 </r>
       <r>    -4.1510    78.3495   646.6504 </r>
       <r>    -4.0149    55.3896   654.1898 </r>
       <r>    -3.8788    29.4021   658.1919 </r>
       <r>    -3.7427    28.7648   662.1072 </r>
       <r>    -3.6065    47.8984   668.6270 </r>
       <r>    -3.4704    61.5196   677.0007 </r>
       <r>    -3.3343    48.8298   683.6472 </r>
       <r>    -3.1982    33.9427   688.2674 </r>
       <r>    -3.0621    52.5315   695.4177 </r>
       <r>    -2.9260    27.0841   699.1043 </r>
       <r>    -2.7899    32.6991   703.5552 </r>
       <r>    -2.6537    15.4015   705.6516 </r>
       <r>    -2.5176    37.2868   710.7269 </r>
       <r>    -2.3815    66.0121   719.7122 </r>
       <r>    -2.2454    64.6508   728.5122 </r>
       <r>    -2.1093    28.4697   732.3873 </r>
       <r>    -1.9732    45.9600   738.6432 </r>
       <r>    -1.8370    44.1384   744.6511 </r>
       <r>    -1.7009    54.8134   752.1121 </r>
       <r>    -1.5648    69.3872   761.5568 </r>
       <r>    -1.4287    67.9193   770.8017 </r>
       <r>    -1.2926    24.5259   774.1400 </r>
       <r>    -1.1565    38.2228   779.3427 </r>
       <r>    -1.0203    62.7602   787.8854 </r>
       <r>    -0.8842    67.5655   797.0821 </r>
       <r>    -0.7481    55.7449   804.6699 </r>
       <r>    -0.6120    36.0200   809.5728 </r>
       <r>    -0.4759    95.3626   822.5531 </r>
       <r>    -0.3398    66.1717   831.5601 </r>
       <r>    -0.2037    85.6688   843.2210 </r>
       <r>    -0.0675   106.1825   857.6741 </r>
       <r>     0.0686    89.7662   869.8927 </r>
       <r>     0.2047    62.3454   878.3789 </r>
       <r>     0.3408    43.7751   884.3374 </r>
       <r>     0.4769    60.3367   892.5501 </r>
       <r>     0.6130    64.6699   901.3527 </r>
       <r>     0.7492    96.5238   914.4911 </r>
       <r>     0.8853   113.9916   930.0072 </r>
       <r>     1.0214    97.7195   943.3083 </r>
       <r>     1.1575    58.7022   951.2986 </r>
       <r>     1.2936   109.6641   966.2256 </r>
       <r>     1.4297   127.6692   983.6034 </r>
       <r>     1.5659   111.4873   998.7786 </r>
       <r>     1.7020   122.0023  1015.3850 </r>
       <r>     1.8381    72.0854  1025.1970 </r>
       <r>     1.9742    54.6292  1032.6329 </r>
       <r>     2.1103    36.7281  1037.6321 </r>
       <r>     2.2464     2.7026  1038.0000 </r>
       <r>     2.3825     0.0000  1038.0000 </r>
       <r>     2.5187     0.0000  1038.0000 </r>
       <r>     2.6548     0.0000  1038.0000 </r>
       <r>     2.7909     0.7503  1038.1021 </r>
       <r>     2.9270    13.7467  1039.9733 </r>
       <r>     3.0631     0.1965  1040.0000 </r>
       <r>     3.1992     0.0000  1040.0000 </r>
       <r>     3.3354     0.0000  1040.0000 </r>
       <r>     3.4715     0.0000  1040.0000 </r>
       <r>     3.6076     0.0000  1040.0000 </r>
       <r>     3.7437     0.0000  1040.0000 </r>
       <r>     3.8798     0.0000  1040.0000 </r>
       <r>     4.0159     0.0000  1040.0000 </r>
       <r>     4.1521     0.0000  1040.0000 </r>
       <r>     4.2882     0.0000  1040.0000 </r>
       <r>     4.4243     0.0000  1040.0000 </r>
       <r>     4.5604     0.0000  1040.0000 </r>
       <r>     4.6965     0.0000  1040.0000 </r>
       <r>     4.8326     0.0000  1040.0000 </r>
       <r>     4.9687     0.0000  1040.0000 </r>
       <r>     5.1049     0.0000  1040.0000 </r>
       <r>     5.2410     0.0000  1040.0000 </r>
       <r>     5.3771     0.0000  1040.0000 </r>
       <r>     5.5132     0.0000  1040.0000 </r>
       <r>     5.6493     0.0000  1040.0000 </r>
       <r>     5.7854     0.0000  1040.0000 </r>
       <r>     5.9216     0.0000  1040.0000 </r>
       <r>     6.0577     0.0000  1040.0000 </r>
       <r>     6.1938     0.0000  1040.0000 </r>
       <r>     6.3299     0.3442  1040.0468 </r>
       <r>     6.4660    13.8895  1041.9374 </r>
       <r>     6.6021     0.4597  1042.0000 </r>
       <r>     6.7382     0.0000  1042.0000 </r>
       <r>     6.8744     0.0000  1042.0000 </r>
       <r>     7.0105     0.0000  1042.0000 </r>
       <r>     7.1466     0.0132  1042.0018 </r>
       <r>     7.2827    11.2512  1043.5333 </r>
       <r>     7.4188     3.4289  1044.0000 </r>
       <r>     7.5549     0.0000  1044.0000 </r>
       <r>     7.6911     0.0000  1044.0000 </r>
       <r>     7.8272     0.0000  1044.0000 </r>
       <r>     7.9633     0.0000  1044.0000 </r>
       <r>     8.0994     0.0000  1044.0000 </r>
       <r>     8.2355     0.0000  1044.0000 </r>
       <r>     8.3716     0.0000  1044.0000 </r>
       <r>     8.5078     0.0000  1044.0000 </r>
       <r>     8.6439     0.0000  1044.0000 </r>
       <r>     8.7800     3.6596  1044.4981 </r>
       <r>     8.9161    11.0227  1045.9985 </r>
       <r>     9.0522     2.5485  1046.3454 </r>
       <r>     9.1883    39.8470  1051.7692 </r>
       <r>     9.3244    11.6264  1053.3517 </r>
       <r>     9.4606     8.1329  1054.4587 </r>
       <r>     9.5967    11.3112  1055.9984 </r>
       <r>     9.7328     8.4682  1057.1510 </r>
       <r>     9.8689     6.7551  1058.0705 </r>
       <r>    10.0050    13.8748  1059.9591 </r>
       <r>    10.1411     9.3231  1061.2281 </r>
       <r>    10.2773    34.9527  1065.9857 </r>
       <r>    10.4134    42.5241  1071.7739 </r>
       <r>    10.5495     9.9976  1073.1348 </r>
       <r>    10.6856    36.4587  1078.0974 </r>
       <r>    10.8217    60.6700  1086.3555 </r>
       <r>    10.9578    29.0524  1090.3100 </r>
       <r>    11.0940    25.6927  1093.8072 </r>
       <r>    11.2301    31.1881  1098.0524 </r>
       <r>    11.3662    42.4736  1103.8337 </r>
       <r>    11.5023    20.3997  1106.6104 </r>
       <r>    11.6384    37.4431  1111.7070 </r>
       <r>    11.7745    13.9965  1113.6121 </r>
       <r>    11.9106    36.3447  1118.5592 </r>
       <r>    12.0468    48.3804  1125.1446 </r>
       <r>    12.1829    34.9288  1129.8989 </r>
       <r>    12.3190    39.9272  1135.3336 </r>
       <r>    12.4551    34.1819  1139.9863 </r>
       <r>    12.5912    17.3706  1142.3507 </r>
       <r>    12.7273    12.0983  1143.9975 </r>
       <r>    12.8635     7.9023  1145.0731 </r>
       <r>    12.9996    26.8766  1148.7315 </r>
       <r>    13.1357    24.2955  1152.0385 </r>
       <r>    13.2718    28.8773  1155.9691 </r>
       <r>    13.4079    30.1730  1160.0761 </r>
       <r>    13.5440    40.1907  1165.5467 </r>
       <r>    13.6801    30.3801  1169.6819 </r>
       <r>    13.8163    37.9383  1174.8459 </r>
       <r>    13.9524    32.5308  1179.2739 </r>
       <r>    14.0885    31.1073  1183.5081 </r>
       <r>    14.2246    21.9172  1186.4913 </r>
       <r>    14.3607    37.3094  1191.5697 </r>
       <r>    14.4968    46.1254  1197.8481 </r>
       <r>    14.6330    28.4951  1201.7268 </r>
       <r>    14.7691    24.9104  1205.1175 </r>
       <r>    14.9052    33.6263  1209.6945 </r>
       <r>    15.0413    23.7975  1212.9338 </r>
       <r>    15.1774    22.0938  1215.9411 </r>
       <r>    15.3135    23.1404  1219.0908 </r>
       <r>    15.4497    20.6443  1221.9008 </r>
       <r>    15.5858    11.4838  1223.4640 </r>
       <r>    15.7219    29.3182  1227.4546 </r>
       <r>    15.8580    20.3403  1230.2233 </r>
       <r>    15.9941    19.6959  1232.9042 </r>
       <r>    16.1302    21.0128  1235.7644 </r>
       <r>    16.2663     3.6434  1236.2603 </r>
       <r>    16.4025    20.7836  1239.0893 </r>
       <r>    16.5386    20.0767  1241.8220 </r>
       <r>    16.6747    15.4907  1243.9305 </r>
       <r>    16.8108     1.2366  1244.0988 </r>
       <r>    16.9469    13.7628  1245.9722 </r>
       <r>    17.0830     5.0685  1246.6621 </r>
       <r>    17.2192     9.8246  1247.9994 </r>
       <r>    17.3553     1.1914  1248.1615 </r>
       <r>    17.4914    13.4018  1249.9857 </r>
       <r>    17.6275     0.1050  1250.0000 </r>
       <r>    17.7636     0.0000  1250.0000 </r>
       <r>    17.8997     0.0000  1250.0000 </r>
       <r>    18.0359     0.0000  1250.0000 </r>
       <r>    18.1720     0.0000  1250.0000 </r>
       <r>    18.3081     0.0000  1250.0000 </r>
       <r>    18.4442     0.0000  1250.0000 </r>
       <r>    18.5803     0.0000  1250.0000 </r>
       <r>    18.7164     0.0000  1250.0000 </r>
       <r>    18.8525     0.0000  1250.0000 </r>
       <r>    18.9887     0.0000  1250.0000 </r>
       <r>    19.1248     0.0000  1250.0000 </r>
       <r>    19.2609     0.0000  1250.0000 </r>
      </set>
     </set>
    </array>
   </total>
  </dos>
 </calculation>
 <structure name="finalpos" >
  <crystal>
   <varray name="basis" >
    <v>       0.00000000      12.28047342       0.00000000 </v>
    <v>       9.14270205       0.00000000       0.00000000 </v>
    <v>       0.00000000      -2.76826177     -11.30069772 </v>
   </varray>
   <i name="volume">   1268.80515525 </i>
   <varray name="rec_basis" >
    <v>       0.00000000       0.08143009      -0.01994742 </v>
    <v>       0.10937686      -0.00000000       0.00000000 </v>
    <v>       0.00000000       0.00000000      -0.08849011 </v>
   </varray>
  </crystal>
  <varray name="positions" >
   <v>       0.65763608       0.00000000       0.15600516 </v>
   <v>       0.66021686       0.00000000       0.65726015 </v>
   <v>       0.65933239       0.33334081       0.15816452 </v>
   <v>       0.66031463       0.33379810       0.65692019 </v>
   <v>       0.65933239       0.66665919       0.15816452 </v>
   <v>       0.66031463       0.66620190       0.65692019 </v>
   <v>       0.83940566       0.16361902       0.34246673 </v>
   <v>       0.84018474       0.16674759       0.84449979 </v>
   <v>       0.84419980       0.50000000       0.34362777 </v>
   <v>       0.84089069       0.50000000       0.84364127 </v>
   <v>       0.83940566       0.83638098       0.34246673 </v>
   <v>       0.84018474       0.83325241       0.84449979 </v>
   <v>       0.59137682       0.16712874       0.39899909 </v>
   <v>       0.59198566       0.16724688       0.89860966 </v>
   <v>       0.59043718       0.50000000       0.39794452 </v>
   <v>       0.59256914       0.50000000       0.89893195 </v>
   <v>       0.59137682       0.83287126       0.39899909 </v>
   <v>       0.59198566       0.83275312       0.89860966 </v>
   <v>       0.90952164       0.00000000       0.10328539 </v>
   <v>       0.90724405       0.00000000       0.60344700 </v>
   <v>       0.90813525       0.33403471       0.10130837 </v>
   <v>       0.91077204       0.33300003       0.60474499 </v>
   <v>       0.90813525       0.66596529       0.10130837 </v>
   <v>       0.91077204       0.66699997       0.60474499 </v>
   <v>       0.15748914       0.17079275       0.15547415 </v>
   <v>       0.15958409       0.16143484       0.66088603 </v>
   <v>       0.15883241       0.50000000       0.15635316 </v>
   <v>       0.15995469       0.50000000       0.65711922 </v>
   <v>       0.15748914       0.82920725       0.15547415 </v>
   <v>       0.15958409       0.83856516       0.66088603 </v>
   <v>       0.34291439       0.00000000       0.34667124 </v>
   <v>       0.34303987       0.00000000       0.84779591 </v>
   <v>       0.34003355       0.33324114       0.34545886 </v>
   <v>       0.34139137       0.33331384       0.84525184 </v>
   <v>       0.34003355       0.66675886       0.34545886 </v>
   <v>       0.34139137       0.66668616       0.84525184 </v>
   <v>       0.08939873       0.00000000       0.90274408 </v>
   <v>       0.09272651       0.32925330       0.39922813 </v>
   <v>       0.09144875       0.33356020       0.89720608 </v>
   <v>       0.09272651       0.67074670       0.39922813 </v>
   <v>       0.09144875       0.66643980       0.89720608 </v>
   <v>       0.40829930       0.16701880       0.10547581 </v>
   <v>       0.41102433       0.16695563       0.60454155 </v>
   <v>       0.40808103       0.50000000       0.10361028 </v>
   <v>       0.40912260       0.50000000       0.60341126 </v>
   <v>       0.40829930       0.83298120       0.10547581 </v>
   <v>       0.41102433       0.83304437       0.60454155 </v>
   <v>       0.99623522       0.16771930       0.12882375 </v>
   <v>       0.99671147       0.16452361       0.62723186 </v>
   <v>       0.99668361       0.50000000       0.12667719 </v>
   <v>       0.99802020       0.50000000       0.62888524 </v>
   <v>       0.99623522       0.83228070       0.12882375 </v>
   <v>       0.99671147       0.83547639       0.62723186 </v>
   <v>       0.50407605       0.00000000       0.37434639 </v>
   <v>       0.50480769       0.00000000       0.87486403 </v>
   <v>       0.50225517       0.33311111       0.37378765 </v>
   <v>       0.50387996       0.33381606       0.87364021 </v>
   <v>       0.50225517       0.66688889       0.37378765 </v>
   <v>       0.50387996       0.66618394       0.87364021 </v>
   <v>       0.67268329       0.16728453       0.28158098 </v>
   <v>       0.67260620       0.16702577       0.78065568 </v>
   <v>       0.67576080       0.50000000       0.28355402 </v>
   <v>       0.67279859       0.50000000       0.78026879 </v>
   <v>       0.67268329       0.83271547       0.28158098 </v>
   <v>       0.67260620       0.83297423       0.78065568 </v>
   <v>       0.82766684       0.00000000       0.22072606 </v>
   <v>       0.82741439       0.00000000       0.72124924 </v>
   <v>       0.83054577       0.33077062       0.22186275 </v>
   <v>       0.82827536       0.33337308       0.72038515 </v>
   <v>       0.83054577       0.66922938       0.22186275 </v>
   <v>       0.82827536       0.66662692       0.72038515 </v>
   <v>       0.83209668       0.00000000       0.44602855 </v>
   <v>       0.83189406       0.00000000       0.94723362 </v>
   <v>       0.84307303       0.33008882       0.44537138 </v>
   <v>       0.83007242       0.33377961       0.94585196 </v>
   <v>       0.84307303       0.66991118       0.44537138 </v>
   <v>       0.83007242       0.66622039       0.94585196 </v>
   <v>       0.66859397       0.16709162       0.05560314 </v>
   <v>       0.67046589       0.16717571       0.55464210 </v>
   <v>       0.66940757       0.50000000       0.05639712 </v>
   <v>       0.67107792       0.50000000       0.55349376 </v>
   <v>       0.66859397       0.83290838       0.05560314 </v>
   <v>       0.67046589       0.83282429       0.55464210 </v>
   <v>       0.49588408       0.00000000       0.13001602 </v>
   <v>       0.49827560       0.00000000       0.62693263 </v>
   <v>       0.49643380       0.33357696       0.13030881 </v>
   <v>       0.49760454       0.33404732       0.62683846 </v>
   <v>       0.49643380       0.66642304       0.13030881 </v>
   <v>       0.49760454       0.66595268       0.62683846 </v>
   <v>       0.01663158       0.14097986       0.37328524 </v>
   <v>       0.00290442       0.16732666       0.87489465 </v>
   <v>       0.00721609       0.50000000       0.37254786 </v>
   <v>       0.00351865       0.50000000       0.87352342 </v>
   <v>       0.01663158       0.85902014       0.37328524 </v>
   <v>       0.00290442       0.83267334       0.87489465 </v>
   <v>       0.16107915       0.00000000       0.28825159 </v>
   <v>       0.17473580       0.00000000       0.78975581 </v>
   <v>       0.17131072       0.33169215       0.28051219 </v>
   <v>       0.17325143       0.33189153       0.78060817 </v>
   <v>       0.17131072       0.66830785       0.28051219 </v>
   <v>       0.17325143       0.66810847       0.78060817 </v>
   <v>       0.32424172       0.16314817       0.22220160 </v>
   <v>       0.32865981       0.16369943       0.72063813 </v>
   <v>       0.32616042       0.50000000       0.22112838 </v>
   <v>       0.32697095       0.50000000       0.71983063 </v>
   <v>       0.32424172       0.83685183       0.22220160 </v>
   <v>       0.32865981       0.83630057       0.72063813 </v>
   <v>       0.33096609       0.16538375       0.44828482 </v>
   <v>       0.33296359       0.16750080       0.94846836 </v>
   <v>       0.32945969       0.50000000       0.44722426 </v>
   <v>       0.33174887       0.50000000       0.94677078 </v>
   <v>       0.33096609       0.83461625       0.44828482 </v>
   <v>       0.33296359       0.83249920       0.94846836 </v>
   <v>       0.16622802       0.00000000       0.06007683 </v>
   <v>       0.16916616       0.33412378       0.05390004 </v>
   <v>       0.16663412       0.32936904       0.55534147 </v>
   <v>       0.16916616       0.66587622       0.05390004 </v>
   <v>       0.16663412       0.67063096       0.55534147 </v>
   <v>       0.10314475       0.00000000       0.40306771 </v>
  </varray>
 </structure>
</modeling>
