 running    4 mpi-ranks, on    1 nodes
 distrk:  each k-point on    1 cores,    4 groups
 distr:  one band on    1 cores,    1 groups
 OpenACC runtime initialized ...    4 GPUs detected
 vasp.6.4.2 20Jul23 (build Nov 12 2023 22:16:35) complex                         
 POSCAR found type information on POSCAR GaO P 
 POSCAR found :  3 types and     119 ions
 scaLAPACK will be used selectively (only on CPU)
 LDA part: xc-table for Pade appr. of Perdew
 POSCAR, INCAR and KPOINTS ok, starting setup
 FFT: planning ... GRIDC
 FFT: planning ... GRID_SOFT
 FFT: planning ... GRID
 WAVECAR not read
 initial charge from wavefunction
 entering main loop
       N       E                     dE             d eps       ncg     rms          ort
DAV:   1    -0.210962716304E+05   -0.21096E+05   -0.54939E+05  5064   0.757E+03
DAV:   2    -0.677892337310E+05   -0.46693E+05   -0.44779E+05  5064   0.129E+03
DAV:   3    -0.743064962628E+05   -0.65173E+04   -0.59813E+04  5064   0.413E+02
DAV:   4    -0.753301093279E+05   -0.10236E+04   -0.95097E+03  5064   0.143E+02
DAV:   5    -0.429019573667E+05    0.32428E+05   -0.75003E+02  5064   0.638E+01
 gam= 0.000 g(H,U,f)=  0.943E+05 0.960E+04 0.438E-46 ort(H,U,f) = 0.000E+00 0.000E+00 0.000E+00
SDA:   6     0.473025030654E+05    0.90204E+05   -0.75003E+02  5064   0.104E+06 0.000E+00
 gam= 0.000 trial= 0.400  step= 1.952 mean= 0.400
 gam= 3.320 g(H,U,f)=  0.323E+06 0.979E+04 0.116E+05 ort(H,U,f) =-0.189E+05-0.426E+04-0.488E+04
CGA:   7     0.526405815408E+05    0.53381E+04   -0.10136E+06  5064   0.345E+06-0.280E+05
 gam= 3.320 trial= 0.478  step= 0.267 mean= 0.478
 gam= 1.462 g(H,U,f)=  0.496E+06 0.866E+04 0.808E+01 ort(H,U,f) = 0.297E+05-0.206E+04-0.110E+03
CGA:   8     0.514660944281E+05   -0.11745E+04   -0.33672E+05  5064   0.504E+06 0.275E+05
 gam= 1.462 trial= 0.467  step= 0.248 mean= 0.467
 gam= 0.665 g(H,U,f)=  0.331E+06 0.444E+04 0.192E-05 ort(H,U,f) =-0.215E+05-0.385E+04-0.223E-04
CGA:   9     0.455242696451E+05   -0.59418E+04   -0.67484E+05  5064   0.335E+06-0.254E+05
 gam= 0.665 trial= 0.456  step= 0.239 mean= 0.456
 gam= 1.900 g(H,U,f)=  0.632E+06 0.536E+04 0.126E+02 ort(H,U,f) = 0.387E+05 0.178E+04-0.246E+02
CGA:  10     0.492022758362E+05    0.36780E+04   -0.38056E+05  5064   0.637E+06 0.405E+05
 gam= 1.900 trial= 0.445  step= 0.226 mean= 0.445
 gam= 1.140 g(H,U,f)=  0.721E+06 0.576E+04 0.128E+03 ort(H,U,f) =-0.336E+05 0.414E+04 0.167E+03
CGA:  11     0.538036067107E+05    0.46013E+04   -0.80678E+05  5064   0.726E+06-0.293E+05
 gam= 1.140 trial= 0.434  step= 0.208 mean= 0.434
 gam= 1.747 g(H,U,f)=  0.125E+07 0.193E+05 0.930E-01 ort(H,U,f) =-0.309E+04 0.255E+05 0.124E+01
CGA:  12     0.768411704747E+05    0.23038E+05   -0.71981E+05  5064   0.127E+07 0.224E+05
 gam= 1.747 trial= 0.423  step= 0.213 mean= 0.423
 gam= 0.802 g(H,U,f)=  0.100E+07 0.147E+05 0.625E-01 ort(H,U,f) =-0.264E+04 0.481E+05-0.400E+01
CGA:  13     0.802148674819E+05    0.33737E+04   -0.13949E+06  5064   0.102E+07 0.455E+05
 gam= 0.802 trial= 0.412  step= 0.207 mean= 0.412
 gam= 1.101 g(H,U,f)=  0.111E+07 0.966E+04 0.203E+00 ort(H,U,f) =-0.751E+04 0.360E+05-0.185E-01
CGA:  14     0.840377110484E+05    0.38228E+04   -0.10940E+06  5064   0.112E+07 0.285E+05
 gam= 1.101 trial= 0.402  step= 0.198 mean= 0.402
 gam= 0.867 g(H,U,f)=  0.967E+06 0.527E+04 0.102E-08 ort(H,U,f) =-0.632E+04 0.122E+05-0.126E-07
CGA:  15     0.929677296999E+05    0.89300E+04   -0.11418E+06  5064   0.972E+06 0.587E+04
 gam= 0.867 trial= 0.392  step= 0.193 mean= 0.392
 gam= 1.186 g(H,U,f)=  0.115E+07 0.536E+04 0.341E+00 ort(H,U,f) =-0.109E+05-0.515E+02-0.162E+01
CGA:  16     0.101484443501E+06    0.85167E+04   -0.94275E+05  5064   0.115E+07-0.109E+05
 gam= 1.186 trial= 0.382  step= 0.185 mean= 0.382
 gam= 0.755 g(H,U,f)=  0.864E+06 0.561E+04 0.131E+03 ort(H,U,f) =-0.616E+04-0.362E+04-0.107E+04
CGA:  17     0.115994769717E+06    0.14510E+05   -0.10559E+06  5064   0.870E+06-0.108E+05
 gam= 0.755 trial= 0.372  step= 0.184 mean= 0.372
 gam= 1.331 g(H,U,f)=  0.115E+07 0.607E+04 0.116E+01 ort(H,U,f) =-0.139E+05 0.615E+03-0.110E+01
CGA:  18     0.123031144238E+06    0.70364E+04   -0.79268E+05  5064   0.116E+07-0.133E+05
 gam= 1.331 trial= 0.363  step= 0.175 mean= 0.363
 gam= 0.562 g(H,U,f)=  0.644E+06 0.643E+04 0.172E-07 ort(H,U,f) =-0.413E+04-0.150E+04-0.191E-07
CGA:  19     0.138038385920E+06    0.15007E+05   -0.99769E+05  5064   0.651E+06-0.563E+04
 gam= 0.562 trial= 0.353  step= 0.178 mean= 0.353
 gam= 1.703 g(H,U,f)=  0.110E+07 0.887E+04 0.353E+00 ort(H,U,f) =-0.197E+05 0.487E+04-0.112E+01
CGA:  20     0.142434665786E+06    0.43963E+04   -0.57614E+05  5064   0.111E+07-0.149E+05
 gam= 1.703 trial= 0.345  step= 0.165 mean= 0.345
 gam= 0.390 g(H,U,f)=  0.424E+06 0.778E+04 0.186E+01 ort(H,U,f) =-0.384E+02 0.605E+04-0.966E+01
CGA:  21     0.157815855337E+06    0.15381E+05   -0.89567E+05  5064   0.432E+06 0.600E+04
 gam= 0.390 trial= 0.336  step= 0.174 mean= 0.336
 gam= 2.077 g(H,U,f)=  0.887E+06 0.943E+04 0.659E+01 ort(H,U,f) = 0.246E+05 0.778E+04-0.343E+01
CGA:  22     0.160638952245E+06    0.28231E+04   -0.37868E+05  5064   0.897E+06 0.324E+05
 gam= 2.077 trial= 0.328  step= 0.158 mean= 0.328
 gam= 0.573 g(H,U,f)=  0.507E+06 0.702E+04 0.204E+02 ort(H,U,f) =-0.227E+04 0.174E+05-0.150E+02
CGA:  23     0.173957855459E+06    0.13319E+05   -0.75942E+05  5064   0.514E+06 0.151E+05
 gam= 0.573 trial= 0.319  step= 0.162 mean= 0.319
 gam= 1.298 g(H,U,f)=  0.660E+06 0.658E+04 0.158E+02 ort(H,U,f) =-0.164E+05 0.592E+04-0.958E+02
CGA:  24     0.178553678784E+06    0.45958E+04   -0.42425E+05  5064   0.667E+06-0.105E+05
 gam= 1.298 trial= 0.311  step= 0.143 mean= 0.311
 gam= 0.545 g(H,U,f)=  0.356E+06 0.744E+04 0.667E+02 ort(H,U,f) =-0.167E+04-0.132E+05 0.352E+02
CGA:  25     0.191713614422E+06    0.13160E+05   -0.46636E+05  5064   0.364E+06-0.148E+05
 gam= 0.545 trial= 0.303  step= 0.153 mean= 0.303
 gam= 1.755 g(H,U,f)=  0.627E+06 0.117E+05 0.520E-02 ort(H,U,f) = 0.126E+06-0.571E+04 0.369E+00
CGA:  26     0.191509283486E+06   -0.20433E+03   -0.27258E+05  5064   0.638E+06 0.121E+06
 gam= 1.755 trial= 0.295  step= 0.141 mean= 0.295
 gam= 1.060 g(H,U,f)=  0.661E+06 0.153E+05 0.277E+02 ort(H,U,f) =-0.308E+05-0.308E+05-0.365E+03
CGA:  27     0.204757649189E+06    0.13248E+05   -0.59777E+05  5064   0.676E+06-0.619E+05
 gam= 1.060 trial= 0.288  step= 0.124 mean= 0.288
 gam= 0.312 g(H,U,f)=  0.195E+06 0.155E+05 0.184E+03 ort(H,U,f) = 0.688E+04-0.326E+05-0.579E+03
CGA:  28     0.225166435687E+06    0.20409E+05   -0.38022E+05  5064   0.211E+06-0.263E+05
 gam= 0.312 trial= 0.279  step= 0.220 mean= 0.279
 gam= 0.000 g(H,U,f)=  0.686E+06 0.304E+05 0.106E+03 ort(H,U,f) =-0.221E+06-0.417E+03-0.181E+03
CGA:  29     0.189066731616E+06   -0.36100E+05   -0.22274E+05  5064   0.717E+06-0.221E+06
 gam= 0.000 trial= 0.276  step= 0.263 mean= 0.276
 gam= 0.290 g(H,U,f)=  0.194E+06 0.137E+05 0.188E+01 ort(H,U,f) = 0.599E+05 0.145E+05-0.475E+01
CGA:  30     0.967004418848E+05   -0.92366E+05   -0.94063E+05  5064   0.208E+06 0.744E+05
 gam= 0.290 trial= 0.276  step= 0.369 mean= 0.276
 gam= 0.191 g(H,U,f)=  0.361E+05 0.349E+04 0.101E+02 ort(H,U,f) = 0.317E+05 0.334E+04 0.371E+02
CGA:  31     0.520323224888E+05   -0.44668E+05   -0.42226E+05  5064   0.396E+05 0.351E+05
 gam= 0.191 trial= 0.280  step= 0.965 mean= 0.280
 gam= 0.260 g(H,U,f)=  0.745E+04 0.282E+04 0.573E+01 ort(H,U,f) = 0.523E+04 0.242E+04 0.322E+01
CGA:  32     0.297646131211E+05   -0.22268E+05   -0.22309E+05  5064   0.103E+05 0.766E+04
 gam= 0.260 trial= 0.315  step= 2.328 mean= 0.315
 gam= 0.260 trial= 2.045  step= 2.045 mean= 0.496
 gam= 0.000 g(H,U,f)=  0.242E+05 0.133E+05 0.660E+02 ort(H,U,f) = 0.388E+03-0.103E+05-0.305E+02
CGA:  33     0.283898706158E+05   -0.13747E+04   -0.22414E+04  5064   0.376E+05-0.990E+04
 gam= 0.000 trial= 0.574  step= 0.754 mean= 0.574
 gam= 0.203 g(H,U,f)=  0.338E+04 0.424E+04 0.525E+01 ort(H,U,f) =-0.252E+04-0.984E+04-0.839E+01
CGA:  34     0.157940066070E+05   -0.12596E+05   -0.14152E+05  5064   0.762E+04-0.124E+05
 gam= 0.203 trial= 0.583  step= 3.566 mean= 0.583
 gam= 0.203 trial= 3.789  step= 3.789 mean= 0.920
 gam= 8.252 g(H,U,f)=  0.233E+05 0.392E+05 0.348E+03 ort(H,U,f) =-0.959E+03-0.245E+04-0.128E+02
CGA:  35     0.480517268401E+05    0.32258E+05    0.66979E+04  5064   0.629E+05-0.342E+04
 gam= 8.252 trial= 1.063  step= 0.977 mean= 1.063
 gam= 0.377 g(H,U,f)=  0.163E+05 0.735E+04 0.873E+02 ort(H,U,f) = 0.588E+04 0.229E+04 0.436E+02
CGA:  36     0.318142066610E+05   -0.16238E+05   -0.16929E+05  5064   0.237E+05 0.821E+04
 gam= 0.377 trial= 1.059  step= 1.099 mean= 1.059
 gam= 0.371 g(H,U,f)=  0.634E+04 0.245E+04 0.322E+00 ort(H,U,f) =-0.321E+04 0.627E+03-0.218E+01
CGA:  37     0.171919228677E+05   -0.14622E+05   -0.14722E+05  5064   0.879E+04-0.259E+04
 gam= 0.371 trial= 1.061  step= 0.967 mean= 1.061
 gam= 1.031 g(H,U,f)=  0.415E+04 0.491E+04 0.114E+02 ort(H,U,f) = 0.157E+04-0.168E+04-0.532E+01
CGA:  38     0.134239981226E+05   -0.37679E+04   -0.37894E+04  5064   0.907E+04-0.110E+03
 gam= 1.031 trial= 1.056  step= 1.006 mean= 1.056
 gam= 1.184 g(H,U,f)=  0.229E+04 0.842E+04 0.272E+02 ort(H,U,f) = 0.108E+04-0.295E+03 0.424E+02
CGA:  39     0.897253577223E+04   -0.44515E+04   -0.45051E+04  5064   0.107E+05 0.828E+03
 gam= 1.184 trial= 1.054  step= 0.559 mean= 1.054
 gam= 0.155 g(H,U,f)=  0.898E+03 0.765E+03 0.777E+00 ort(H,U,f) = 0.430E+03-0.143E+04-0.104E+00
CGA:  40     0.739483539374E+04   -0.15777E+04   -0.32776E+04  5064   0.166E+04-0.100E+04
 gam= 0.155 trial= 1.029  step= 3.481 mean= 1.029
 gam= 0.000 g(H,U,f)=  0.325E+04 0.246E+05 0.390E+02 ort(H,U,f) =-0.286E+03-0.195E+05-0.759E+01
CGA:  41     0.158211920568E+05    0.84264E+04   -0.26263E+04  5064   0.279E+05-0.198E+05
 gam= 0.000 trial= 1.152  step= 0.642 mean= 1.152
 gam= 0.369 g(H,U,f)=  0.107E+04 0.923E+04 0.133E+02 ort(H,U,f) =-0.306E+03-0.448E+04-0.305E+01
CGA:  42     0.536332331091E+04   -0.10458E+05   -0.89646E+04  5064   0.103E+05-0.479E+04
 gam= 0.369 trial= 1.126  step= 0.626 mean= 1.126
 gam= 0.179 g(H,U,f)=  0.386E+03 0.146E+04 0.185E+01 ort(H,U,f) = 0.346E+03 0.104E+04 0.255E+01
CGA:  43     0.283752789639E+04   -0.25258E+04   -0.26752E+04  5064   0.184E+04 0.139E+04
 gam= 0.179 trial= 1.101  step= 0.910 mean= 1.101
 gam= 1.037 g(H,U,f)=  0.384E+03 0.152E+04 0.543E+01 ort(H,U,f) = 0.272E+03-0.237E+03-0.244E+01
CGA:  44     0.186570984224E+04   -0.97182E+03   -0.95232E+03  5064   0.191E+04 0.328E+02
 gam= 1.037 trial= 1.092  step= 0.231 mean= 1.092
 gam= 0.000 g(H,U,f)=  0.351E+03 0.823E+03 0.833E+01 ort(H,U,f) = 0.622E+03 0.733E+03 0.686E+01
CGA:  45     0.148553924118E+04   -0.38017E+03   -0.22466E+03  5064   0.118E+04 0.136E+04
 gam= 0.000 trial= 1.049  step= 0.727 mean= 1.049
 gam= 0.390 g(H,U,f)=  0.288E+03 0.173E+03 0.467E+00 ort(H,U,f) = 0.242E+03-0.151E+03-0.106E+01
CGA:  46     0.107993330326E+04   -0.40561E+03   -0.42948E+03  5064   0.461E+03 0.896E+02
 gam= 0.390 trial= 1.032  step= 3.263 mean= 1.032
 gam= 0.000 g(H,U,f)=  0.785E+03 0.574E+05 0.375E+03 ort(H,U,f) = 0.835E+02-0.486E+04-0.317E+02
CGA:  47     0.561726792649E+04    0.45373E+04   -0.80995E+03  5064   0.586E+05-0.481E+04
 gam= 0.000 trial= 1.144  step= 0.541 mean= 1.144
 gam= 0.859 g(H,U,f)=  0.784E+03 0.491E+05 0.405E+03 ort(H,U,f) =-0.429E+03-0.690E+04-0.128E+03
CGA:  48     0.228474870008E+04   -0.33325E+04   -0.15833E+05  5064   0.503E+05-0.746E+04
 gam= 0.859 trial= 1.114  step= 0.558 mean= 1.114
 gam= 0.043 g(H,U,f)=  0.258E+03 0.184E+04 0.384E+02 ort(H,U,f) = 0.337E+02-0.874E+03-0.124E+02
CGA:  49     0.429433083244E+03   -0.18553E+04   -0.12235E+05  5064   0.214E+04-0.852E+03
 gam= 0.043 trial= 1.086  step= 0.656 mean= 1.086
 gam= 0.151 g(H,U,f)=  0.149E+03 0.168E+03 0.534E+01 ort(H,U,f) = 0.137E+03 0.424E+02 0.109E+01
CGA:  50    -0.832535292709E+02   -0.51269E+03   -0.69019E+03  5064   0.323E+03 0.181E+03
 gam= 0.151 trial= 1.065  step= 1.391 mean= 1.065
 gam= 0.524 g(H,U,f)=  0.940E+02 0.739E+02 0.976E+00 ort(H,U,f) = 0.105E+03-0.962E+02-0.940E+00
CGA:  51    -0.333784208739E+03   -0.25053E+03   -0.24321E+03  5064   0.169E+03 0.790E+01
 gam= 0.524 trial= 1.081  step= 0.065 mean= 1.081
 gam= 0.000 g(H,U,f)=  0.100E+03 0.697E+02 0.732E+00 ort(H,U,f) = 0.147E+03 0.191E+02 0.342E+00
CGA:  52    -0.344591411081E+03   -0.10807E+02   -0.56162E+01  5064   0.170E+03 0.166E+03
 gam= 0.000 trial= 1.030  step= 1.670 mean= 1.030
 gam= 0.843 g(H,U,f)=  0.791E+02 0.609E+02 0.371E+01 ort(H,U,f) = 0.707E+02-0.444E+02-0.274E+01
CGA:  53    -0.500949599636E+03   -0.15636E+03   -0.14235E+03  5064   0.144E+03 0.236E+02
 gam= 0.843 trial= 1.062  step= 2.342 mean= 1.062
 gam= 0.635 g(H,U,f)=  0.365E+02 0.542E+02 0.526E+00 ort(H,U,f) = 0.437E+02-0.225E+02-0.194E+00
CGA:  54    -0.708691075138E+03   -0.20774E+03   -0.19151E+03  5064   0.912E+02 0.210E+02
 gam= 0.635 trial= 1.126  step= 1.616 mean= 1.126
 gam= 0.355 g(H,U,f)=  0.263E+02 0.610E+01 0.255E-01 ort(H,U,f) = 0.168E+02-0.686E+01-0.675E-01
CGA:  55    -0.796560894605E+03   -0.87870E+02   -0.84484E+02  5064   0.324E+02 0.988E+01
 gam= 0.355 trial= 1.151  step= 2.382 mean= 1.151
 gam= 0.561 g(H,U,f)=  0.862E+01 0.953E+01 0.698E-02 ort(H,U,f) = 0.602E+01-0.461E+01-0.152E-01
CGA:  56    -0.840312827335E+03   -0.43752E+02   -0.42745E+02  5064   0.182E+02 0.140E+01
 gam= 0.561 trial= 1.212  step= 1.631 mean= 1.212
 gam= 0.518 g(H,U,f)=  0.613E+01 0.314E+01 0.142E+00 ort(H,U,f) = 0.265E+01-0.164E+01-0.656E-01
CGA:  57    -0.855999548051E+03   -0.15687E+02   -0.15443E+02  5064   0.941E+01 0.937E+00
 gam= 0.518 trial= 1.233  step= 1.738 mean= 1.233
 gam= 0.624 g(H,U,f)=  0.296E+01 0.286E+01 0.427E-01 ort(H,U,f) = 0.190E+01-0.193E+01-0.377E-01
CGA:  58    -0.864466596663E+03   -0.84670E+01   -0.86009E+01  5064   0.587E+01-0.732E-01
 gam= 0.624 trial= 1.258  step= 1.499 mean= 1.258
 gam= 0.307 g(H,U,f)=  0.117E+01 0.633E+00 0.153E-02 ort(H,U,f) = 0.180E+00-0.550E+00-0.315E-03
CGA:  59    -0.868754619136E+03   -0.42880E+01   -0.43635E+01  5064   0.180E+01-0.370E+00
 gam= 0.307 trial= 1.270  step= 1.909 mean= 1.270
 gam= 0.608 g(H,U,f)=  0.599E+00 0.477E+00 0.189E-01 ort(H,U,f) = 0.161E+00-0.138E+00-0.979E-02
CGA:  60    -0.870372087714E+03   -0.16175E+01   -0.16105E+01  5064   0.110E+01 0.126E-01
 gam= 0.608 trial= 1.302  step= 1.343 mean= 1.302
 gam= 0.401 g(H,U,f)=  0.272E+00 0.163E+00 0.469E-02 ort(H,U,f) = 0.167E+00-0.150E+00-0.345E-02
CGA:  61    -0.871113372460E+03   -0.74128E+00   -0.74073E+00  5064   0.439E+00 0.141E-01
 gam= 0.401 trial= 1.304  step= 1.523 mean= 1.304
 gam= 0.420 g(H,U,f)=  0.104E+00 0.776E-01 0.337E-02 ort(H,U,f) = 0.604E-01-0.640E-01-0.598E-02
CGA:  62    -0.871450672053E+03   -0.33730E+00   -0.33899E+00  5064   0.185E+00-0.967E-02
 gam= 0.420 trial= 1.315  step= 1.840 mean= 1.315
 gam= 0.531 g(H,U,f)=  0.649E-01 0.329E-01 0.304E-03 ort(H,U,f) = 0.159E-01-0.161E-01-0.219E-03
CGA:  63    -0.871616743371E+03   -0.16607E+00   -0.16621E+00  5064   0.982E-01-0.413E-03
 gam= 0.531 trial= 1.341  step= 1.794 mean= 1.341
 gam= 0.414 g(H,U,f)=  0.267E-01 0.136E-01 0.271E-03 ort(H,U,f) = 0.102E-01-0.108E-01 0.183E-03
CGA:  64    -0.871704472572E+03   -0.87729E-01   -0.87855E-01  5064   0.406E-01-0.412E-03
 gam= 0.414 trial= 1.364  step= 1.623 mean= 1.364
 gam= 0.527 g(H,U,f)=  0.131E-01 0.779E-02 0.471E-03 ort(H,U,f) = 0.507E-02-0.474E-02-0.477E-03
CGA:  65    -0.871737258835E+03   -0.32786E-01   -0.32821E-01  5064   0.214E-01-0.156E-03
 gam= 0.527 trial= 1.377  step= 1.561 mean= 1.377
 gam= 0.556 g(H,U,f)=  0.622E-02 0.533E-02 0.337E-03 ort(H,U,f) = 0.299E-02-0.285E-02-0.198E-03
CGA:  66    -0.871753877788E+03   -0.16619E-01   -0.16628E-01  5064   0.119E-01-0.655E-04
 gam= 0.556 trial= 1.386  step= 1.387 mean= 1.386
 gam= 0.328 g(H,U,f)=  0.270E-02 0.117E-02 0.282E-04 ort(H,U,f) = 0.915E-03-0.864E-03-0.655E-04
CGA:  67    -0.871762096942E+03   -0.82192E-02   -0.82192E-02  5064   0.390E-02-0.151E-04
 gam= 0.328 trial= 1.386  step= 1.916 mean= 1.386
 gam= 0.579 g(H,U,f)=  0.149E-02 0.769E-03 0.238E-06 ort(H,U,f) = 0.601E-03-0.603E-03-0.395E-06
CGA:  68    -0.871765828904E+03   -0.37320E-02   -0.37332E-02  5064   0.226E-02-0.258E-05
 gam= 0.579 trial= 1.413  step= 1.950 mean= 1.413
 gam= 0.506 g(H,U,f)=  0.688E-03 0.447E-03 0.674E-05 ort(H,U,f) = 0.208E-03-0.208E-03-0.155E-05
CGA:  69    -0.871768027448E+03   -0.21985E-02   -0.21992E-02  5064   0.114E-02-0.745E-06
 gam= 0.506 trial= 1.440  step= 1.527 mean= 1.440
 gam= 0.441 g(H,U,f)=  0.316E-03 0.177E-03 0.987E-05 ort(H,U,f) = 0.112E-03-0.110E-03-0.699E-05
CGA:  70    -0.871768898044E+03   -0.87060E-03   -0.87086E-03  5064   0.503E-03-0.511E-05
 gam= 0.441 trial= 1.444  step= 1.576 mean= 1.444
 gam= 0.517 g(H,U,f)=  0.149E-03 0.105E-03 0.604E-05 ort(H,U,f) = 0.651E-04-0.649E-04-0.536E-05
CGA:  71    -0.871769292349E+03   -0.39430E-03   -0.39467E-03  5064   0.260E-03-0.511E-05
 gam= 0.517 trial= 1.451  step= 1.502 mean= 1.451
 gam= 0.455 g(H,U,f)=  0.713E-04 0.455E-04 0.157E-05 ort(H,U,f) = 0.375E-04-0.368E-04-0.166E-05
CGA:  72    -0.871769485583E+03   -0.19323E-03   -0.19326E-03  5064   0.118E-03-0.885E-06
 gam= 0.455 trial= 1.453  step= 1.726 mean= 1.453
 gam= 0.454 g(H,U,f)=  0.351E-04 0.185E-04 0.168E-06 ort(H,U,f) = 0.139E-04-0.126E-04-0.265E-06
CGA:  73    -0.871769587518E+03   -0.10194E-03   -0.10180E-03  5064   0.537E-04 0.105E-05
 gam= 0.454 trial= 1.467  step= 1.903 mean= 1.467
 gam= 0.456 g(H,U,f)=  0.178E-04 0.665E-05 0.619E-08 ort(H,U,f) = 0.458E-05-0.440E-05-0.536E-08
CGA:  74    -0.871769639152E+03   -0.51633E-04   -0.51599E-04  5064   0.245E-04 0.175E-06
 gam= 0.456 trial= 1.489  step= 1.863 mean= 1.489
 gam= 0.515 g(H,U,f)=  0.771E-05 0.489E-05 0.171E-07 ort(H,U,f) = 0.218E-05-0.311E-05-0.600E-08
CGA:  75    -0.871769661856E+03   -0.22704E-04   -0.22880E-04  5064   0.126E-04-0.930E-06
 gam= 0.515 trial= 1.507  step= 1.677 mean= 1.507
 gam= 0.432 g(H,U,f)=  0.373E-05 0.168E-05 0.395E-07 ort(H,U,f) = 0.984E-06-0.131E-05-0.196E-07
CGA:  76    -0.871769672005E+03   -0.10149E-04   -0.10180E-04  5064   0.545E-05-0.348E-06
 gam= 0.432 trial= 1.516  step= 1.775 mean= 1.516
 gam= 0.502 g(H,U,f)=  0.169E-05 0.979E-06 0.689E-07 ort(H,U,f) = 0.746E-06-0.474E-06-0.412E-07
CGA:  77    -0.871769676736E+03   -0.47314E-05   -0.47017E-05  5064   0.274E-05 0.230E-06
 gam= 0.502 trial= 1.529  step= 1.535 mean= 1.529
 final diagonalization
   1 F= -.87176968E+03 E0= -.87176522E+03  d E =-.892298E-02
 writing wavefunctions
Warning: ieee_invalid is signaling
Warning: ieee_divide_by_zero is signaling
Warning: ieee_underflow is signaling
Warning: ieee_inexact is signaling
FORTRAN STOP
Warning: ieee_invalid is signaling
Warning: ieee_divide_by_zero is signaling
Warning: ieee_underflow is signaling
Warning: ieee_inexact is signaling
FORTRAN STOP
Warning: ieee_invalid is signaling
Warning: ieee_divide_by_zero is signaling
Warning: ieee_underflow is signaling
Warning: ieee_inexact is signaling
FORTRAN STOP
Warning: ieee_invalid is signaling
Warning: ieee_divide_by_zero is signaling
Warning: ieee_underflow is signaling
Warning: ieee_inexact is signaling
FORTRAN STOP
