       N       E                     dE             d eps       ncg     rms          ort
DAV:   1    -0.210962716304E+05   -0.21096E+05   -0.54939E+05  5064   0.757E+03
DAV:   2    -0.677892337310E+05   -0.46693E+05   -0.44779E+05  5064   0.129E+03
DAV:   3    -0.743064962628E+05   -0.65173E+04   -0.59813E+04  5064   0.413E+02
DAV:   4    -0.753301093279E+05   -0.10236E+04   -0.95097E+03  5064   0.143E+02
DAV:   5    -0.429019573667E+05    0.32428E+05   -0.75003E+02  5064   0.638E+01
SDA:   6     0.473025030654E+05    0.90204E+05   -0.75003E+02  5064   0.104E+06 0.000E+00
CGA:   7     0.526405815408E+05    0.53381E+04   -0.10136E+06  5064   0.345E+06-0.280E+05
CGA:   8     0.514660944281E+05   -0.11745E+04   -0.33672E+05  5064   0.504E+06 0.275E+05
CGA:   9     0.455242696451E+05   -0.59418E+04   -0.67484E+05  5064   0.335E+06-0.254E+05
CGA:  10     0.492022758362E+05    0.36780E+04   -0.38056E+05  5064   0.637E+06 0.405E+05
CGA:  11     0.538036067107E+05    0.46013E+04   -0.80678E+05  5064   0.726E+06-0.293E+05
CGA:  12     0.768411704747E+05    0.23038E+05   -0.71981E+05  5064   0.127E+07 0.224E+05
CGA:  13     0.802148674819E+05    0.33737E+04   -0.13949E+06  5064   0.102E+07 0.455E+05
CGA:  14     0.840377110484E+05    0.38228E+04   -0.10940E+06  5064   0.112E+07 0.285E+05
CGA:  15     0.929677296999E+05    0.89300E+04   -0.11418E+06  5064   0.972E+06 0.587E+04
CGA:  16     0.101484443501E+06    0.85167E+04   -0.94275E+05  5064   0.115E+07-0.109E+05
CGA:  17     0.115994769717E+06    0.14510E+05   -0.10559E+06  5064   0.870E+06-0.108E+05
CGA:  18     0.123031144238E+06    0.70364E+04   -0.79268E+05  5064   0.116E+07-0.133E+05
CGA:  19     0.138038385920E+06    0.15007E+05   -0.99769E+05  5064   0.651E+06-0.563E+04
CGA:  20     0.142434665786E+06    0.43963E+04   -0.57614E+05  5064   0.111E+07-0.149E+05
CGA:  21     0.157815855337E+06    0.15381E+05   -0.89567E+05  5064   0.432E+06 0.600E+04
CGA:  22     0.160638952245E+06    0.28231E+04   -0.37868E+05  5064   0.897E+06 0.324E+05
CGA:  23     0.173957855459E+06    0.13319E+05   -0.75942E+05  5064   0.514E+06 0.151E+05
CGA:  24     0.178553678784E+06    0.45958E+04   -0.42425E+05  5064   0.667E+06-0.105E+05
CGA:  25     0.191713614422E+06    0.13160E+05   -0.46636E+05  5064   0.364E+06-0.148E+05
CGA:  26     0.191509283486E+06   -0.20433E+03   -0.27258E+05  5064   0.638E+06 0.121E+06
CGA:  27     0.204757649189E+06    0.13248E+05   -0.59777E+05  5064   0.676E+06-0.619E+05
CGA:  28     0.225166435687E+06    0.20409E+05   -0.38022E+05  5064   0.211E+06-0.263E+05
CGA:  29     0.189066731616E+06   -0.36100E+05   -0.22274E+05  5064   0.717E+06-0.221E+06
CGA:  30     0.967004418848E+05   -0.92366E+05   -0.94063E+05  5064   0.208E+06 0.744E+05
CGA:  31     0.520323224888E+05   -0.44668E+05   -0.42226E+05  5064   0.396E+05 0.351E+05
CGA:  32     0.297646131211E+05   -0.22268E+05   -0.22309E+05  5064   0.103E+05 0.766E+04
CGA:  33     0.283898706158E+05   -0.13747E+04   -0.22414E+04  5064   0.376E+05-0.990E+04
CGA:  34     0.157940066070E+05   -0.12596E+05   -0.14152E+05  5064   0.762E+04-0.124E+05
CGA:  35     0.480517268401E+05    0.32258E+05    0.66979E+04  5064   0.629E+05-0.342E+04
CGA:  36     0.318142066610E+05   -0.16238E+05   -0.16929E+05  5064   0.237E+05 0.821E+04
CGA:  37     0.171919228677E+05   -0.14622E+05   -0.14722E+05  5064   0.879E+04-0.259E+04
CGA:  38     0.134239981226E+05   -0.37679E+04   -0.37894E+04  5064   0.907E+04-0.110E+03
CGA:  39     0.897253577223E+04   -0.44515E+04   -0.45051E+04  5064   0.107E+05 0.828E+03
CGA:  40     0.739483539374E+04   -0.15777E+04   -0.32776E+04  5064   0.166E+04-0.100E+04
CGA:  41     0.158211920568E+05    0.84264E+04   -0.26263E+04  5064   0.279E+05-0.198E+05
CGA:  42     0.536332331091E+04   -0.10458E+05   -0.89646E+04  5064   0.103E+05-0.479E+04
CGA:  43     0.283752789639E+04   -0.25258E+04   -0.26752E+04  5064   0.184E+04 0.139E+04
CGA:  44     0.186570984224E+04   -0.97182E+03   -0.95232E+03  5064   0.191E+04 0.328E+02
CGA:  45     0.148553924118E+04   -0.38017E+03   -0.22466E+03  5064   0.118E+04 0.136E+04
CGA:  46     0.107993330326E+04   -0.40561E+03   -0.42948E+03  5064   0.461E+03 0.896E+02
CGA:  47     0.561726792649E+04    0.45373E+04   -0.80995E+03  5064   0.586E+05-0.481E+04
CGA:  48     0.228474870008E+04   -0.33325E+04   -0.15833E+05  5064   0.503E+05-0.746E+04
CGA:  49     0.429433083244E+03   -0.18553E+04   -0.12235E+05  5064   0.214E+04-0.852E+03
CGA:  50    -0.832535292709E+02   -0.51269E+03   -0.69019E+03  5064   0.323E+03 0.181E+03
CGA:  51    -0.333784208739E+03   -0.25053E+03   -0.24321E+03  5064   0.169E+03 0.790E+01
CGA:  52    -0.344591411081E+03   -0.10807E+02   -0.56162E+01  5064   0.170E+03 0.166E+03
CGA:  53    -0.500949599636E+03   -0.15636E+03   -0.14235E+03  5064   0.144E+03 0.236E+02
CGA:  54    -0.708691075138E+03   -0.20774E+03   -0.19151E+03  5064   0.912E+02 0.210E+02
CGA:  55    -0.796560894605E+03   -0.87870E+02   -0.84484E+02  5064   0.324E+02 0.988E+01
CGA:  56    -0.840312827335E+03   -0.43752E+02   -0.42745E+02  5064   0.182E+02 0.140E+01
CGA:  57    -0.855999548051E+03   -0.15687E+02   -0.15443E+02  5064   0.941E+01 0.937E+00
CGA:  58    -0.864466596663E+03   -0.84670E+01   -0.86009E+01  5064   0.587E+01-0.732E-01
CGA:  59    -0.868754619136E+03   -0.42880E+01   -0.43635E+01  5064   0.180E+01-0.370E+00
CGA:  60    -0.870372087714E+03   -0.16175E+01   -0.16105E+01  5064   0.110E+01 0.126E-01
CGA:  61    -0.871113372460E+03   -0.74128E+00   -0.74073E+00  5064   0.439E+00 0.141E-01
CGA:  62    -0.871450672053E+03   -0.33730E+00   -0.33899E+00  5064   0.185E+00-0.967E-02
CGA:  63    -0.871616743371E+03   -0.16607E+00   -0.16621E+00  5064   0.982E-01-0.413E-03
CGA:  64    -0.871704472572E+03   -0.87729E-01   -0.87855E-01  5064   0.406E-01-0.412E-03
CGA:  65    -0.871737258835E+03   -0.32786E-01   -0.32821E-01  5064   0.214E-01-0.156E-03
CGA:  66    -0.871753877788E+03   -0.16619E-01   -0.16628E-01  5064   0.119E-01-0.655E-04
CGA:  67    -0.871762096942E+03   -0.82192E-02   -0.82192E-02  5064   0.390E-02-0.151E-04
CGA:  68    -0.871765828904E+03   -0.37320E-02   -0.37332E-02  5064   0.226E-02-0.258E-05
CGA:  69    -0.871768027448E+03   -0.21985E-02   -0.21992E-02  5064   0.114E-02-0.745E-06
CGA:  70    -0.871768898044E+03   -0.87060E-03   -0.87086E-03  5064   0.503E-03-0.511E-05
CGA:  71    -0.871769292349E+03   -0.39430E-03   -0.39467E-03  5064   0.260E-03-0.511E-05
CGA:  72    -0.871769485583E+03   -0.19323E-03   -0.19326E-03  5064   0.118E-03-0.885E-06
CGA:  73    -0.871769587518E+03   -0.10194E-03   -0.10180E-03  5064   0.537E-04 0.105E-05
CGA:  74    -0.871769639152E+03   -0.51633E-04   -0.51599E-04  5064   0.245E-04 0.175E-06
CGA:  75    -0.871769661856E+03   -0.22704E-04   -0.22880E-04  5064   0.126E-04-0.930E-06
CGA:  76    -0.871769672005E+03   -0.10149E-04   -0.10180E-04  5064   0.545E-05-0.348E-06
CGA:  77    -0.871769676736E+03   -0.47314E-05   -0.47017E-05  5064   0.274E-05 0.230E-06
   1 F= -.87176968E+03 E0= -.87176522E+03  d E =-.892298E-02
