 vasp.6.4.2 20Jul23 (build Nov 12 2023 22:16:35) complex                         
 executed on              LinuxNV date 2025.03.14  06:34:56
 running    4 mpi-ranks, on    1 nodes
 distrk:  each k-point on    1 cores,    4 groups
 distr:  one band on NCORE=   1 cores,    1 groups
 OpenACC runtime initialized ...    4 GPUs detected


--------------------------------------------------------------------------------------------------------


 INCAR:
   PREC = Normal
   ENCUT = 450
   NELM = 500
   IBRION = -1
   ISPIN = 1
   NSW = 0
   ISIF = 2
   EDIFF = 1E-5
   EDIFFG = -5E-3
   ISTART = 0
   ICHARG = 0
   ISMEAR = 0
   SIGMA = 0.05
   LWAVE = .T.
   LCHARG = .T.
   LREAL = Auto
   LPLANE = .TRUE.
   NPAR = 1
   KPAR = 4
   NCORE = 1
   ALGO = All
   LHFCALC = .TRUE.
   HSE06 = .TRUE.
   HFSCREEN = 0.18
   TIME = 0.4
   AEXX = 0.35
   LMAXFOCK = 4
   PRECFOCK = Fast
   NELECT = 1056

 POTCAR:    PAW_PBE Ga_d 06Jul2010                
 POTCAR:     PAW_PBE O 08Apr2002                  
 POTCAR:    PAW_PBE P 06Sep2000                   
 POTCAR:    PAW_PBE Ga_d 06Jul2010                
   SHA256 =  a60ddf36e14f00ea098d9e3914b3745f1b7105e68786148f49ae384e44b4226c Ga_d/POTCAR           
   COPYR  = (c) Copyright 06Jul2010 Georg Kresse                                                    
   COPYR  = This file is part of the software VASP. Any use, copying, and all other rights are regul
   COPYR  = If you do not have a valid VASP license, you may not use, copy or distribute this file. 
   VRHFIN =Ga: s2p1                                                                                 
   LEXCH  = PE                                                                                      
   EATOM  =  2148.8298 eV,  157.9345 Ry                                                             
                                                                                                    
   TITEL  = PAW_PBE Ga_d 06Jul2010                                                                  
   LULTRA =        F    use ultrasoft PP ?                                                          
   IUNSCR =        1    unscreen: 0-lin 1-nonlin 2-no                                               
   RPACOR =    1.700    partial core radius                                                         
   POMASS =   69.723; ZVAL   =   13.000    mass and valenz                                          
   RCORE  =    2.300    outmost cutoff radius                                                       
   RWIGS  =    2.300; RWIGS  =    1.217    wigner-seitz radius (au A)                               
   ENMAX  =  282.691; ENMIN  =  212.018 eV                                                          
   ICORE  =        3    local potential                                                             
   LCOR   =        T    correct aug charges                                                         
   LPAW   =        T    paw PP                                                                      
   EAUG   =  490.690                                                                                
   DEXC   =    0.000                                                                                
   RMAX   =    2.341    core radius for proj-oper                                                   
   RAUG   =    1.300    factor for augmentation sphere                                              
   RDEP   =    2.413    radius for radial grids                                                     
   RDEPT  =    1.856    core radius for aug-charge                                                  
                                                                                                    
   Atomic configuration                                                                             
    9 entries                                                                                       
     n  l   j            E        occ.                                                              
     1  0  0.50    -10228.7831   2.0000                                                             
     2  0  0.50     -1262.1604   2.0000                                                             
     2  1  1.50     -1098.6333   6.0000                                                             
     3  0  0.50      -148.1110   2.0000                                                             
     3  1  1.50       -98.8436   6.0000                                                             
     3  2  2.50       -19.1549  10.0000                                                             
     4  0  0.50        -8.9483   2.0000                                                             
     4  1  0.50        -2.5791   1.0000                                                             
     4  3  2.50        -2.7416   0.0000                                                             
   Description                                                                                      
     l       E           TYP  RCUT    TYP  RCUT                                                     
     2    -19.1549037     23  2.300                                                                 
     2     -5.4423304     23  2.300                                                                 
     0     -8.9483111     23  2.300                                                                 
     0     68.0291300     23  2.300                                                                 
     1     -2.5790802     23  2.100                                                                 
     1     81.6349560     23  2.300                                                                 
     3      6.8029130     23  2.300                                                                 
  local pseudopotential read in
  partial core-charges read in
  partial kinetic energy density read in
  atomic valenz-charges read in
  non local Contribution for L=            2  read in
    real space projection operators read in
  non local Contribution for L=            2  read in
    real space projection operators read in
  non local Contribution for L=            0  read in
    real space projection operators read in
  non local Contribution for L=            0  read in
    real space projection operators read in
  non local Contribution for L=            1  read in
    real space projection operators read in
  non local Contribution for L=            1  read in
    real space projection operators read in
    PAW grid and wavefunctions read in
 
   number of l-projection  operators is LMAX  =            6
   number of lm-projection operators is LMMAX =           18
 
 POTCAR:     PAW_PBE O 08Apr2002                  
   SHA256 =  818f92134a0a090dccd8ba1447fa70422a3b330e708bb4f08108d8ae51209ddf O/POTCAR              
   COPYR  = (c) Copyright 08Apr2002 Georg Kresse                                                    
   COPYR  = This file is part of the software VASP. Any use, copying, and all other rights are regul
   COPYR  = If you do not have a valid VASP license, you may not use, copy or distribute this file. 
   VRHFIN =O: s2p4                                                                                  
   LEXCH  = PE                                                                                      
   EATOM  =   432.3788 eV,   31.7789 Ry                                                             
                                                                                                    
   TITEL  = PAW_PBE O 08Apr2002                                                                     
   LULTRA =        F    use ultrasoft PP ?                                                          
   IUNSCR =        1    unscreen: 0-lin 1-nonlin 2-no                                               
   RPACOR =    1.200    partial core radius                                                         
   POMASS =   16.000; ZVAL   =    6.000    mass and valenz                                          
   RCORE  =    1.520    outmost cutoff radius                                                       
   RWIGS  =    1.550; RWIGS  =    0.820    wigner-seitz radius (au A)                               
   ENMAX  =  400.000; ENMIN  =  300.000 eV                                                          
   ICORE  =        2    local potential                                                             
   LCOR   =        T    correct aug charges                                                         
   LPAW   =        T    paw PP                                                                      
   EAUG   =  605.392                                                                                
   DEXC   =    0.000                                                                                
   RMAX   =    1.553    core radius for proj-oper                                                   
   RAUG   =    1.300    factor for augmentation sphere                                              
   RDEP   =    1.550    radius for radial grids                                                     
   RDEPT  =    1.329    core radius for aug-charge                                                  
                                                                                                    
   Atomic configuration                                                                             
    4 entries                                                                                       
     n  l   j            E        occ.                                                              
     1  0  0.50      -514.6923   2.0000                                                             
     2  0  0.50       -23.9615   2.0000                                                             
     2  1  0.50        -9.0305   4.0000                                                             
     3  2  1.50        -9.5241   0.0000                                                             
   Description                                                                                      
     l       E           TYP  RCUT    TYP  RCUT                                                     
     0    -23.9615318     23  1.200                                                                 
     0     -9.5240782     23  1.200                                                                 
     1     -9.0304911     23  1.520                                                                 
     1      8.1634956     23  1.520                                                                 
     2     -9.5240782      7  1.500                                                                 
  local pseudopotential read in
  partial core-charges read in
  partial kinetic energy density read in
  kinetic energy density of atom read in
  atomic valenz-charges read in
  non local Contribution for L=            0  read in
    real space projection operators read in
  non local Contribution for L=            0  read in
    real space projection operators read in
  non local Contribution for L=            1  read in
    real space projection operators read in
  non local Contribution for L=            1  read in
    real space projection operators read in
    PAW grid and wavefunctions read in
 
   number of l-projection  operators is LMAX  =            4
   number of lm-projection operators is LMMAX =            8
 
 POTCAR:    PAW_PBE P 06Sep2000                   
   SHA256 =  df60c54a93efe35c9e85ae94c010c75e9f6960a95d5595d7cdba4096d109af88 P/POTCAR              
   COPYR  = (c) Copyright 06Sep2000 Georg Kresse                                                    
   COPYR  = This file is part of the software VASP. Any use, copying, and all other rights are regul
   COPYR  = If you do not have a valid VASP license, you may not use, copy or distribute this file. 
   VRHFIN =P : s2p3                                                                                 
   LEXCH  = PE                                                                                      
   EATOM  =   176.0430 eV,   12.9388 Ry                                                             
                                                                                                    
   TITEL  = PAW_PBE P 06Sep2000                                                                     
   LULTRA =        F    use ultrasoft PP ?                                                          
   IUNSCR =        1    unscreen: 0-lin 1-nonlin 2-no                                               
   RPACOR =    1.500    partial core radius                                                         
   POMASS =   30.974; ZVAL   =    5.000    mass and valenz                                          
   RCORE  =    1.900    outmost cutoff radius                                                       
   RWIGS  =    2.330; RWIGS  =    1.233    wigner-seitz radius (au A)                               
   ENMAX  =  255.040; ENMIN  =  191.280 eV                                                          
   ICORE  =        2    local potential                                                             
   LCOR   =        T    correct aug charges                                                         
   LPAW   =        T    paw PP                                                                      
   EAUG   =  342.924                                                                                
   DEXC   =    0.000                                                                                
   RMAX   =    1.935    core radius for proj-oper                                                   
   RAUG   =    1.300    factor for augmentation sphere                                              
   RDEP   =    1.931    radius for radial grids                                                     
   RDEPT  =    1.794    core radius for aug-charge                                                  
                                                                                                    
   Atomic configuration                                                                             
    6 entries                                                                                       
     n  l   j            E        occ.                                                              
     1  0  0.50     -2084.0982   2.0000                                                             
     2  0  0.50      -173.9859   2.0000                                                             
     2  1  1.50      -124.4865   6.0000                                                             
     3  0  0.50       -13.9692   2.0000                                                             
     3  1  0.50        -5.5067   3.0000                                                             
     3  2  1.50        -5.4423   0.0000                                                             
   Description                                                                                      
     l       E           TYP  RCUT    TYP  RCUT                                                     
     0    -13.9691527     23  1.900                                                                 
     0    -11.7794650     23  1.900                                                                 
     1     -5.5066937     23  1.900                                                                 
     1     -0.2556953     23  1.900                                                                 
     2     -5.4423304     23  1.900                                                                 
  local pseudopotential read in
  partial core-charges read in
  partial kinetic energy density read in
  atomic valenz-charges read in
  non local Contribution for L=            0  read in
    real space projection operators read in
  non local Contribution for L=            0  read in
    real space projection operators read in
  non local Contribution for L=            1  read in
    real space projection operators read in
  non local Contribution for L=            1  read in
    real space projection operators read in
    PAW grid and wavefunctions read in
 
   number of l-projection  operators is LMAX  =            4
   number of lm-projection operators is LMMAX =            8
 
 Optimization of the real space projectors (new method)

 maximal supplied QI-value         = 16.25
 optimisation between [QCUT,QGAM] = [ 10.73, 21.61] = [ 32.22,130.83] Ry 
 Optimized for a Real-space Cutoff    1.42 Angstroem

   l    n(q)    QCUT    max X(q) W(low)/X(q) W(high)/X(q)  e(spline) 
   2      8    10.726     7.143    0.22E-03    0.16E-03    0.73E-07
   2      8    10.726     5.586    0.40E-03    0.26E-03    0.10E-06
   0      9    10.726    12.382    0.25E-04    0.21E-05    0.37E-07
   0      9    10.726     6.622    0.42E-04    0.48E-05    0.77E-07
   1      9    10.726     7.935    0.27E-03    0.13E-04    0.16E-06
   1      9    10.726     2.425    0.23E-03    0.15E-04    0.14E-06
 Optimization of the real space projectors (new method)

 maximal supplied QI-value         = 24.76
 optimisation between [QCUT,QGAM] = [ 10.64, 21.54] = [ 31.73,129.89] Ry 
 Optimized for a Real-space Cutoff    1.23 Angstroem

   l    n(q)    QCUT    max X(q) W(low)/X(q) W(high)/X(q)  e(spline) 
   0      8    10.645    20.381    0.38E-03    0.60E-03    0.15E-06
   0      8    10.645    15.268    0.40E-03    0.65E-03    0.17E-06
   1      7    10.645     5.964    0.30E-03    0.63E-03    0.18E-06
   1      7    10.645     5.382    0.24E-03    0.53E-03    0.16E-06
 Optimization of the real space projectors (new method)

 maximal supplied QI-value         = 19.84
 optimisation between [QCUT,QGAM] = [ 10.71, 21.63] = [ 32.15,130.99] Ry 
 Optimized for a Real-space Cutoff    1.19 Angstroem

   l    n(q)    QCUT    max X(q) W(low)/X(q) W(high)/X(q)  e(spline) 
   0      8    10.715   160.924    0.37E-03    0.37E-04    0.63E-07
   0      8    10.715   130.086    0.37E-03    0.36E-04    0.63E-07
   1      7    10.715    74.434    0.19E-03    0.56E-03    0.65E-07
   1      7    10.715    49.120    0.19E-03    0.55E-03    0.63E-07
  PAW_PBE Ga_d 06Jul2010                :
 energy of atom  1       EATOM=-2148.8298
 kinetic energy error for atom=    0.0038 (will be added to EATOM!!)
   PAW_PBE O 08Apr2002                  :
 energy of atom  2       EATOM= -432.3788
 kinetic energy error for atom=    0.0389 (will be added to EATOM!!)
  PAW_PBE P 06Sep2000                   :
 energy of atom  3       EATOM= -176.0430
 kinetic energy error for atom=    0.0019 (will be added to EATOM!!)
 
 
 POSCAR: Ga48 O72
  positions in direct lattice
  velocities in cartesian coordinates
 exchange correlation table for  LEXCH =        8
   RHO(1)=    0.500       N(1)  =     2000
   RHO(2)=  100.500       N(2)  =     4000
 


--------------------------------------------------------------------------------------------------------


 ion  position               nearest neighbor table
   1  0.672  0.997  0.152-  84 1.88  66 1.93  82 1.98  78 1.99  60 2.04  64 2.05
   2  0.643  0.004  0.654-  85 1.91  83 1.95  79 1.96  61 2.05  65 2.09  67 2.09
   3  0.667  0.328  0.157-  86 1.91  80 1.96  68 1.97  78 1.97  60 2.04  62 2.07
   4  0.649  0.332  0.653-  87 1.86  79 1.90  81 1.95  69 2.00  63 2.09  61 2.12
   5  0.664  0.665  0.161-  88 1.92  70 1.96  80 1.97  82 1.98  64 2.03  62 2.05
   6  0.641  0.671  0.653-  83 1.90  89 1.94  81 1.95  71 2.05  65 2.08  63 2.08
   7  0.844  0.157  0.343-  90 1.87  74 1.90  72 1.97  60 2.03  66 2.08  68 2.13
   8  0.832  0.168  0.840-  73 1.91  91 1.95  75 1.98  69 1.99  61 2.02  67 2.10
   9  0.842  0.497  0.345-  92 1.87  74 1.94  76 1.98  62 2.02  70 2.07  68 2.12
  10  0.829  0.500  0.835-  77 1.90  93 1.94  75 1.97  69 2.01  63 2.03  71 2.06
  11  0.840  0.825  0.347-  76 1.90  94 1.92  72 1.94  64 2.05  70 2.05  66 2.10
  12  0.827  0.834  0.838-  95 1.96  73 1.96  77 1.99  71 1.99  65 2.01  67 2.05
  13  0.588  0.136  0.395-  79 1.91  56 1.91  60 1.98  17 2.44
  14  0.584  0.161  0.899-  55 1.83  57 1.84  78 1.86  61 1.87
  15  0.585  0.501  0.393-  81 1.84  56 1.85  58 1.86  62 1.91
  16  0.592  0.499  0.904-  57 1.83  59 1.84  80 1.84  63 1.86
  17  0.588  0.869  0.397-  83 1.89  58 1.92  64 1.97  13 2.44
  18  0.588  0.832  0.903-  55 1.81  59 1.83  82 1.83  65 1.86
  19  0.917  0.964  0.100-  66 1.94  73 1.96  48 1.98  52 1.98  23 2.44
  20  0.909  0.997  0.604-  49 1.80  72 1.87  53 1.89  67 1.91
  21  0.912  0.333  0.101-  75 1.85  48 1.86  50 1.86  68 1.87
  22  0.905  0.356  0.599-  49 1.87  74 1.93  51 1.99  69 2.04  24 2.46
  23  0.901  0.698  0.092-  77 1.91  50 1.94  70 1.96  19 2.44
  24  0.898  0.625  0.601-  76 1.93  71 1.97  53 2.03  51 2.07  22 2.46
  25  0.157  0.187  0.153- 102 1.94 115 1.94  96 1.96  48 2.00 114 2.02  98 2.04
  26  0.146  0.509  0.169-  50 1.96  98 1.98 117 1.99 115 2.00 100 2.01 104 2.12
  27  0.187  0.459  0.652-  51 1.82 116 1.90  99 2.00 105 2.01 118 2.07  38 2.84  45 2.85
  28  0.165  0.849  0.151-  52 1.85 106 1.86 114 1.90 117 1.92  96 2.17
  29  0.152  0.824  0.666- 101 1.99  53 2.00  97 2.03 118 2.10 107 2.21 119 2.32
  30  0.346  0.009  0.346-  96 1.82 108 1.83  54 1.84 112 1.84
  31  0.334  1.000  0.850- 103 1.92  97 1.96 109 1.97 113 2.00 107 2.02  55 2.04
  32  0.341  0.341  0.334- 108 1.91 110 1.92 102 1.92  98 2.06 104 2.07  56 2.09
  33  0.340  0.326  0.858-  99 1.91 103 1.93 109 1.97  57 1.97 111 2.00 105 2.12
  34  0.350  0.668  0.335- 110 1.88 112 1.89 106 1.94 104 1.99  58 2.01 100 2.03
  35  0.338  0.668  0.858- 105 1.95 113 1.96 107 1.97 111 1.98 101 1.99  59 1.99
  36  0.088  0.973  0.366-  90 1.87  52 1.94  94 1.96  96 2.01 119 2.27
  37  0.082  0.007  0.893-  97 1.79 114 1.84  91 1.84  95 1.87
  38  0.093  0.300  0.443-  90 2.02  92 2.19  98 2.32  27 2.84
  39  0.083  0.342  0.885-  99 1.81 115 1.84  91 1.87  93 1.87
  40  0.093  0.648  0.415-  92 1.82 118 1.86  94 1.88 100 1.88
  41  0.080  0.672  0.896- 101 1.82 117 1.84  93 1.85  95 1.86
  42  0.422  0.155  0.117- 102 1.85 109 1.87  86 1.89  84 1.95  54 1.98  46 2.82
  43  0.374  0.179  0.602- 103 1.85 108 1.92 116 1.98  87 1.99  85 2.03 119 2.59  45 2.91
  44  0.418  0.497  0.111- 111 1.82 104 1.84  86 1.87  88 1.88
  45  0.402  0.495  0.605-  87 1.87  89 1.90 110 1.90 116 1.94 105 1.97  27 2.85  43 2.91
  46  0.425  0.847  0.118- 113 1.87 106 1.88  88 1.89  84 1.91  54 2.09  42 2.82
  47  0.382  0.851  0.599-  85 1.90 107 1.91 112 1.92  89 1.97 119 2.49
  48  0.991  0.157  0.115-  21 1.86  19 1.98  25 2.00
  49  0.976  0.173  0.620-  20 1.80  22 1.87
  50  0.982  0.515  0.125-  21 1.86  23 1.94  26 1.96
  51  0.036  0.490  0.629-  27 1.82  22 1.99  24 2.07
  52  0.042  0.872  0.216-  28 1.85  36 1.94  19 1.98
  53  0.985  0.815  0.637-  20 1.89  29 2.00  24 2.03
  54  0.442  0.011  0.247-  30 1.84  42 1.98  46 2.09
  55  0.502  0.994  0.863-  18 1.81  14 1.83  31 2.04
  56  0.514  0.321  0.359-  15 1.85  13 1.91  32 2.09
  57  0.506  0.334  0.890-  16 1.83  14 1.84  33 1.97
  58  0.517  0.682  0.358-  15 1.86  17 1.92  34 2.01
  59  0.505  0.664  0.888-  18 1.83  16 1.84  35 1.99
  60  0.676  0.159  0.274-  13 1.98   7 2.03   3 2.04   1 2.04
  61  0.664  0.163  0.781-  14 1.87   8 2.02   2 2.05   4 2.12
  62  0.674  0.495  0.279-  15 1.91   9 2.02   5 2.05   3 2.07
  63  0.659  0.501  0.776-  16 1.86  10 2.03   6 2.08   4 2.09
  64  0.671  0.836  0.274-  17 1.97   5 2.03   1 2.05  11 2.05
  65  0.660  0.836  0.779-  18 1.86  12 2.01   6 2.08   2 2.09
  66  0.832  0.990  0.219-   1 1.93  19 1.94   7 2.08  11 2.10
  67  0.818  0.997  0.716-  20 1.91  12 2.05   2 2.09   8 2.10
  68  0.831  0.329  0.217-  21 1.87   3 1.97   9 2.12   7 2.13
  69  0.814  0.330  0.724-   8 1.99   4 2.00  10 2.01  22 2.04
  70  0.828  0.664  0.222-  23 1.96   5 1.96  11 2.05   9 2.07
  71  0.812  0.674  0.719-  24 1.97  12 1.99   6 2.05  10 2.06
  72  0.826  0.991  0.447-  20 1.87  11 1.94   7 1.97
  73  0.826  0.004  0.940-   8 1.91  19 1.96  12 1.96
  74  0.827  0.323  0.436-   7 1.90  22 1.93   9 1.94
  75  0.829  0.337  0.945-  21 1.85  10 1.97   8 1.98
  76  0.815  0.665  0.442-  11 1.90  24 1.93   9 1.98
  77  0.814  0.659  0.936-  10 1.90  23 1.91  12 1.99
  78  0.681  0.168  0.049-  14 1.86   3 1.97   1 1.99
  79  0.666  0.170  0.556-   4 1.90  13 1.91   2 1.96
  80  0.675  0.499  0.058-  16 1.84   3 1.96   5 1.97
  81  0.651  0.503  0.553-  15 1.84   6 1.95   4 1.95
  82  0.680  0.825  0.052-  18 1.83   5 1.98   1 1.98
  83  0.658  0.833  0.558-  17 1.89   6 1.90   2 1.95
  84  0.518  1.000  0.082-   1 1.88  46 1.91  42 1.95
  85  0.483  0.010  0.620-  47 1.90   2 1.91  43 2.03
  86  0.506  0.329  0.124-  44 1.87  42 1.89   3 1.91
  87  0.494  0.329  0.636-   4 1.86  45 1.87  43 1.99
  88  0.503  0.669  0.125-  44 1.88  46 1.89   5 1.92
  89  0.479  0.677  0.629-  45 1.90   6 1.94  47 1.97
  90  0.997  0.139  0.352-   7 1.87  36 1.87  38 2.02
  91  0.995  0.173  0.865-  37 1.84  39 1.87   8 1.95
  92  0.997  0.494  0.370-  40 1.82   9 1.87  38 2.19
  93  0.990  0.507  0.859-  41 1.85  39 1.87  10 1.94
  94  1.000  0.812  0.409-  40 1.88  11 1.92  36 1.96
  95  0.991  0.840  0.879-  41 1.86  37 1.87  12 1.96
  96  0.198  0.033  0.272-  30 1.82  25 1.96  36 2.01  28 2.17
  97  0.171  0.981  0.793-  37 1.79  31 1.96  29 2.03
  98  0.169  0.342  0.282-  26 1.98  25 2.04  32 2.06  38 2.32
  99  0.182  0.335  0.793-  39 1.81  33 1.91  27 2.00
 100  0.181  0.654  0.303-  40 1.88  26 2.01  34 2.03
 101  0.173  0.675  0.795-  41 1.82  35 1.99  29 1.99
 102  0.316  0.230  0.189-  42 1.85  32 1.92  25 1.94
 103  0.351  0.166  0.754-  43 1.85  31 1.92  33 1.93
 104  0.324  0.511  0.213-  44 1.84  34 1.99  32 2.07  26 2.12
 105  0.341  0.510  0.747-  35 1.95  45 1.97  27 2.01  33 2.12
 106  0.315  0.799  0.200-  28 1.86  46 1.88  34 1.94
 107  0.335  0.826  0.743-  47 1.91  35 1.97  31 2.02  29 2.21
 108  0.368  0.175  0.436-  30 1.83  32 1.91  43 1.92
 109  0.332  0.160  0.963-  42 1.87  33 1.97  31 1.97
 110  0.378  0.507  0.438-  34 1.88  45 1.90  32 1.92
 111  0.330  0.499  0.961-  44 1.82  35 1.98  33 2.00
 112  0.373  0.837  0.432-  30 1.84  34 1.89  47 1.92
 113  0.337  0.835  0.963-  46 1.87  35 1.96  31 2.00
 114  0.160  0.011  0.048-  37 1.84  28 1.90  25 2.02
 115  0.137  0.353  0.046-  39 1.84  25 1.94  26 2.00
 116  0.280  0.357  0.570-  27 1.90  45 1.94  43 1.98
 117  0.139  0.674  0.057-  41 1.84  28 1.92  26 1.99
 118  0.192  0.653  0.563-  40 1.86  27 2.07  29 2.10
 119  0.207  1.000  0.547-  36 2.27  29 2.32  47 2.49  43 2.59
 
  LATTYP: Found a simple monoclinic cell.
 ALAT       =    11.6348202465
 B/A-ratio  =     0.7858051831
 C/A-ratio  =     1.0554931797
 COS(beta)  =    -0.2379290539
  
  Lattice vectors:
  
 A1 = (   0.0000000000,  -2.7682617730, -11.3006977184)
 A2 = (  -9.1427020537,   0.0000000000,   0.0000000000)
 A3 = (   0.0000000000,  12.2804734172,   0.0000000000)


Analysis of symmetry for initial positions (statically):
=====================================================================
 Subroutine PRICEL returns:
 Original cell was already a primitive cell.
 

 Routine SETGRP: Setting up the symmetry group for a 
 simple monoclinic supercell.


 Subroutine GETGRP returns: Found  1 space group operations
 (whereof  1 operations were pure point group operations)
 out of a pool of  4 trial point group operations.


The static configuration has the point symmetry C_1 .


Analysis of symmetry for dynamics (positions and initial velocities):
=====================================================================
 Subroutine PRICEL returns:
 Original cell was already a primitive cell.
 

 Routine SETGRP: Setting up the symmetry group for a 
 simple monoclinic supercell.


 Subroutine GETGRP returns: Found  1 space group operations
 (whereof  1 operations were pure point group operations)
 out of a pool of  4 trial point group operations.


The dynamic configuration has the point symmetry C_1 .


 Subroutine INISYM returns: Found  1 space group operations
 (whereof  1 operations are pure point group operations),
 and found     1 'primitive' translations


----------------------------------------------------------------------------------------

                                     Primitive cell                                     

  volume of cell :    1268.8052

  direct lattice vectors                    reciprocal lattice vectors
     0.000000000 12.280473417  0.000000000     0.000000000  0.081430085 -0.019947423
     9.142702054  0.000000000  0.000000000     0.109376855 -0.000000000  0.000000000
     0.000000000 -2.768261773-11.300697718     0.000000000  0.000000000 -0.088490111

  length of vectors
    12.280473417  9.142702054 11.634820246     0.083837691  0.109376855  0.088490111

  position of ions in fractional coordinates (direct lattice)
     0.672051398  0.997199159  0.152092770
     0.643482539  0.003564564  0.653627790
     0.666711925  0.327950395  0.157422406
     0.648951195  0.331697356  0.652824883
     0.663997268  0.665248472  0.161498477
     0.641351272  0.670757789  0.653498318
     0.843791813  0.156679647  0.343361119
     0.832080965  0.167541647  0.840045770
     0.841607497  0.497010552  0.344898621
     0.828511334  0.500334728  0.835053491
     0.840321998  0.825069938  0.346916419
     0.827389903  0.833795298  0.838159231
     0.587626271  0.136272056  0.395250041
     0.584421408  0.161378390  0.899361238
     0.585153830  0.500581425  0.392792362
     0.592405062  0.498790894  0.903723047
     0.587618603  0.868927547  0.396838265
     0.587557302  0.831527701  0.902952468
     0.916796801  0.963838665  0.099708351
     0.909370542  0.996628479  0.604044878
     0.912335549  0.332710362  0.100614527
     0.905045834  0.356234450  0.598730558
     0.901374452  0.697764274  0.092458242
     0.897894868  0.625115046  0.601333658
     0.156645977  0.186931005  0.152900356
     0.146436864  0.508544396  0.169123103
     0.186668735  0.458980603  0.652454564
     0.165058759  0.848522038  0.151045244
     0.151848733  0.823859647  0.666457213
     0.345886783  0.008508040  0.346309058
     0.333648189  0.999807963  0.849727820
     0.341072857  0.341290922  0.333816139
     0.340436443  0.326205200  0.858216108
     0.350118867  0.668331934  0.335212769
     0.338385363  0.668397528  0.857957126
     0.087692690  0.972949841  0.366218730
     0.081689299  0.006691899  0.892603234
     0.092731489  0.299565101  0.443197090
     0.082777991  0.342364447  0.884746136
     0.092535908  0.648163761  0.414546090
     0.079526813  0.672247236  0.895578322
     0.422298623  0.155439713  0.117002239
     0.373696392  0.179043195  0.602415222
     0.417515940  0.496845355  0.110877900
     0.402172057  0.495311820  0.605135459
     0.424544189  0.847281478  0.117773910
     0.381597860  0.850646323  0.598519096
     0.990883372  0.157046837  0.114760348
     0.976064630  0.173477632  0.619605153
     0.982402307  0.514766746  0.124510811
     0.036473290  0.489983294  0.629311636
     0.042164609  0.871507285  0.215584284
     0.985042710  0.815351705  0.637426733
     0.441668093  0.010500760  0.246528046
     0.502276427  0.993754737  0.863316160
     0.514459117  0.321254504  0.359032572
     0.505539582  0.333872507  0.890247667
     0.517112304  0.682286059  0.358344130
     0.504880691  0.663653924  0.888106055
     0.675727516  0.159376669  0.273867327
     0.663832300  0.163496555  0.780673797
     0.673513703  0.495258512  0.278604472
     0.659137092  0.501055703  0.776068295
     0.671432714  0.836267574  0.274228195
     0.659735813  0.836223629  0.778973830
     0.831858239  0.989809119  0.219323923
     0.818030842  0.997153137  0.715979658
     0.830518071  0.328854581  0.216858757
     0.814405408  0.329907047  0.723614746
     0.827592089  0.663698384  0.222274139
     0.811555350  0.673608599  0.719175439
     0.826309093  0.991292400  0.446646245
     0.825651138  0.003783416  0.940310066
     0.826678681  0.322971834  0.435825846
     0.829085013  0.336574847  0.945119768
     0.814984061  0.665055417  0.441927025
     0.814489198  0.659142258  0.935781050
     0.681494258  0.167724848  0.048846309
     0.665987305  0.169609480  0.555777034
     0.674865314  0.498891581  0.057770253
     0.650663741  0.502880241  0.552672165
     0.680193786  0.824503786  0.051789056
     0.658472832  0.833453184  0.557582456
     0.517579606  0.999581420  0.081828332
     0.483313533  0.010134054  0.619961381
     0.506319625  0.329322763  0.124155997
     0.494220639  0.329419838  0.636416065
     0.503114462  0.668729563  0.125463451
     0.479128802  0.676968677  0.628764935
     0.996767218  0.138627610  0.351643854
     0.995083514  0.173356919  0.864929046
     0.997491529  0.494114026  0.369977104
     0.990449082  0.507224022  0.859109996
     0.999609159  0.812170501  0.408657600
     0.991365519  0.839545545  0.878761656
     0.198457471  0.032615241  0.272432959
     0.170755160  0.980969133  0.792810696
     0.168544168  0.342208325  0.281662022
     0.182156724  0.335264300  0.792520905
     0.180576905  0.654113504  0.302780264
     0.173118913  0.675184896  0.795362367
     0.315833609  0.230061338  0.189484653
     0.350548027  0.165790100  0.753724806
     0.324493442  0.510760492  0.213418291
     0.341097518  0.509841664  0.746897244
     0.315426362  0.798612467  0.200303423
     0.335017248  0.826481673  0.742686350
     0.368218486  0.175233904  0.436325150
     0.332300570  0.159703053  0.963009474
     0.377676229  0.506668319  0.437661716
     0.330062698  0.498909061  0.960776720
     0.372563931  0.837381463  0.432198198
     0.336502729  0.835294236  0.963065130
     0.160496276  0.011230171  0.048022476
     0.137234691  0.353431934  0.046125623
     0.279517997  0.356800104  0.569753419
     0.139322420  0.674197056  0.056551923
     0.192103238  0.653267427  0.562751330
     0.206677060  0.999521464  0.547136969

  ion indices of the primitive-cell ions
   primitive index   ion index
                 1           1
                 2           2
                 3           3
                 4           4
                 5           5
                 6           6
                 7           7
                 8           8
                 9           9
                10          10
                11          11
                12          12
                13          13
                14          14
                15          15
                16          16
                17          17
                18          18
                19          19
                20          20
                21          21
                22          22
                23          23
                24          24
                25          25
                26          26
                27          27
                28          28
                29          29
                30          30
                31          31
                32          32
                33          33
                34          34
                35          35
                36          36
                37          37
                38          38
                39          39
                40          40
                41          41
                42          42
                43          43
                44          44
                45          45
                46          46
                47          47
                48          48
                49          49
                50          50
                51          51
                52          52
                53          53
                54          54
                55          55
                56          56
                57          57
                58          58
                59          59
                60          60
                61          61
                62          62
                63          63
                64          64
                65          65
                66          66
                67          67
                68          68
                69          69
                70          70
                71          71
                72          72
                73          73
                74          74
                75          75
                76          76
                77          77
                78          78
                79          79
                80          80
                81          81
                82          82
                83          83
                84          84
                85          85
                86          86
                87          87
                88          88
                89          89
                90          90
                91          91
                92          92
                93          93
                94          94
                95          95
                96          96
                97          97
                98          98
                99          99
               100         100
               101         101
               102         102
               103         103
               104         104
               105         105
               106         106
               107         107
               108         108
               109         109
               110         110
               111         111
               112         112
               113         113
               114         114
               115         115
               116         116
               117         117
               118         118
               119         119

----------------------------------------------------------------------------------------

 
 
 KPOINTS: Automatic mesh                          

Automatic generation of k-mesh.
 Grid dimensions read from file:
 generate k-points for:    2    2    2

 Generating k-lattice:

  Cartesian coordinates                     Fractional coordinates (reciprocal lattice)
     0.000000000  0.040715043 -0.009973711     0.500000000  0.000000000  0.000000000
     0.054688428 -0.000000000  0.000000000     0.000000000  0.500000000  0.000000000
     0.000000000  0.000000000 -0.044245056     0.000000000  0.000000000  0.500000000

  Length of vectors
     0.041918846  0.054688428  0.044245056

  Shift w.r.t. Gamma in fractional coordinates (k-lattice)
     0.000000000  0.000000000  0.000000000

 
 Subroutine IBZKPT returns following result:
 ===========================================
 
 Found      8 irreducible k-points:
 
 Following reciprocal coordinates:
            Coordinates               Weight
  0.000000  0.000000  0.000000      1.000000
  0.500000  0.000000  0.000000      1.000000
  0.000000  0.500000  0.000000      1.000000
  0.500000  0.500000  0.000000      1.000000
  0.000000  0.000000  0.500000      1.000000
  0.500000  0.000000  0.500000      1.000000
  0.000000  0.500000  0.500000      1.000000
  0.500000  0.500000  0.500000      1.000000
 
 Following cartesian coordinates:
            Coordinates               Weight
  0.000000  0.000000 -0.000000      1.000000
  0.000000  0.040715 -0.009974      1.000000
  0.054688  0.000000 -0.000000      1.000000
  0.054688  0.040715 -0.009974      1.000000
  0.000000  0.000000 -0.044245      1.000000
  0.000000  0.040715 -0.054219      1.000000
  0.054688  0.000000 -0.044245      1.000000
  0.054688  0.040715 -0.054219      1.000000
 
 
 Subroutine IBZKPT_HF returns following result:
 ==============================================
 
 Found      8 k-points in 1st BZ
 the following      8 k-points will be used (e.g. in the exchange kernel)
 Following reciprocal coordinates:   # in IRBZ
  0.000000  0.000000  0.000000    0.12500000   1 t-inv F
  0.500000  0.000000  0.000000    0.12500000   2 t-inv F
  0.000000  0.500000  0.000000    0.12500000   3 t-inv F
  0.500000  0.500000  0.000000    0.12500000   4 t-inv F
  0.000000  0.000000  0.500000    0.12500000   5 t-inv F
  0.500000  0.000000  0.500000    0.12500000   6 t-inv F
  0.000000  0.500000  0.500000    0.12500000   7 t-inv F
  0.500000  0.500000  0.500000    0.12500000   8 t-inv F


--------------------------------------------------------------------------------------------------------




 Dimension of arrays:
   k-points           NKPTS =      8   k-points in BZ     NKDIM =      8   number of bands    NBANDS=    633
   number of dos      NEDOS =    301   number of ions     NIONS =    119
   non local maximal  LDIM  =      6   non local SUM 2l+1 LMDIM =     18
   total plane-waves  NPLWV = 184320
   max r-space proj   IRMAX =   1800   max aug-charges    IRDMAX=   5704
   dimension x,y,z NGX =    64 NGY =   48 NGZ =   60
   dimension x,y,z NGXF=   128 NGYF=   96 NGZF=  120
   support grid    NGXF=   128 NGYF=   96 NGZF=  120
   ions per type =              47  71   1
   NGX,Y,Z   is equivalent  to a cutoff of   8.66,  8.73,  8.57 a.u.
   NGXF,Y,Z  is equivalent  to a cutoff of  17.33, 17.46, 17.15 a.u.

 SYSTEM =  unknown system                          
 POSCAR =  Ga48 O72                                

 Startparameter for this run:
   NWRITE =      2    write-flag & timer
   PREC   = normal    normal or accurate (medium, high low for compatibility)
   ISTART =      0    job   : 0-new  1-cont  2-samecut
   ICHARG =      0    charge: 1-file 2-atom 10-const
   ISPIN  =      1    spin polarized calculation?
   LNONCOLLINEAR =      F non collinear calculations
   LSORBIT =      F    spin-orbit coupling
   INIWAV =      1    electr: 0-lowe 1-rand  2-diag
   LASPH  =      F    aspherical Exc in radial PAW
 Electronic Relaxation 1
   ENCUT  =  450.0 eV  33.07 Ry    5.75 a.u.  21.24 15.81 20.12*2*pi/ulx,y,z
   ENINI  =  450.0     initial cutoff
   ENAUG  =  605.4 eV  augmentation charge cutoff
   NELM   =    500;   NELMIN=  2; NELMDL= -5     # of ELM steps 
   EDIFF  = 0.1E-04   stopping-criterion for ELM
   LREAL  =      T    real-space projection
   NLSPLINE    = F    spline interpolate recip. space projectors
   LCOMPAT=      F    compatible to vasp.4.4
   GGA_COMPAT  = T    GGA compatible to vasp.4.4-vasp.4.6
   LMAXPAW     = -100 max onsite density
   LMAXMIX     =    2 max onsite mixed and CHGCAR
   VOSKOWN=      0    Vosko Wilk Nusair interpolation
   ROPT   =   -0.00050  -0.00050  -0.00050
 Ionic relaxation
   EDIFFG = -.5E-02   stopping-criterion for IOM
   NSW    =      0    number of steps for IOM
   NBLOCK =      1;   KBLOCK =      1    inner block; outer block 
   IBRION =     -1    ionic relax: 0-MD 1-quasi-New 2-CG
   NFREE  =      0    steps in history (QN), initial steepest desc. (CG)
   ISIF   =      2    stress and relaxation
   IWAVPR =     10    prediction:  0-non 1-charg 2-wave 3-comb
   ISYM   =      3    0-nonsym 1-usesym 2-fastsym
   LCORR  =      T    Harris-Foulkes like correction to forces

   POTIM  = 0.5000    time-step for ionic-motion
   TEIN   =    0.0    initial temperature
   TEBEG  =    0.0;   TEEND  =   0.0 temperature during run
   SMASS  =  -3.00    Nose mass-parameter (am)
   estimated Nose-frequenzy (Omega)   =  0.10E-29 period in steps = 0.13E+47 mass=  -0.345E-26a.u.
   SCALEE = 1.0000    scale energy and forces
   NPACO  =    256;   APACO  = 10.0  distance and # of slots for P.C.
   PSTRESS=    0.0 pullay stress

  Mass of Ions in am
   POMASS =  69.72 16.00 30.97
  Ionic Valenz
   ZVAL   =  13.00  6.00  5.00
  Atomic Wigner-Seitz radii
   RWIGS  =  -1.00 -1.00 -1.00
  virtual crystal weights 
   VCA    =   1.00  1.00  1.00
   NELECT =    1056.0000    total number of electrons
   NUPDOWN=      -1.0000    fix difference up-down

 DOS related values:
   EMIN   =  10.00;   EMAX   =-10.00  energy-range for DOS
   EFERMI =   0.00;   METHOD = LEGACY      
   ISMEAR =     0;   SIGMA  =   0.05  broadening in eV -4-tet -1-fermi 0-gaus

 Electronic relaxation 2 (details)
   IALGO  =     58    algorithm
   LDIAG  =      T    sub-space diagonalisation (order eigenvalues)
   LSUBROT=      F    optimize rotation matrix (better conditioning)
   TURBO    =      0    0=normal 1=particle mesh
   IRESTART =      0    0=no restart 2=restart with 2 vectors
   NREBOOT  =      0    no. of reboots
   NMIN     =      0    reboot dimension
   EREF     =   0.00    reference energy to select bands
   IMIX   =      4    mixing-type and parameters
     AMIX     =   0.40;   BMIX     =  1.00
     AMIX_MAG =   1.60;   BMIX_MAG =  1.00
     AMIN     =   0.10
     WC   =   100.;   INIMIX=   1;  MIXPRE=   1;  MAXMIX= -45

 Intra band minimization:
   WEIMIN = 0.0000     energy-eigenvalue tresh-hold
   EBREAK =  0.39E-08  absolut break condition
   DEPER  =   0.30     relativ break condition  

   TIME   =   0.40     timestep for ELM

  volume/ion in A,a.u.               =      10.66        71.95
  Fermi-wavevector in a.u.,A,eV,Ry     =   1.539919  2.910025 32.264175  2.371350
  Thomas-Fermi vector in A             =   2.646079
 
 Write flags
   LWAVE        =      T    write WAVECAR
   LDOWNSAMPLE  =      F    k-point downsampling of WAVECAR
   LCHARG       =      T    write CHGCAR
   LVTOT        =      F    write LOCPOT, total local potential
   LVHAR        =      F    write LOCPOT, Hartree potential only
   LELF         =      F    write electronic localiz. function (ELF)
   LORBIT       =      0    0 simple, 1 ext, 2 COOP (PROOUT), +10 PAW based schemes


 Dipole corrections
   LMONO  =      F    monopole corrections only (constant potential shift)
   LDIPOL =      F    correct potential (dipole corrections)
   IDIPOL =      0    1-x, 2-y, 3-z, 4-all directions 
   EPSILON=  1.0000000 bulk dielectric constant

 Exchange correlation treatment:
   GGA     =    --    GGA type
   LEXCH   =     8    internal setting for exchange type
   LIBXC   =     F    Libxc                    
   VOSKOWN =     0    Vosko Wilk Nusair interpolation
   EXXOEP  =     0    0=HF, 1=EXX-LHF (local Hartree Fock) 2=EXX OEP
   LHFCALC =     T    Hartree Fock is set to
   LSYMGRAD=     F    symmetrize gradient (conserves proper symmetry)
   PRECFOCK=fast      Normal, Fast or Accurate (Low or Medium for compatibility)
   LRHFCALC=     F    long range Hartree Fock
   LRSCOR  =     F    long range correlation only (use DFT for short range part)
   LTHOMAS =     F    Thomas Fermi screening in HF
   LMODELHF=     F    short range full HF, long range fraction AEXX
   FOCKCORR=     1    mode to apply convergence corrections
   LFOCKACE=     T    use Adeptively-Compressed-Exchange operator
   ENCUT4O =  -1.0   cutoff for four orbital integrals eV
   LMAXFOCK=     4    L truncation for augmentation on plane wave grid
   LMAXFOCKAE=  -1    L truncation for all-electron charge restoration on plane wave grid
   NMAXFOCKAE=   1    number of basis functions for all-electron charge restoration
   LFOCKAEDFT=     F  apply the AE augmentation even for DFT
   NKREDX  =     1    reduce k-point grid by
   NKREDY  =     1    reduce k-point grid by
   NKREDZ  =     1    reduce k-point grid by
   SHIFTRED=     F    shift reduced grid of Gamma
   HFKIDENT=     F    idential grid for each k-point
   ODDONLY =     F    use only odd q-grid points
   EVENONLY=     F    use only even q-grid points
   HFALPHA =   -1.0000 decay constant for conv. correction
   MCALPHA =    0.0000 extent of test-charge in conv. correction in multipole expansion
   AEXX    =    0.3500 exact exchange contribution
   HFSCREEN=    0.1800 screening length (either q_TF or 0.3 A-1)
   HFSCREENC=   0.1800 screening length for correlation (either q_TF or 0.3 A-1)
   HFRCUT  =    0.0000 spherical cutoff for potential kernel
   ALDAX   =    0.6500 LDA exchange part
   AGGAX   =    0.6500 GGA exchange part
   ALDAC   =    1.0000 LDA correlation
   AGGAC   =    1.0000 GGA correlation
   ENCUTFOCK=  -1.0 apply spherical cutoff to Coloumb kernel
   NBANDSGWLOW=     1    first orbital included in HF term
   NBLOCK_FOCK=    64    blocking factor in FOCK_ACC

 Linear response parameters
   LEPSILON=     F    determine dielectric tensor
   LRPA    =     F    only Hartree local field effects (RPA)
   LNABLA  =     F    use nabla operator in PAW spheres
   LVEL    =     F    velocity operator in full k-point grid
   CSHIFT  =0.1000    complex shift for real part using Kramers Kronig
   OMEGAMAX=  -1.0    maximum frequency
   DEG_THRESHOLD= 0.2000000E-02 threshold for treating states as degnerate
   RTIME   =   -0.100 relaxation time in fs
  (WPLASMAI=    0.000 imaginary part of plasma frequency in eV, 0.658/RTIME)
   DFIELD  = 0.0000000 0.0000000 0.0000000 field for delta impulse in time
 
  Optional k-point grid parameters
   LKPOINTS_OPT  =     F    use optional k-point grid
   KPOINTS_OPT_MODE=     1    mode for optional k-point grid
 
 Orbital magnetization related:
   ORBITALMAG=     F  switch on orbital magnetization
   LCHIMAG   =     F  perturbation theory with respect to B field
   DQ        =  0.001000  dq finite difference perturbation B field
   LLRAUG    =     F  two centre corrections for induced B field
   LBONE     =     F  B-component reconstruction in AE one-centre
   LVGVCALC  =     T  calculate vGv susceptibility
   LVGVAPPL  =     F  apply vGv susceptibility instead of pGv for G=0

 Random number generation:
   RANDOM_GENERATOR = DEFAULT
   PCG_SEED         = not used


--------------------------------------------------------------------------------------------------------


 Static calculation
 charge density and potential will be updated during run
 non-spin polarized calculation
 Conjugate gradient for all bands (Freysoldt, et al. PRB 79, 241103 (2009))
 preconditioned conjugated gradient                                        
 perform sub-space diagonalisation
    before iterative eigenvector-optimisation
 modified Broyden-mixing scheme, WC =      100.0
 initial mixing is a Kerker type mixing with AMIX =  0.4000 and BMIX =      1.0000
 Hartree-type preconditioning will be used
 using additional bands           105
 real space projection scheme for non local part
 use partial core corrections
 no Harris-corrections to forces 
 use gradient corrections 
 use of overlap-Matrix (Vanderbilt PP)
 Gauss-broadening in eV      SIGMA  =   0.05


--------------------------------------------------------------------------------------------------------


  energy-cutoff  :      450.00
  volume of cell :     1268.81
      direct lattice vectors                 reciprocal lattice vectors
     0.000000000 12.280473417  0.000000000     0.000000000  0.081430085 -0.019947423
     9.142702054  0.000000000  0.000000000     0.109376855 -0.000000000  0.000000000
     0.000000000 -2.768261773-11.300697718     0.000000000  0.000000000 -0.088490111

  length of vectors
    12.280473417  9.142702054 11.634820246     0.083837691  0.109376855  0.088490111


 
 k-points in units of 2pi/SCALE and weight: Automatic mesh                          
   0.00000000  0.00000000 -0.00000000       0.125
   0.00000000  0.04071504 -0.00997371       0.125
   0.05468843  0.00000000 -0.00000000       0.125
   0.05468843  0.04071504 -0.00997371       0.125
   0.00000000  0.00000000 -0.04424506       0.125
   0.00000000  0.04071504 -0.05421877       0.125
   0.05468843  0.00000000 -0.04424506       0.125
   0.05468843  0.04071504 -0.05421877       0.125
 
 k-points in reciprocal lattice and weights: Automatic mesh                          
   0.00000000  0.00000000  0.00000000       0.125
   0.50000000  0.00000000  0.00000000       0.125
   0.00000000  0.50000000  0.00000000       0.125
   0.50000000  0.50000000  0.00000000       0.125
   0.00000000  0.00000000  0.50000000       0.125
   0.50000000  0.00000000  0.50000000       0.125
   0.00000000  0.50000000  0.50000000       0.125
   0.50000000  0.50000000  0.50000000       0.125
 
 position of ions in fractional coordinates (direct lattice) 
   0.67205140  0.99719916  0.15209277
   0.64348254  0.00356456  0.65362779
   0.66671193  0.32795040  0.15742241
   0.64895119  0.33169736  0.65282488
   0.66399727  0.66524847  0.16149848
   0.64135127  0.67075779  0.65349832
   0.84379181  0.15667965  0.34336112
   0.83208096  0.16754165  0.84004577
   0.84160750  0.49701055  0.34489862
   0.82851133  0.50033473  0.83505349
   0.84032200  0.82506994  0.34691642
   0.82738990  0.83379530  0.83815923
   0.58762627  0.13627206  0.39525004
   0.58442141  0.16137839  0.89936124
   0.58515383  0.50058142  0.39279236
   0.59240506  0.49879089  0.90372305
   0.58761860  0.86892755  0.39683827
   0.58755730  0.83152770  0.90295247
   0.91679680  0.96383866  0.09970835
   0.90937054  0.99662848  0.60404488
   0.91233555  0.33271036  0.10061453
   0.90504583  0.35623445  0.59873056
   0.90137445  0.69776427  0.09245824
   0.89789487  0.62511505  0.60133366
   0.15664598  0.18693100  0.15290036
   0.14643686  0.50854440  0.16912310
   0.18666873  0.45898060  0.65245456
   0.16505876  0.84852204  0.15104524
   0.15184873  0.82385965  0.66645721
   0.34588678  0.00850804  0.34630906
   0.33364819  0.99980796  0.84972782
   0.34107286  0.34129092  0.33381614
   0.34043644  0.32620520  0.85821611
   0.35011887  0.66833193  0.33521277
   0.33838536  0.66839753  0.85795713
   0.08769269  0.97294984  0.36621873
   0.08168930  0.00669190  0.89260323
   0.09273149  0.29956510  0.44319709
   0.08277799  0.34236445  0.88474614
   0.09253591  0.64816376  0.41454609
   0.07952681  0.67224724  0.89557832
   0.42229862  0.15543971  0.11700224
   0.37369639  0.17904319  0.60241522
   0.41751594  0.49684536  0.11087790
   0.40217206  0.49531182  0.60513546
   0.42454419  0.84728148  0.11777391
   0.38159786  0.85064632  0.59851910
   0.99088337  0.15704684  0.11476035
   0.97606463  0.17347763  0.61960515
   0.98240231  0.51476675  0.12451081
   0.03647329  0.48998329  0.62931164
   0.04216461  0.87150728  0.21558428
   0.98504271  0.81535170  0.63742673
   0.44166809  0.01050076  0.24652805
   0.50227643  0.99375474  0.86331616
   0.51445912  0.32125450  0.35903257
   0.50553958  0.33387251  0.89024767
   0.51711230  0.68228606  0.35834413
   0.50488069  0.66365392  0.88810605
   0.67572752  0.15937667  0.27386733
   0.66383230  0.16349656  0.78067380
   0.67351370  0.49525851  0.27860447
   0.65913709  0.50105570  0.77606829
   0.67143271  0.83626757  0.27422819
   0.65973581  0.83622363  0.77897383
   0.83185824  0.98980912  0.21932392
   0.81803084  0.99715314  0.71597966
   0.83051807  0.32885458  0.21685876
   0.81440541  0.32990705  0.72361475
   0.82759209  0.66369838  0.22227414
   0.81155535  0.67360860  0.71917544
   0.82630909  0.99129240  0.44664625
   0.82565114  0.00378342  0.94031007
   0.82667868  0.32297183  0.43582585
   0.82908501  0.33657485  0.94511977
   0.81498406  0.66505542  0.44192702
   0.81448920  0.65914226  0.93578105
   0.68149426  0.16772485  0.04884631
   0.66598731  0.16960948  0.55577703
   0.67486531  0.49889158  0.05777025
   0.65066374  0.50288024  0.55267217
   0.68019379  0.82450379  0.05178906
   0.65847283  0.83345318  0.55758246
   0.51757961  0.99958142  0.08182833
   0.48331353  0.01013405  0.61996138
   0.50631962  0.32932276  0.12415600
   0.49422064  0.32941984  0.63641606
   0.50311446  0.66872956  0.12546345
   0.47912880  0.67696868  0.62876493
   0.99676722  0.13862761  0.35164385
   0.99508351  0.17335692  0.86492905
   0.99749153  0.49411403  0.36997710
   0.99044908  0.50722402  0.85911000
   0.99960916  0.81217050  0.40865760
   0.99136552  0.83954554  0.87876166
   0.19845747  0.03261524  0.27243296
   0.17075516  0.98096913  0.79281070
   0.16854417  0.34220833  0.28166202
   0.18215672  0.33526430  0.79252090
   0.18057691  0.65411350  0.30278026
   0.17311891  0.67518490  0.79536237
   0.31583361  0.23006134  0.18948465
   0.35054803  0.16579010  0.75372481
   0.32449344  0.51076049  0.21341829
   0.34109752  0.50984166  0.74689724
   0.31542636  0.79861247  0.20030342
   0.33501725  0.82648167  0.74268635
   0.36821849  0.17523390  0.43632515
   0.33230057  0.15970305  0.96300947
   0.37767623  0.50666832  0.43766172
   0.33006270  0.49890906  0.96077672
   0.37256393  0.83738146  0.43219820
   0.33650273  0.83529424  0.96306513
   0.16049628  0.01123017  0.04802248
   0.13723469  0.35343193  0.04612562
   0.27951800  0.35680010  0.56975342
   0.13932242  0.67419706  0.05655192
   0.19210324  0.65326743  0.56275133
   0.20667706  0.99952146  0.54713697
 
 position of ions in cartesian coordinates  (Angst):
   9.11709479  7.83207673 -1.71875441
   0.03258975  6.09285739 -7.38645007
   2.99835275  7.75175165 -1.77898303
   3.03261010  6.16223773 -7.37737667
   6.08216857  7.70713074 -1.82504547
   6.13253861  6.06704284 -7.38498695
   1.43247533  9.41164947 -3.88022021
   1.53178336  7.89288157 -9.49310332
   4.54401940  9.38056882 -3.89759506
   4.57441134  7.86286476 -9.43668708
   7.54336862  9.35919649 -3.92039759
   7.62314198  7.84049555 -9.47178412
   1.24589480  6.12217323 -4.46660123
   1.47543454  4.68730424-10.16340949
   4.57666682  6.09861397 -4.43882775
   4.56029653  4.77327265-10.21270097
   7.94434567  6.11768244 -4.48454928
   7.60241002  4.71587302-10.20399290
   8.81208974 10.98267993 -1.12677394
   9.11187724  9.49534642 -6.82612857
   3.04187171 10.92538511 -1.13701435
   3.25694544  9.45694839 -6.76607305
   6.37945086 10.81335638 -1.04484265
   5.71524061  9.36192508 -6.79548990
   1.70905448  1.50041855 -1.72788070
   4.64946989  1.33013700 -1.91120906
   4.19632290  0.48621540 -7.37319180
   7.75778418  1.60886692 -1.70691665
   7.53230328  0.01984630 -7.53143151
   0.07778647  3.28897932 -3.91353398
   9.14094632  1.74508867 -9.60251723
   3.12032121  3.26444570 -3.77235528
   2.98239696  1.80495384 -9.69844081
   6.11035975  3.37166875 -3.78813817
   6.11095945  1.78048254 -9.69551413
   8.89539051  0.06311844 -4.13852717
   0.06118204 -1.46777614-10.08703933
   2.73883446 -0.08809898 -5.00843634
   3.13013613 -1.43265598 -9.99824864
   5.92596815 -0.01118733 -4.68466005
   6.14615619 -1.50256832-10.12065990
   1.42113899  4.86213418 -1.32220693
   1.63693858  2.92152558 -6.80771233
   4.54250905  4.82035436 -1.25299763
   4.52848839  3.26368989 -6.83845290
   7.74644211  4.88757462 -1.33092736
   7.77720589  3.02934485 -6.76368339
   1.43583244 11.85083023 -1.29687201
   1.58605431 10.27130649 -7.00197054
   4.70635898 11.71968690 -1.40705904
   4.47977127 -1.29419008 -7.11166057
   7.96793144 -0.07899238 -2.43625283
   7.45451771 10.33222676 -7.20336683
   0.09600532  4.74143911 -2.78593893
   9.08560348  3.77830719 -9.75607496
   2.93713421  5.32390536 -4.05731857
   3.05249685  3.74382681-10.06041978
   6.23793815  5.35839355 -4.04953869
   6.06759010  3.74166387-10.03621806
   1.45713340  7.54011734 -3.09489188
   1.49480029  5.99106548 -8.82215860
   4.52800101  7.49981701 -3.14842492
   4.58100300  5.94615534 -8.77011321
   7.64574527  7.48637616 -3.09896993
   7.64534349  5.94546463 -8.80294779
   9.04952987  9.60846696 -2.47851335
   9.11667403  8.06378690 -8.09106969
   3.00661946  9.59883328 -2.45065526
   3.01624184  7.99812892 -8.17735150
   6.06799658  9.54790965 -2.51185286
   6.15860272  7.97541803 -8.12718424
   9.06309106  8.91103313 -5.04741421
   0.03459065  7.53636245-10.62615981
   2.95283525  8.94552554 -4.92513615
   3.07720355  7.56521754-10.68051281
   6.08040353  8.78502040 -4.99408372
   6.02634127  7.41182604-10.57497877
   1.53345832  8.23385274 -0.55199738
   1.55068894  6.64010308 -6.28066826
   4.56121708  8.12774237 -0.65284416
   4.59768421  6.46051754 -6.24558108
   7.53819245  8.20973604 -0.58525246
   7.62001414  6.54282391 -6.30107079
   9.13887510  6.12960035 -0.92471724
   0.09265264  4.21910360 -7.00599616
   3.01089990  5.87414839 -1.40304940
   3.01178743  4.30749715 -7.19194557
   6.11399515  5.83116811 -1.41782453
   6.18932291  4.14334258 -7.10548246
   1.26743094 11.26733108 -3.97382090
   1.58495066  9.82574663 -9.77430170
   4.51753732 11.22547473 -4.18099942
   4.63739811  9.78494226 -9.70854237
   7.42543291 11.14440249 -4.61811600
   7.67571478  9.74179561 -9.93061985
   0.29819143  1.68298595 -3.07868251
   8.96870850 -0.09775334 -8.95931402
   3.12870876  1.29008797 -3.18297737
   3.06522160  0.04306548 -8.95603918
   5.98036487  1.37939486 -3.42162823
   6.17301433 -0.07578903 -8.98814969
   2.10338227  3.35404312 -2.14130879
   1.51576949  2.21838816 -8.51761620
   4.66973100  3.39413540 -2.41177560
   4.66133043  2.12123192 -8.44045998
   7.30147584  3.31909275 -2.26356843
   7.55627569  2.05822018 -8.39287394
   1.60211138  3.31403510 -4.93077863
   1.46011743  1.41494600-10.88267896
   4.63231748  3.42648069 -4.94588276
   4.56137690  1.39364472-10.85744729
   7.65592922  3.37882370 -4.88414119
   7.63684633  1.46639644-10.88330791
   0.10267410  1.83803147 -0.54268748
   3.23132287  1.55761918 -0.52125173
   3.26211704  1.85538672 -6.43861116
   6.16398281  1.55439475 -0.63907618
   5.97262945  0.80127571 -6.35948267
   9.13832695  1.02347379 -6.18302950
 


--------------------------------------------------------------------------------------------------------


 k-point   1 :   0.0000 0.0000 0.0000  plane waves:   27533
 k-point   2 :   0.5000 0.0000 0.0000  plane waves:   27522
 k-point   3 :   0.0000 0.5000 0.0000  plane waves:   27488
 k-point   4 :   0.5000 0.5000 0.0000  plane waves:   27488
 k-point   5 :   0.0000 0.0000 0.5000  plane waves:   27482
 k-point   6 :   0.5000 0.0000 0.5000  plane waves:   27476
 k-point   7 :   0.0000 0.5000 0.5000  plane waves:   27468
 k-point   8 :   0.5000 0.5000 0.5000  plane waves:   27564

 maximum and minimum number of plane-waves per node :     27564    27468

 maximum number of plane-waves:     27564
 maximum index in each direction: 
   IXMAX=   21   IYMAX=   15   IZMAX=   20
   IXMIN=  -21   IYMIN=  -16   IZMIN=  -20


 serial   3D FFT for wavefunctions
 parallel 3D FFT for charge:
    minimum data exchange during FFTs selected (reduces bandwidth)


 FFT grid for exact exchange (Hartree Fock) 
  NGX = 48; NGY = 36; NGZ = 48

 
 Radii for the augmentation spheres in the non-local exchange
 for species   1 augmentation radius   1.392 (default was   1.031)
       energy cutoff for augmentation   1800.0
 for species   2 augmentation radius   0.974 (default was   0.722)
       energy cutoff for augmentation   1800.0
 for species   3 augmentation radius   1.294 (default was   0.959)
       energy cutoff for augmentation   1800.0
 Maximum index for augmentation-charges in exchange           751
  SETUP_FOCK is finished

 total amount of memory used by VASP MPI-rank0  7264174. kBytes
=======================================================================

   base      :      30000. kBytes
   nonlr-proj:      32462. kBytes
   fftplans  :      51012. kBytes
   grid      :     102973. kBytes
   one-center:       1850. kBytes
   HF        :        194. kBytes
   wavefun   :    7045683. kBytes
 
     INWAV:  cpu time      0.0001: real time      0.0001
 Broyden mixing: mesh for mixing (old mesh)
   NGX = 43   NGY = 31   NGZ = 41
  (NGX  =128   NGY  = 96   NGZ  =120)
  gives a total of  54653 points

 charge density for first step will be calculated from the start-wavefunctions


--------------------------------------------------------------------------------------------------------


 Maximum index for non-local projection operator          1717
 Maximum index for augmentation-charges          5362 (set IRDMAX)


--------------------------------------------------------------------------------------------------------


 initial charge from wavefunction
 First call to EWALD:  gamma=   0.164
 Maximum number of real-space cells 3x 3x 3
 Maximum number of reciprocal cells 3x 2x 3

    FEWALD:  cpu time      0.0724: real time      0.0724


--------------------------------------- Ionic step        1  -------------------------------------------




--------------------------------------- Iteration      1(   1)  ---------------------------------------


    POTLOK:  cpu time      0.0315: real time      0.0315
    SETDIJ:  cpu time      0.1172: real time      0.1172
    TRIAL :  cpu time      2.9114: real time      2.9287
    CORREC:  cpu time      0.0015: real time      0.0015
    --------------------------------------------
      LOOP:  cpu time      3.9657: real time      3.9826

 eigenvalue-minimisations  : 10648
 total energy-change (2. order) :-0.2109627E+05  (-0.5493943E+05)
 number of electron    1055.9999953 magnetization 
 augmentation part      119.5853145 magnetization 

 Free energy of the ion-electron system (eV)
  ---------------------------------------------------
  alpha Z        PSCENC =      5376.25786726
  Ewald energy   TEWEN  =    -86118.36274346
  -Hartree energ DENC   =     -2121.46910807
  -exchange      EXHF   =         0.00000000
  -V(xc)+E(xc)   XCENC  =      2815.99950844
  PAW double counting   =    339603.40430476  -370968.22370551
  entropy T*S    EENTRO =        -0.01290496
  eigenvalues    EBANDS =    -41143.21543241
  atomic energy  EATOM  =    131459.35058357
  ---------------------------------------------------
  free energy    TOTEN  =    -21096.27163039 eV

  energy without entropy =   -21096.25872543  energy(sigma->0) =   -21096.26517791
  exchange ACFDT corr.  =         0.00000000  see jH, gK, PRB 81, 115126


--------------------------------------------------------------------------------------------------------




--------------------------------------- Iteration      1(   2)  ---------------------------------------


    TRIAL :  cpu time      3.1126: real time      3.1121
    CORREC:  cpu time      0.0015: real time      0.0015
    --------------------------------------------
      LOOP:  cpu time      3.1144: real time      3.1146

 eigenvalue-minimisations  : 13008
 total energy-change (2. order) :-0.4669296E+05  (-0.4477871E+05)
 number of electron    1055.9999953 magnetization 
 augmentation part      119.5853145 magnetization 

 Free energy of the ion-electron system (eV)
  ---------------------------------------------------
  alpha Z        PSCENC =      5376.25786726
  Ewald energy   TEWEN  =    -86118.36274346
  -Hartree energ DENC   =     -2121.46910807
  -exchange      EXHF   =         0.00000000
  -V(xc)+E(xc)   XCENC  =      2815.99950844
  PAW double counting   =    339603.40430476  -370968.22370551
  entropy T*S    EENTRO =        -0.01004349
  eigenvalues    EBANDS =    -87836.18039450
  atomic energy  EATOM  =    131459.35058357
  ---------------------------------------------------
  free energy    TOTEN  =    -67789.23373101 eV

  energy without entropy =   -67789.22368753  energy(sigma->0) =   -67789.22870927
  exchange ACFDT corr.  =         0.00000000  see jH, gK, PRB 81, 115126


--------------------------------------------------------------------------------------------------------




--------------------------------------- Iteration      1(   3)  ---------------------------------------


    TRIAL :  cpu time      3.5972: real time      3.5966
    CORREC:  cpu time      0.0016: real time      0.0016
    --------------------------------------------
      LOOP:  cpu time      3.5990: real time      3.5988

 eigenvalue-minimisations  : 16473
 total energy-change (2. order) :-0.6517263E+04  (-0.5981302E+04)
 number of electron    1055.9999953 magnetization 
 augmentation part      119.5853145 magnetization 

 Free energy of the ion-electron system (eV)
  ---------------------------------------------------
  alpha Z        PSCENC =      5376.25786726
  Ewald energy   TEWEN  =    -86118.36274346
  -Hartree energ DENC   =     -2121.46910807
  -exchange      EXHF   =         0.00000000
  -V(xc)+E(xc)   XCENC  =      2815.99950844
  PAW double counting   =    339603.40430476  -370968.22370551
  entropy T*S    EENTRO =        -0.02236358
  eigenvalues    EBANDS =    -94353.43060617
  atomic energy  EATOM  =    131459.35058357
  ---------------------------------------------------
  free energy    TOTEN  =    -74306.49626277 eV

  energy without entropy =   -74306.47389919  energy(sigma->0) =   -74306.48508098
  exchange ACFDT corr.  =         0.00000000  see jH, gK, PRB 81, 115126


--------------------------------------------------------------------------------------------------------




--------------------------------------- Iteration      1(   4)  ---------------------------------------


    TRIAL :  cpu time      4.4446: real time      4.4439
    CORREC:  cpu time      0.0016: real time      0.0016
    --------------------------------------------
      LOOP:  cpu time      4.4464: real time      4.4461

 eigenvalue-minimisations  : 19280
 total energy-change (2. order) :-0.1023613E+04  (-0.9509713E+03)
 number of electron    1055.9999953 magnetization 
 augmentation part      119.5853145 magnetization 

 Free energy of the ion-electron system (eV)
  ---------------------------------------------------
  alpha Z        PSCENC =      5376.25786726
  Ewald energy   TEWEN  =    -86118.36274346
  -Hartree energ DENC   =     -2121.46910807
  -exchange      EXHF   =         0.00000000
  -V(xc)+E(xc)   XCENC  =      2815.99950844
  PAW double counting   =    339603.40430476  -370968.22370551
  entropy T*S    EENTRO =        -0.02693254
  eigenvalues    EBANDS =    -95377.03910232
  atomic energy  EATOM  =    131459.35058357
  ---------------------------------------------------
  free energy    TOTEN  =    -75330.10932788 eV

  energy without entropy =   -75330.08239534  energy(sigma->0) =   -75330.09586161
  exchange ACFDT corr.  =         0.00000000  see jH, gK, PRB 81, 115126


--------------------------------------------------------------------------------------------------------




--------------------------------------- Iteration      1(   5)  ---------------------------------------


    POTLOK:  cpu time      1.3705: real time      1.3708
    SETDIJ:  cpu time      0.4642: real time      0.4642
    TRIAL :  cpu time    233.3421: real time    233.3039
    CORREC:  cpu time      0.0007: real time      0.0007
    CHARGE:  cpu time      0.2072: real time      0.2071
    --------------------------------------------
      LOOP:  cpu time    235.3850: real time    235.3473

 eigenvalue-minimisations  : 17184
 total energy-change (2. order) : 0.3242815E+05  (-0.7500307E+02)
 number of electron    1056.0000093 magnetization 
 augmentation part      445.2642720 magnetization 

 Free energy of the ion-electron system (eV)
  ---------------------------------------------------
  alpha Z        PSCENC =      5376.25786726
  Ewald energy   TEWEN  =    -86118.36274346
  -Hartree energ DENC   =     -2121.46910807
  -exchange      EXHF   =      5337.42713924
  -V(xc)+E(xc)   XCENC  =      1867.05613060
  PAW double counting   =    340947.56772290  -342989.65664223
  entropy T*S    EENTRO =        -0.00000000
  eigenvalues    EBANDS =    -96660.12831653
  atomic energy  EATOM  =    131459.35058357
  ---------------------------------------------------
  free energy    TOTEN  =    -42901.95736673 eV

  energy without entropy =   -42901.95736673  energy(sigma->0) =   -42901.95736673
  exchange ACFDT corr.  =        -0.14216502  see jH, gK, PRB 81, 115126


--------------------------------------------------------------------------------------------------------




--------------------------------------- Iteration      1(   6)  ---------------------------------------


    POTLOK:  cpu time      1.3997: real time      1.3993
    SETDIJ:  cpu time      0.4297: real time      0.4295
    TRIAL :  cpu time    232.1889: real time    232.1492
    CORREC:  cpu time    235.0797: real time    235.0435
    CHARGE:  cpu time      0.2053: real time      0.2053
    --------------------------------------------
      LOOP:  cpu time    469.3049: real time    469.2290

 eigenvalue-minimisations  :     0
 total energy-change (2. order) : 0.9020446E+05  (-0.1013608E+06)
 number of electron    1055.9999942 magnetization 
 augmentation part      203.3641319 magnetization 

 Free energy of the ion-electron system (eV)
  ---------------------------------------------------
  alpha Z        PSCENC =      5376.25786726
  Ewald energy   TEWEN  =    -86118.36274346
  -Hartree energ DENC   =    -99566.45306963
  -exchange      EXHF   =      5418.60242866
  -V(xc)+E(xc)   XCENC  =      3642.75113380
  PAW double counting   =    165067.98735534  -191512.54919305
  entropy T*S    EENTRO =        -0.01048172
  eigenvalues    EBANDS =    113534.91870287
  atomic energy  EATOM  =    131459.35058357
  ---------------------------------------------------
  free energy    TOTEN  =     47302.50306536 eV

  energy without entropy =    47302.51354708  energy(sigma->0) =    47302.50830622
  exchange ACFDT corr.  =         0.00000000  see jH, gK, PRB 81, 115126


--------------------------------------------------------------------------------------------------------




--------------------------------------- Iteration      1(   7)  ---------------------------------------


    POTLOK:  cpu time      1.4984: real time      1.4981
    SETDIJ:  cpu time      0.4654: real time      0.4653
    TRIAL :  cpu time    232.7408: real time    232.7027
    CORREC:  cpu time    234.2105: real time    234.1752
    CHARGE:  cpu time      0.2062: real time      0.2061
    --------------------------------------------
      LOOP:  cpu time    469.1228: real time    469.0494

 eigenvalue-minimisations  :     0
 total energy-change (2. order) : 0.5338078E+04  (-0.3367232E+05)
 number of electron    1055.9999972 magnetization 
 augmentation part      214.9583398 magnetization 

 Free energy of the ion-electron system (eV)
  ---------------------------------------------------
  alpha Z        PSCENC =      5376.25786726
  Ewald energy   TEWEN  =    -86118.36274346
  -Hartree energ DENC   =    -29875.51127583
  -exchange      EXHF   =      3158.11230721
  -V(xc)+E(xc)   XCENC  =      2220.39505460
  PAW double counting   =    280429.51626006  -284758.25391063
  entropy T*S    EENTRO =        -0.00868627
  eigenvalues    EBANDS =     30749.08787973
  atomic energy  EATOM  =    131459.35058357
  ---------------------------------------------------
  free energy    TOTEN  =     52640.58154079 eV

  energy without entropy =    52640.59022706  energy(sigma->0) =    52640.58588392
  exchange ACFDT corr.  =       -64.98534114  see jH, gK, PRB 81, 115126


--------------------------------------------------------------------------------------------------------




--------------------------------------- Iteration      1(   8)  ---------------------------------------


    POTLOK:  cpu time      1.5163: real time      1.5160
    SETDIJ:  cpu time      0.4584: real time      0.4583
    TRIAL :  cpu time    232.3910: real time    232.3576
    CORREC:  cpu time    233.9369: real time    233.9061
    CHARGE:  cpu time      0.2117: real time      0.2120
    --------------------------------------------
      LOOP:  cpu time    468.5145: real time    468.4572

 eigenvalue-minimisations  :     0
 total energy-change (2. order) :-0.1174487E+04  (-0.6748408E+05)
 number of electron    1055.9999968 magnetization 
 augmentation part      203.2337998 magnetization 

 Free energy of the ion-electron system (eV)
  ---------------------------------------------------
  alpha Z        PSCENC =      5376.25786726
  Ewald energy   TEWEN  =    -86118.36274346
  -Hartree energ DENC   =    -26339.65483759
  -exchange      EXHF   =      2662.80337177
  -V(xc)+E(xc)   XCENC  =      2189.09143069
  PAW double counting   =    263518.50267269  -270766.18926902
  entropy T*S    EENTRO =        -0.00000000
  eigenvalues    EBANDS =     29484.30403844
  atomic energy  EATOM  =    131459.35058357
  ---------------------------------------------------
  free energy    TOTEN  =     51466.09442808 eV

  energy without entropy =    51466.09442809  energy(sigma->0) =    51466.09442808
  exchange ACFDT corr.  =      -275.08391713  see jH, gK, PRB 81, 115126


--------------------------------------------------------------------------------------------------------




--------------------------------------- Iteration      1(   9)  ---------------------------------------


    POTLOK:  cpu time      1.4761: real time      1.4760
    SETDIJ:  cpu time      0.4731: real time      0.4730
    TRIAL :  cpu time    232.2181: real time    232.1868
    CORREC:  cpu time    233.7915: real time    233.7594
    CHARGE:  cpu time      0.2081: real time      0.2081
    --------------------------------------------
      LOOP:  cpu time    468.1671: real time    468.1038

 eigenvalue-minimisations  :     0
 total energy-change (2. order) :-0.5941825E+04  (-0.3805575E+05)
 number of electron    1055.9999940 magnetization 
 augmentation part      198.8916188 magnetization 

 Free energy of the ion-electron system (eV)
  ---------------------------------------------------
  alpha Z        PSCENC =      5376.25786726
  Ewald energy   TEWEN  =    -86118.36274346
  -Hartree energ DENC   =    -17454.27451660
  -exchange      EXHF   =      2377.78610214
  -V(xc)+E(xc)   XCENC  =      2115.18966976
  PAW double counting   =    286768.39768595  -294688.83134573
  entropy T*S    EENTRO =        -0.00733477
  eigenvalues    EBANDS =     15688.75634225
  atomic energy  EATOM  =    131459.35058357
  ---------------------------------------------------
  free energy    TOTEN  =     45524.26964514 eV

  energy without entropy =    45524.27697991  energy(sigma->0) =    45524.27331253
  exchange ACFDT corr.  =      -144.07872625  see jH, gK, PRB 81, 115126


--------------------------------------------------------------------------------------------------------




--------------------------------------- Iteration      1(  10)  ---------------------------------------


    POTLOK:  cpu time      1.4813: real time      1.4811
    SETDIJ:  cpu time      0.4980: real time      0.4979
    TRIAL :  cpu time    232.2213: real time    232.1864
    CORREC:  cpu time    234.2172: real time    234.2106
    CHARGE:  cpu time      0.2082: real time      0.2082
    --------------------------------------------
      LOOP:  cpu time    468.6271: real time    468.5857

 eigenvalue-minimisations  :     0
 total energy-change (2. order) : 0.3678006E+04  (-0.8067835E+05)
 number of electron    1055.9999943 magnetization 
 augmentation part      189.1835421 magnetization 

 Free energy of the ion-electron system (eV)
  ---------------------------------------------------
  alpha Z        PSCENC =      5376.25786726
  Ewald energy   TEWEN  =    -86118.36274346
  -Hartree energ DENC   =    -20139.03864402
  -exchange      EXHF   =      2269.68236962
  -V(xc)+E(xc)   XCENC  =      2113.36487471
  PAW double counting   =    278919.52354090  -286472.62121667
  entropy T*S    EENTRO =        -0.01101908
  eigenvalues    EBANDS =     21794.12653903
  atomic energy  EATOM  =    131459.35058357
  ---------------------------------------------------
  free energy    TOTEN  =     49202.27583617 eV

  energy without entropy =    49202.28685525  energy(sigma->0) =    49202.28134571
  exchange ACFDT corr.  =      -249.63662843  see jH, gK, PRB 81, 115126


--------------------------------------------------------------------------------------------------------




--------------------------------------- Iteration      1(  11)  ---------------------------------------


    POTLOK:  cpu time      1.4727: real time      1.4724
    SETDIJ:  cpu time      0.5407: real time      0.5406
    TRIAL :  cpu time    232.5646: real time    232.5260
    CORREC:  cpu time    233.7015: real time    233.6649
    CHARGE:  cpu time      0.2074: real time      0.2074
    --------------------------------------------
      LOOP:  cpu time    468.4882: real time    468.4129

 eigenvalue-minimisations  :     0
[...]
   0.194E+03 0.298E+03 -.742E+02   -.191E+03 -.301E+03 0.700E+02   -.249E+01 0.224E+01 0.377E+01
   0.117E+01 0.993E+02 -.613E+02   -.402E+00 -.102E+03 0.650E+02   -.686E+00 0.267E+01 -.322E+01
   -.147E+03 0.382E+02 -.316E+02   0.140E+03 -.379E+02 0.339E+02   0.605E+01 -.458E+00 -.193E+01
   0.789E+02 0.106E+03 -.619E+02   -.809E+02 -.108E+03 0.682E+02   0.187E+01 0.149E+01 -.565E+01
   -.199E+02 0.250E+03 -.827E+02   0.261E+02 -.250E+03 0.825E+02   -.564E+01 0.604E+00 0.328E-01
   0.630E+01 -.492E+01 0.403E+01   -.120E+02 0.897E+01 -.410E+01   0.483E+01 -.339E+01 0.745E-01
   0.195E+02 -.293E+03 0.468E+02   -.146E+02 0.314E+03 -.520E+02   -.424E+01 -.177E+02 0.438E+01
   -.199E+02 -.499E+01 0.320E+02   0.240E+02 0.742E+01 -.341E+02   -.341E+01 -.204E+01 0.185E+01
   0.102E+02 -.186E+02 0.825E+01   -.611E+01 0.954E+01 -.792E+01   -.342E+01 0.810E+01 -.392E+00
   0.975E+02 0.659E+02 0.606E+02   -.108E+03 -.778E+02 -.632E+02   0.886E+01 0.103E+02 0.196E+01
   -.211E+02 -.564E+02 0.939E+00   0.148E+02 0.574E+02 -.524E+01   0.533E+01 -.825E+00 0.363E+01
   0.654E+01 -.564E+02 0.621E+02   -.855E+01 0.692E+02 -.630E+02   0.171E+01 -.110E+02 0.928E+00
   0.370E+00 0.664E+02 -.128E+03   0.741E-01 -.778E+02 0.139E+03   -.378E+00 0.968E+01 -.960E+01
   0.266E+02 -.111E+02 0.226E+02   -.297E+02 0.468E+01 -.166E+02   0.264E+01 0.545E+01 -.506E+01
   -.107E+02 0.472E+02 -.368E+02   0.112E+02 -.564E+02 0.377E+02   -.468E+00 0.774E+01 -.790E+00
   -.197E+02 -.250E+02 0.247E+02   0.229E+02 0.219E+02 -.190E+02   -.264E+01 0.261E+01 -.484E+01
   0.121E+02 0.608E+02 -.520E+02   -.133E+02 -.714E+02 0.542E+02   0.104E+01 0.898E+01 -.192E+01
   -.308E+02 0.518E+02 0.116E+03   0.322E+02 -.545E+02 -.117E+03   -.125E+01 0.232E+01 0.610E+00
   -.104E+02 0.415E+02 0.177E+01   0.120E+02 -.400E+02 0.277E+01   -.137E+01 -.124E+01 -.383E+01
   0.236E+02 0.444E+02 0.894E+02   -.247E+02 -.443E+02 -.868E+02   0.961E+00 -.536E-01 -.222E+01
   0.711E+01 0.576E+02 -.833E+01   -.738E+01 -.565E+02 0.146E+02   0.240E+00 -.852E+00 -.531E+01
   0.113E+02 0.639E+02 0.111E+03   -.122E+02 -.662E+02 -.111E+03   0.748E+00 0.197E+01 0.339E+00
   -.107E+02 0.574E+02 -.197E+02   0.112E+02 -.566E+02 0.254E+02   -.439E+00 -.681E+00 -.481E+01
   -.360E+02 -.135E+03 0.115E+02   0.374E+02 0.140E+03 -.152E+02   -.116E+01 -.380E+01 0.302E+01
   -.166E+02 -.132E+03 -.935E+02   0.177E+02 0.130E+03 0.921E+02   -.909E+00 0.218E+01 0.115E+01
   0.177E+01 -.145E+03 0.256E+02   -.206E+01 0.145E+03 -.329E+02   0.242E+00 -.289E+00 0.623E+01
   0.337E+02 -.157E+03 -.105E+03   -.341E+02 0.162E+03 0.110E+03   0.135E+00 -.458E+01 -.384E+01
   0.476E+02 -.164E+03 -.622E+01   -.504E+02 0.169E+03 0.469E+01   0.236E+01 -.418E+01 0.125E+01
   -.322E+02 -.132E+03 -.103E+03   0.329E+02 0.134E+03 0.106E+03   -.375E+00 -.178E+01 -.225E+01
   -.249E+02 0.511E+02 0.147E+03   0.258E+02 -.640E+02 -.146E+03   -.764E+00 0.109E+02 -.123E+01
   -.368E+02 0.530E+02 0.811E+02   0.374E+02 -.632E+02 -.863E+02   -.416E+00 0.865E+01 0.455E+01
   0.407E+02 0.700E+02 0.138E+03   -.407E+02 -.818E+02 -.142E+03   -.169E+00 0.999E+01 0.351E+01
   0.407E-01 0.581E+02 0.628E+02   0.209E+00 -.692E+02 -.604E+02   -.229E+00 0.942E+01 -.205E+01
   -.202E+02 0.106E+03 0.142E+03   0.194E+02 -.119E+03 -.145E+03   0.787E+00 0.115E+02 0.287E+01
   0.286E+02 0.597E+02 0.835E+02   -.286E+02 -.714E+02 -.863E+02   -.138E+00 0.992E+01 0.238E+01
   -.236E+02 -.185E+03 -.657E+02   0.245E+02 0.200E+03 0.640E+02   -.751E+00 -.123E+02 0.145E+01
   -.192E+02 -.165E+03 -.816E+02   0.194E+02 0.178E+03 0.837E+02   -.202E+00 -.109E+02 -.187E+01
   0.848E+01 -.153E+03 -.535E+02   -.822E+01 0.166E+03 0.499E+02   -.222E+00 -.106E+02 0.298E+01
   0.316E+01 -.126E+03 -.565E+02   -.282E+01 0.136E+03 0.528E+02   -.277E+00 -.865E+01 0.317E+01
   0.174E+02 -.152E+03 -.639E+02   -.188E+02 0.166E+03 0.603E+02   0.116E+01 -.121E+02 0.307E+01
   0.186E+02 -.145E+03 -.728E+02   -.196E+02 0.157E+03 0.741E+02   0.835E+00 -.995E+01 -.112E+01
   -.129E+02 -.737E+01 -.124E+03   0.143E+02 0.109E+02 0.138E+03   -.124E+01 -.301E+01 -.119E+02
   -.252E+02 0.345E+02 -.168E+02   0.304E+02 -.336E+02 0.169E+02   -.441E+01 -.755E+00 -.611E-01
   -.160E+02 0.476E+01 -.181E+02   0.155E+02 -.598E+00 0.190E+02   0.338E+00 -.348E+01 -.749E+00
   0.601E+02 -.513E+00 0.171E+02   -.661E+02 -.452E+00 -.209E+02   0.509E+01 0.857E+00 0.327E+01
   0.198E+02 0.243E+02 -.243E+02   -.197E+02 -.209E+02 0.254E+02   0.224E-01 -.277E+01 -.919E+00
   -.488E+02 0.362E+02 0.185E+01   0.527E+02 -.353E+02 -.489E+01   -.333E+01 -.783E+00 0.256E+01
   -.690E+02 -.969E+02 0.863E+02   0.759E+02 0.100E+03 -.802E+02   -.585E+01 -.306E+01 -.508E+01
   -.536E+01 -.593E+02 -.953E+02   0.699E+01 0.525E+02 0.994E+02   -.140E+01 0.570E+01 -.349E+01
   0.103E+03 -.923E+02 -.214E+01   -.116E+03 0.966E+02 0.793E+01   0.111E+02 -.372E+01 -.478E+01
   0.136E+02 -.340E+02 -.522E+02   -.141E+02 0.279E+02 0.575E+02   0.447E+00 0.519E+01 -.454E+01
   -.448E+02 -.308E+02 0.180E+03   0.486E+02 0.262E+02 -.190E+03   -.327E+01 0.384E+01 0.826E+01
   -.178E+02 -.208E+02 -.383E+02   0.189E+02 0.134E+02 0.385E+02   -.903E+00 0.632E+01 -.166E+00
   -.438E+02 0.105E+03 0.119E+03   0.446E+02 -.113E+03 -.117E+03   -.650E+00 0.671E+01 -.162E+01
   -.155E+03 0.559E+02 -.197E+03   0.160E+03 -.508E+02 0.210E+03   -.426E+01 -.433E+01 -.110E+02
   0.186E+02 0.193E+03 0.189E+03   -.201E+02 -.201E+03 -.198E+03   0.136E+01 0.710E+01 0.788E+01
   0.170E+03 0.112E+03 -.130E+03   -.179E+03 -.110E+03 0.141E+03   0.723E+01 -.155E+01 -.886E+01
   -.349E+02 0.839E+02 0.879E+02   0.402E+02 -.808E+02 -.838E+02   -.445E+01 -.263E+01 -.353E+01
   0.545E+02 0.721E+02 -.531E+02   -.618E+02 -.672E+02 0.615E+02   0.618E+01 -.410E+01 -.707E+01
   -.287E+02 0.277E+02 -.881E+02   0.322E+02 -.297E+02 0.906E+02   -.294E+01 0.171E+01 -.213E+01
   0.416E+02 0.129E+03 -.137E+03   -.419E+02 -.131E+03 0.137E+03   0.285E+00 0.124E+01 0.166E-01
   -.488E+01 0.450E+02 -.937E+02   0.449E+01 -.521E+02 0.934E+02   0.339E+00 0.598E+01 0.209E+00
   -.188E+02 -.331E+02 -.172E+02   0.181E+02 0.375E+02 0.144E+02   0.607E+00 -.376E+01 0.238E+01
   0.278E+02 0.212E+02 -.590E+02   -.299E+02 -.193E+02 0.575E+02   0.180E+01 -.169E+01 0.120E+01
   -.288E+02 0.133E+01 -.111E+03   0.280E+02 -.153E+01 0.111E+03   0.678E+00 0.200E+00 0.388E+00
   0.376E+01 0.702E+02 0.117E+03   0.898E+00 -.665E+02 -.123E+03   -.393E+01 -.308E+01 0.541E+01
   -.122E+02 0.218E+03 -.269E+02   0.123E+02 -.230E+03 0.278E+02   -.923E-01 0.106E+02 -.819E+00
   -.123E+02 0.595E+02 0.974E+02   0.114E+02 -.570E+02 -.101E+03   0.757E+00 -.206E+01 0.303E+01
   0.517E+01 0.208E+03 0.717E+01   -.596E+01 -.221E+03 -.188E+01   0.664E+00 0.115E+02 -.445E+01
   0.155E+02 0.758E+02 0.127E+03   -.198E+02 -.725E+02 -.133E+03   0.364E+01 -.281E+01 0.448E+01
   0.827E+01 0.188E+03 0.467E+01   -.777E+01 -.199E+03 -.316E+01   -.403E+00 0.949E+01 -.127E+01
   -.333E+02 -.960E+02 -.977E+02   0.383E+02 0.107E+03 0.945E+02   -.419E+01 -.942E+01 0.269E+01
   -.341E+02 -.648E+02 -.920E+02   0.374E+02 0.703E+02 0.884E+02   -.285E+01 -.460E+01 0.304E+01
   0.136E+03 0.185E+03 -.149E+03   -.141E+03 -.190E+03 0.163E+03   0.479E+01 0.475E+01 -.116E+02
   0.368E+02 -.541E+02 -.666E+02   -.405E+02 0.594E+02 0.629E+02   0.315E+01 -.453E+01 0.313E+01
   -.674E+02 -.714E+02 -.289E+02   0.698E+02 0.838E+02 0.215E+02   -.202E+01 -.106E+02 0.626E+01
   -.102E+03 0.102E+03 0.273E+02   0.104E+03 -.102E+03 -.288E+02   -.142E+01 0.110E+00 0.149E+01
 -----------------------------------------------------------------------------------------------
   0.330E+01 -.390E+02 0.321E+02   -.270E-12 0.109E-11 -.157E-11   -.445E+01 0.346E+02 -.247E+02
 
 
 POSITION                                       TOTAL-FORCE (eV/Angst)
 -----------------------------------------------------------------------------------
      9.11709      7.83208     -1.71875        -0.011218      0.013255      0.042130
      0.03259      6.09286     -7.38645         0.020885      0.025865      0.074183
      2.99835      7.75175     -1.77898         0.004710      0.073708     -0.005617
      3.03261      6.16224     -7.37738        -0.028724      0.063384      0.050729
      6.08217      7.70713     -1.82505        -0.005285      0.099696      0.001582
      6.13254      6.06704     -7.38499         0.054137      0.176122      0.061463
      1.43248      9.41165     -3.88022         0.067913     -0.001845     -0.052228
      1.53178      7.89288     -9.49310         0.073123     -0.086827      0.045713
      4.54402      9.38057     -3.89760        -0.036054      0.013927     -0.119004
      4.57441      7.86286     -9.43669         0.047566     -0.042567      0.069760
      7.54337      9.35920     -3.92040        -0.134088     -0.084623     -0.157831
      7.62314      7.84050     -9.47178        -0.065169     -0.071666      0.056077
      1.24589      6.12217     -4.46660         0.383350      0.220800     -0.082232
      1.47543      4.68730    -10.16341         0.016199     -0.001586      0.071338
      4.57667      6.09861     -4.43883        -0.017796      0.063192     -0.013877
      4.56030      4.77327    -10.21270        -0.010631     -0.105712     -0.011098
      7.94435      6.11768     -4.48455        -0.426899      0.240933     -0.118760
      7.60241      4.71587    -10.20399         0.009752     -0.055610      0.087273
      8.81209     10.98268     -1.12677         0.051083     -0.141673     -0.219601
      9.11188      9.49535     -6.82613         0.160200     -0.091238      0.032156
      3.04187     10.92539     -1.13701         0.013850     -0.156485     -0.006438
      3.25695      9.45695     -6.76607         0.136867      0.065241      0.100524
      6.37945     10.81336     -1.04484        -0.335809     -0.318773      0.091314
      5.71524      9.36193     -6.79549        -0.208724     -0.210881      0.059146
      1.70905      1.50042     -1.72788         0.071799      0.184343     -0.127682
      4.64947      1.33014     -1.91121        -0.050273      0.017439     -0.042906
      4.19632      0.48622     -7.37319        -0.049967     -0.079211      0.018168
      7.75778      1.60887     -1.70692         0.014933      0.019782     -0.058812
      7.53230      0.01985     -7.53143        -0.149231      0.005261     -0.303222
      0.07779      3.28898     -3.91353         0.107496     -0.033280      0.084993
      9.14095      1.74509     -9.60252         0.083192     -0.017155      0.128100
      3.12032      3.26445     -3.77236        -0.055141      0.037533      0.058900
      2.98240      1.80495     -9.69844        -0.149438     -0.102371      0.154871
      6.11036      3.37167     -3.78814        -0.038591      0.021395      0.042886
      6.11096      1.78048     -9.69551        -0.013016     -0.020246      0.186073
      8.89539      0.06312     -4.13853         0.049833     -0.283857      0.452865
      0.06118     -1.46778    -10.08704        -0.012422      0.098240      0.019644
      2.73883     -0.08810     -5.00844        -0.060434     -0.213279      0.338132
      3.13014     -1.43266     -9.99825         0.015039      0.003666      0.002250
      5.92597     -0.01119     -4.68466        -0.067308     -0.031833      0.041733
      6.14616     -1.50257    -10.12066        -0.014257     -0.026425      0.026115
      1.42114      4.86213     -1.32221         0.091890     -0.128496      0.013359
      1.63694      2.92153     -6.80771         0.323936      0.022374     -0.091418
      4.54251      4.82035     -1.25300         0.035214     -0.147762      0.119372
      4.52849      3.26369     -6.83845        -0.362498     -0.115476      0.089764
      7.74644      4.88757     -1.33093        -0.046859     -0.061436      0.121920
      7.77721      3.02934     -6.76368         0.093622      0.256453     -0.095972
      1.43583     11.85083     -1.29687         0.167200     -0.070741      0.022474
      1.58605     10.27131     -7.00197        -0.214769     -0.731414      0.133063
      4.70636     11.71969     -1.40706        -0.092802     -0.046731      0.087817
      4.47977     -1.29419     -7.11166        -0.072574      0.695471     -0.078175
      7.96793     -0.07899     -2.43625         0.425125      0.561162     -0.082612
      7.45452     10.33223     -7.20337         0.185878      0.004337      0.158936
      0.09601      4.74144     -2.78594         0.062825     -0.502042      0.235618
      9.08560      3.77831     -9.75607         0.011250      0.353734     -0.424630
      2.93713      5.32391     -4.05732         0.052330      0.197852     -0.182892
      3.05250      3.74383    -10.06042        -0.039440      0.242720     -0.054778
      6.23794      5.35839     -4.04954        -0.036472      0.071476     -0.163140
      6.06759      3.74166    -10.03622         0.058379      0.293329     -0.095108
      1.45713      7.54012     -3.09489        -0.053290      0.117607      0.076264
      1.49480      5.99107     -8.82216        -0.071596      0.002840     -0.119388
      4.52800      7.49982     -3.14842         0.053863      0.021341     -0.068331
      4.58100      5.94616     -8.77011         0.025454      0.005828     -0.186467
      7.64575      7.48638     -3.09897         0.022790      0.107361      0.057646
      7.64534      5.94546     -8.80295        -0.008680      0.024632     -0.153003
      9.04953      9.60847     -2.47851        -0.027675     -0.198573      0.047637
      9.11667      8.06379     -8.09107        -0.021479      0.062774     -0.002327
      3.00662      9.59883     -2.45066         0.008997     -0.033139      0.257583
      3.01624      7.99813     -8.17735        -0.145539     -0.326015     -0.322978
      6.06800      9.54791     -2.51185         0.110461     -0.170984     -0.001124
      6.15860      7.97542     -8.12718         0.108758     -0.166727     -0.232731
      9.06309      8.91103     -5.04741        -0.014059      0.475885     -0.010059
      0.03459      7.53636    -10.62616         0.031351      0.388164      0.234318
      2.95284      8.94553     -4.92514        -0.141148      0.460106      0.294973
      3.07720      7.56522    -10.68051        -0.036340      0.414650     -0.062826
      6.08040      8.78502     -4.99408         0.149836      0.527865      0.276202
      6.02634      7.41183    -10.57498        -0.011983      0.417904      0.131999
      1.53346      8.23385     -0.55200        -0.051091     -0.506568      0.034275
      1.55069      6.64010     -6.28067        -0.011707     -0.473325     -0.110116
      4.56122      8.12774     -0.65284        -0.011968     -0.439627      0.079805
      4.59768      6.46052     -6.24558        -0.008217     -0.468961      0.122581
      7.53819      8.20974     -0.58525         0.075461     -0.507395      0.091568
      7.62001      6.54282     -6.30107         0.029877     -0.433373     -0.080600
      9.13888      6.12960     -0.92472        -0.059352     -0.150746     -0.447182
      0.09265      4.21910     -7.00600        -0.180176     -0.051774     -0.027348
      3.01090      5.87415     -1.40305        -0.034456     -0.091849     -0.036527
      3.01179      4.30750     -7.19195         0.213931      0.069997      0.109706
      6.11400      5.83117     -1.41782         0.048564     -0.069089     -0.049954
      6.18932      4.14334     -7.10548        -0.139196     -0.045303      0.096487
      1.26743     11.26733     -3.97382        -0.190727     -0.122804     -0.168660
      1.58495      9.82575     -9.77430        -0.080307      0.202143     -0.155600
      4.51754     11.22547     -4.18100         0.492270     -0.196474     -0.122336
      4.63740      9.78494     -9.70854        -0.002271      0.214013     -0.213162
      7.42543     11.14440     -4.61812        -0.107122      0.170983      0.318646
      7.67571      9.74180     -9.93062        -0.017190      0.266000      0.029895
      0.29819      1.68299     -3.07868        -0.064634      0.257856     -0.044118
      8.96871     -0.09775     -8.95931        -0.240552     -0.157395     -0.426532
      3.12871      1.29009     -3.18298         0.063119      0.327462      0.398996
      3.06522      0.04307     -8.95604         0.315594      0.022514     -0.337342
      5.98036      1.37939     -3.42163        -0.176337     -0.084172     -0.127768
      6.17301     -0.07579     -8.98815         0.296015     -0.129587     -0.237893
      2.10338      3.35404     -2.14131        -0.104858     -0.002474     -0.130458
      1.51577      2.21839     -8.51762         0.019439      0.068016     -0.034506
      4.66973      3.39414     -2.41178        -0.013145      0.166980     -0.042193
      4.66133      2.12123     -8.44046        -0.013520     -0.181871      0.146530
      7.30148      3.31909     -2.26357         0.093799     -0.083291      0.012276
      7.55628      2.05822     -8.39287         0.037420     -0.002793      0.056549
      1.60211      3.31404     -4.93078        -0.144094     -0.087984      0.261585
      1.46012      1.41495    -10.88268        -0.023463      0.448022     -0.027908
      4.63232      3.42648     -4.94588         0.026851     -0.085803      0.138796
      4.56138      1.39364    -10.85745         0.014890      0.477455     -0.109873
      7.65593      3.37882     -4.88414         0.105337     -0.096535      0.137686
      7.63685      1.46640    -10.88331         0.010980      0.379983     -0.004913
      0.10267      1.83803     -0.54269        -0.161851     -0.401304      0.076286
      3.23132      1.55762     -0.52125        -0.113154     -0.202107      0.059470
      3.26212      1.85539     -6.43861         0.342933      0.318037     -0.573309
      6.16398      1.55439     -0.63908         0.121831     -0.176213      0.063739
      5.97263      0.80128     -6.35948        -0.064225     -0.444817      0.193770
      9.13833      1.02347     -6.18303        -0.358106      0.011207      0.069852
 -----------------------------------------------------------------------------------
    total drift:                               -0.031586      0.070154      0.028600


--------------------------------------------------------------------------------------------------------



  FREE ENERGIE OF THE ION-ELECTRON SYSTEM (eV)
  ---------------------------------------------------
  free  energy   TOTEN  =      -871.76967674 eV

  energy  without entropy=     -871.76075376  energy(sigma->0) =     -871.76521525
 


--------------------------------------------------------------------------------------------------------


    POTLOK:  cpu time      1.9720: real time      1.9805


--------------------------------------------------------------------------------------------------------


 writing wavefunctions
     LOOP+:  cpu time  36231.6833: real time  36226.5335
    4ORBIT:  cpu time      0.0000: real time      0.0000

 total amount of memory used by VASP MPI-rank0  7507555. kBytes
=======================================================================

   base      :      30000. kBytes
   nonlr-proj:      46610. kBytes
   fftplans  :      51012. kBytes
   grid      :     102973. kBytes
   one-center:       1850. kBytes
   HF        :        194. kBytes
   wavefun   :    7045683. kBytes
   fock_wrk  :     229233. kBytes
 
  
  
 General timing and accounting informations for this job:
 ========================================================
  
                  Total CPU time used (sec):    36263.320
                            User time (sec):    36228.911
                          System time (sec):       34.409
                         Elapsed time (sec):    36259.963
  
                   Maximum memory used (kb):    13313216.
                   Average memory used (kb):          N/A
  
                          Minor page faults:     12108944
                          Major page faults:            5
                 Voluntary context switches:       661247
