<?xml version="1.0" encoding="ISO-8859-1"?>
<modeling>
 <generator>
  <i name="program" type="string">vasp </i>
  <i name="version" type="string">6.4.2  </i>
  <i name="subversion" type="string">20Jul23 (build Nov 12 2023 22:16:35) complex                          parallel </i>
  <i name="platform" type="string">LinuxNV </i>
  <i name="date" type="string">2025 03 14 </i>
  <i name="time" type="string">06:34:56 </i>
 </generator>
 <incar>
  <i type="int" name="ISTART">     0</i>
  <i type="string" name="PREC">Normal</i>
  <i type="string" name="ALGO">All</i>
  <i type="int" name="ISPIN">     1</i>
  <i type="int" name="ICHARG">     0</i>
  <i type="int" name="NELM">   500</i>
  <i type="int" name="IBRION">    -1</i>
  <i name="EDIFF">      0.00001000</i>
  <i name="EDIFFG">     -0.00500000</i>
  <i type="int" name="NSW">     0</i>
  <i type="int" name="ISIF">     2</i>
  <i name="ENCUT">    450.00000000</i>
  <i name="NELECT">   1056.00000000</i>
  <i type="string" name="LREAL">Auto</i>
  <i type="logical" name="LPLANE"> T  </i>
  <i name="TIME">      0.40000000</i>
  <i type="int" name="ISMEAR">     0</i>
  <i name="SIGMA">      0.05000000</i>
  <i type="logical" name="LWAVE"> T  </i>
  <i type="logical" name="LCHARG"> T  </i>
  <i name="HFSCREEN">      0.18000000</i>
  <i type="logical" name="LHFCALC"> T  </i>
  <i type="int" name="LMAXFOCK">     4</i>
  <i name="AEXX">      0.35000000</i>
  <i type="string" name="PRECFOCK">Fast</i>
 </incar>
 <primitive_cell>
  <structure name="primitive_cell" >
   <crystal>
    <varray name="basis" >
     <v>       0.00000000      12.28047342       0.00000000 </v>
     <v>       9.14270205       0.00000000       0.00000000 </v>
     <v>       0.00000000      -2.76826177     -11.30069772 </v>
    </varray>
    <i name="volume">   1268.80515525 </i>
    <varray name="rec_basis" >
     <v>       0.00000000       0.08143009      -0.01994742 </v>
     <v>       0.10937686      -0.00000000       0.00000000 </v>
     <v>       0.00000000       0.00000000      -0.08849011 </v>
    </varray>
   </crystal>
   <varray name="positions" >
    <v>       0.67205140       0.99719916       0.15209277 </v>
    <v>       0.64348254       0.00356456       0.65362779 </v>
    <v>       0.66671193       0.32795040       0.15742241 </v>
    <v>       0.64895119       0.33169736       0.65282488 </v>
    <v>       0.66399727       0.66524847       0.16149848 </v>
    <v>       0.64135127       0.67075779       0.65349832 </v>
    <v>       0.84379181       0.15667965       0.34336112 </v>
    <v>       0.83208096       0.16754165       0.84004577 </v>
    <v>       0.84160750       0.49701055       0.34489862 </v>
    <v>       0.82851133       0.50033473       0.83505349 </v>
    <v>       0.84032200       0.82506994       0.34691642 </v>
    <v>       0.82738990       0.83379530       0.83815923 </v>
    <v>       0.58762627       0.13627206       0.39525004 </v>
    <v>       0.58442141       0.16137839       0.89936124 </v>
    <v>       0.58515383       0.50058142       0.39279236 </v>
    <v>       0.59240506       0.49879089       0.90372305 </v>
    <v>       0.58761860       0.86892755       0.39683827 </v>
    <v>       0.58755730       0.83152770       0.90295247 </v>
    <v>       0.91679680       0.96383866       0.09970835 </v>
    <v>       0.90937054       0.99662848       0.60404488 </v>
    <v>       0.91233555       0.33271036       0.10061453 </v>
    <v>       0.90504583       0.35623445       0.59873056 </v>
    <v>       0.90137445       0.69776427       0.09245824 </v>
    <v>       0.89789487       0.62511505       0.60133366 </v>
    <v>       0.15664598       0.18693100       0.15290036 </v>
    <v>       0.14643686       0.50854440       0.16912310 </v>
    <v>       0.18666873       0.45898060       0.65245456 </v>
    <v>       0.16505876       0.84852204       0.15104524 </v>
    <v>       0.15184873       0.82385965       0.66645721 </v>
    <v>       0.34588678       0.00850804       0.34630906 </v>
    <v>       0.33364819       0.99980796       0.84972782 </v>
    <v>       0.34107286       0.34129092       0.33381614 </v>
    <v>       0.34043644       0.32620520       0.85821611 </v>
    <v>       0.35011887       0.66833193       0.33521277 </v>
    <v>       0.33838536       0.66839753       0.85795713 </v>
    <v>       0.08769269       0.97294984       0.36621873 </v>
    <v>       0.08168930       0.00669190       0.89260323 </v>
    <v>       0.09273149       0.29956510       0.44319709 </v>
    <v>       0.08277799       0.34236445       0.88474614 </v>
    <v>       0.09253591       0.64816376       0.41454609 </v>
    <v>       0.07952681       0.67224724       0.89557832 </v>
    <v>       0.42229862       0.15543971       0.11700224 </v>
    <v>       0.37369639       0.17904319       0.60241522 </v>
    <v>       0.41751594       0.49684536       0.11087790 </v>
    <v>       0.40217206       0.49531182       0.60513546 </v>
    <v>       0.42454419       0.84728148       0.11777391 </v>
    <v>       0.38159786       0.85064632       0.59851910 </v>
    <v>       0.99088337       0.15704684       0.11476035 </v>
    <v>       0.97606463       0.17347763       0.61960515 </v>
    <v>       0.98240231       0.51476675       0.12451081 </v>
    <v>       0.03647329       0.48998329       0.62931164 </v>
    <v>       0.04216461       0.87150728       0.21558428 </v>
    <v>       0.98504271       0.81535170       0.63742673 </v>
    <v>       0.44166809       0.01050076       0.24652805 </v>
    <v>       0.50227643       0.99375474       0.86331616 </v>
    <v>       0.51445912       0.32125450       0.35903257 </v>
    <v>       0.50553958       0.33387251       0.89024767 </v>
    <v>       0.51711230       0.68228606       0.35834413 </v>
    <v>       0.50488069       0.66365392       0.88810605 </v>
    <v>       0.67572752       0.15937667       0.27386733 </v>
    <v>       0.66383230       0.16349656       0.78067380 </v>
    <v>       0.67351370       0.49525851       0.27860447 </v>
    <v>       0.65913709       0.50105570       0.77606829 </v>
    <v>       0.67143271       0.83626757       0.27422819 </v>
    <v>       0.65973581       0.83622363       0.77897383 </v>
    <v>       0.83185824       0.98980912       0.21932392 </v>
    <v>       0.81803084       0.99715314       0.71597966 </v>
    <v>       0.83051807       0.32885458       0.21685876 </v>
    <v>       0.81440541       0.32990705       0.72361475 </v>
    <v>       0.82759209       0.66369838       0.22227414 </v>
    <v>       0.81155535       0.67360860       0.71917544 </v>
    <v>       0.82630909       0.99129240       0.44664625 </v>
    <v>       0.82565114       0.00378342       0.94031007 </v>
    <v>       0.82667868       0.32297183       0.43582585 </v>
    <v>       0.82908501       0.33657485       0.94511977 </v>
    <v>       0.81498406       0.66505542       0.44192702 </v>
    <v>       0.81448920       0.65914226       0.93578105 </v>
    <v>       0.68149426       0.16772485       0.04884631 </v>
    <v>       0.66598731       0.16960948       0.55577703 </v>
    <v>       0.67486531       0.49889158       0.05777025 </v>
    <v>       0.65066374       0.50288024       0.55267217 </v>
    <v>       0.68019379       0.82450379       0.05178906 </v>
    <v>       0.65847283       0.83345318       0.55758246 </v>
    <v>       0.51757961       0.99958142       0.08182833 </v>
    <v>       0.48331353       0.01013405       0.61996138 </v>
    <v>       0.50631962       0.32932276       0.12415600 </v>
    <v>       0.49422064       0.32941984       0.63641606 </v>
    <v>       0.50311446       0.66872956       0.12546345 </v>
    <v>       0.47912880       0.67696868       0.62876493 </v>
    <v>       0.99676722       0.13862761       0.35164385 </v>
    <v>       0.99508351       0.17335692       0.86492905 </v>
    <v>       0.99749153       0.49411403       0.36997710 </v>
    <v>       0.99044908       0.50722402       0.85911000 </v>
    <v>       0.99960916       0.81217050       0.40865760 </v>
    <v>       0.99136552       0.83954554       0.87876166 </v>
    <v>       0.19845747       0.03261524       0.27243296 </v>
    <v>       0.17075516       0.98096913       0.79281070 </v>
    <v>       0.16854417       0.34220833       0.28166202 </v>
    <v>       0.18215672       0.33526430       0.79252090 </v>
    <v>       0.18057691       0.65411350       0.30278026 </v>
    <v>       0.17311891       0.67518490       0.79536237 </v>
    <v>       0.31583361       0.23006134       0.18948465 </v>
    <v>       0.35054803       0.16579010       0.75372481 </v>
    <v>       0.32449344       0.51076049       0.21341829 </v>
    <v>       0.34109752       0.50984166       0.74689724 </v>
    <v>       0.31542636       0.79861247       0.20030342 </v>
    <v>       0.33501725       0.82648167       0.74268635 </v>
    <v>       0.36821849       0.17523390       0.43632515 </v>
    <v>       0.33230057       0.15970305       0.96300947 </v>
    <v>       0.37767623       0.50666832       0.43766172 </v>
    <v>       0.33006270       0.49890906       0.96077672 </v>
    <v>       0.37256393       0.83738146       0.43219820 </v>
    <v>       0.33650273       0.83529424       0.96306513 </v>
    <v>       0.16049628       0.01123017       0.04802248 </v>
    <v>       0.13723469       0.35343193       0.04612562 </v>
    <v>       0.27951800       0.35680010       0.56975342 </v>
    <v>       0.13932242       0.67419706       0.05655192 </v>
    <v>       0.19210324       0.65326743       0.56275133 </v>
    <v>       0.20667706       0.99952146       0.54713697 </v>
   </varray>
  </structure>
  <varray name="primitive_index" >
   <v type="int" >        1 </v>
   <v type="int" >        2 </v>
   <v type="int" >        3 </v>
   <v type="int" >        4 </v>
   <v type="int" >        5 </v>
   <v type="int" >        6 </v>
   <v type="int" >        7 </v>
   <v type="int" >        8 </v>
   <v type="int" >        9 </v>
   <v type="int" >       10 </v>
   <v type="int" >       11 </v>
   <v type="int" >       12 </v>
   <v type="int" >       13 </v>
   <v type="int" >       14 </v>
   <v type="int" >       15 </v>
   <v type="int" >       16 </v>
   <v type="int" >       17 </v>
   <v type="int" >       18 </v>
   <v type="int" >       19 </v>
   <v type="int" >       20 </v>
   <v type="int" >       21 </v>
   <v type="int" >       22 </v>
   <v type="int" >       23 </v>
   <v type="int" >       24 </v>
   <v type="int" >       25 </v>
   <v type="int" >       26 </v>
   <v type="int" >       27 </v>
   <v type="int" >       28 </v>
   <v type="int" >       29 </v>
   <v type="int" >       30 </v>
   <v type="int" >       31 </v>
   <v type="int" >       32 </v>
   <v type="int" >       33 </v>
   <v type="int" >       34 </v>
   <v type="int" >       35 </v>
   <v type="int" >       36 </v>
   <v type="int" >       37 </v>
   <v type="int" >       38 </v>
   <v type="int" >       39 </v>
   <v type="int" >       40 </v>
   <v type="int" >       41 </v>
   <v type="int" >       42 </v>
   <v type="int" >       43 </v>
   <v type="int" >       44 </v>
   <v type="int" >       45 </v>
   <v type="int" >       46 </v>
   <v type="int" >       47 </v>
   <v type="int" >       48 </v>
   <v type="int" >       49 </v>
   <v type="int" >       50 </v>
   <v type="int" >       51 </v>
   <v type="int" >       52 </v>
   <v type="int" >       53 </v>
   <v type="int" >       54 </v>
   <v type="int" >       55 </v>
   <v type="int" >       56 </v>
   <v type="int" >       57 </v>
   <v type="int" >       58 </v>
   <v type="int" >       59 </v>
   <v type="int" >       60 </v>
   <v type="int" >       61 </v>
   <v type="int" >       62 </v>
   <v type="int" >       63 </v>
   <v type="int" >       64 </v>
   <v type="int" >       65 </v>
   <v type="int" >       66 </v>
   <v type="int" >       67 </v>
   <v type="int" >       68 </v>
   <v type="int" >       69 </v>
   <v type="int" >       70 </v>
   <v type="int" >       71 </v>
   <v type="int" >       72 </v>
   <v type="int" >       73 </v>
   <v type="int" >       74 </v>
   <v type="int" >       75 </v>
   <v type="int" >       76 </v>
   <v type="int" >       77 </v>
   <v type="int" >       78 </v>
   <v type="int" >       79 </v>
   <v type="int" >       80 </v>
   <v type="int" >       81 </v>
   <v type="int" >       82 </v>
   <v type="int" >       83 </v>
   <v type="int" >       84 </v>
   <v type="int" >       85 </v>
   <v type="int" >       86 </v>
   <v type="int" >       87 </v>
   <v type="int" >       88 </v>
   <v type="int" >       89 </v>
   <v type="int" >       90 </v>
   <v type="int" >       91 </v>
   <v type="int" >       92 </v>
   <v type="int" >       93 </v>
   <v type="int" >       94 </v>
   <v type="int" >       95 </v>
   <v type="int" >       96 </v>
   <v type="int" >       97 </v>
   <v type="int" >       98 </v>
   <v type="int" >       99 </v>
   <v type="int" >      100 </v>
   <v type="int" >      101 </v>
   <v type="int" >      102 </v>
   <v type="int" >      103 </v>
   <v type="int" >      104 </v>
   <v type="int" >      105 </v>
   <v type="int" >      106 </v>
   <v type="int" >      107 </v>
   <v type="int" >      108 </v>
   <v type="int" >      109 </v>
   <v type="int" >      110 </v>
   <v type="int" >      111 </v>
   <v type="int" >      112 </v>
   <v type="int" >      113 </v>
   <v type="int" >      114 </v>
   <v type="int" >      115 </v>
   <v type="int" >      116 </v>
   <v type="int" >      117 </v>
   <v type="int" >      118 </v>
   <v type="int" >      119 </v>
  </varray>
 </primitive_cell>
 <kpoints>
  <generation param="Gamma">
   <v type="int" name="divisions">       2        2        2 </v>
   <v name="usershift">      0.00000000       0.00000000       0.00000000 </v>
   <v name="genvec1">      0.50000000       0.00000000       0.00000000 </v>
   <v name="genvec2">      0.00000000       0.50000000       0.00000000 </v>
   <v name="genvec3">      0.00000000       0.00000000       0.50000000 </v>
   <v name="shift">      0.00000000       0.00000000       0.00000000 </v>
  </generation>
  <varray name="kpointlist" >
   <v>       0.00000000       0.00000000       0.00000000 </v>
   <v>       0.50000000       0.00000000       0.00000000 </v>
   <v>       0.00000000       0.50000000       0.00000000 </v>
   <v>       0.50000000       0.50000000       0.00000000 </v>
   <v>       0.00000000       0.00000000       0.50000000 </v>
   <v>       0.50000000       0.00000000       0.50000000 </v>
   <v>       0.00000000       0.50000000       0.50000000 </v>
   <v>       0.50000000       0.50000000       0.50000000 </v>
  </varray>
  <varray name="weights" >
   <v>       0.12500000 </v>
   <v>       0.12500000 </v>
   <v>       0.12500000 </v>
   <v>       0.12500000 </v>
   <v>       0.12500000 </v>
   <v>       0.12500000 </v>
   <v>       0.12500000 </v>
   <v>       0.12500000 </v>
  </varray>
 </kpoints>
 <parameters>
  <separator name="general" >
   <i type="string" name="SYSTEM">unknown system</i>
   <i type="logical" name="LCOMPAT"> F  </i>
  </separator>
  <separator name="electronic" >
   <i type="string" name="PREC">normal</i>
   <i name="ENMAX">    450.00000000</i>
   <i name="ENAUG">    605.39200000</i>
   <i name="EDIFF">      0.00001000</i>
   <i type="int" name="IALGO">    58</i>
   <i type="int" name="IWAVPR">    10</i>
   <i type="int" name="NBANDS">   633</i>
   <i type="int" name="NBANDSLOW">    -1</i>
   <i type="int" name="NBANDSHIGH">    -1</i>
   <i name="NELECT">   1056.00000000</i>
   <i type="int" name="TURBO">     0</i>
   <i type="int" name="IRESTART">     0</i>
   <i type="int" name="NREBOOT">     0</i>
   <i type="int" name="NMIN">     0</i>
   <i name="EREF">      0.00000000</i>
   <separator name="electronic smearing" >
    <i type="int" name="ISMEAR">     0</i>
    <i name="SIGMA">      0.05000000</i>
    <i name="KSPACING">      0.50000000</i>
    <i type="logical" name="KGAMMA"> T  </i>
    <i type="logical" name="KBLOWUP"> T  </i>
   </separator>
   <separator name="electronic projectors" >
    <i type="logical" name="LREAL"> T  </i>
    <v name="ROPT">     -0.00050000     -0.00050000     -0.00050000</v>
    <i type="int" name="LMAXPAW">  -100</i>
    <i type="int" name="LMAXMIX">     2</i>
    <i type="logical" name="NLSPLINE"> F  </i>
   </separator>
   <separator name="electronic startup" >
    <i type="int" name="ISTART">     0</i>
    <i type="int" name="ICHARG">     0</i>
    <i type="int" name="INIWAV">     1</i>
   </separator>
   <separator name="electronic spin" >
    <i type="int" name="ISPIN">     1</i>
    <i type="logical" name="LNONCOLLINEAR"> F  </i>
    <v name="MAGMOM">      1.00000000      1.00000000      1.00000000      1.00000000      1.00000000      1.00000000      1.00000000      1.00000000      1.00000000      1.00000000      1.00000000      1.00000000      1.00000000      1.00000000      1.00000000      1.00000000      1.00000000      1.00000000      1.00000000      1.00000000
      1.00000000      1.00000000      1.00000000      1.00000000      1.00000000      1.00000000      1.00000000      1.00000000      1.00000000      1.00000000      1.00000000      1.00000000      1.00000000      1.00000000      1.00000000      1.00000000      1.00000000      1.00000000      1.00000000      1.00000000
      1.00000000      1.00000000      1.00000000      1.00000000      1.00000000      1.00000000      1.00000000      1.00000000      1.00000000      1.00000000      1.00000000      1.00000000      1.00000000      1.00000000      1.00000000      1.00000000      1.00000000      1.00000000      1.00000000      1.00000000
      1.00000000      1.00000000      1.00000000      1.00000000      1.00000000      1.00000000      1.00000000      1.00000000      1.00000000      1.00000000      1.00000000      1.00000000      1.00000000      1.00000000      1.00000000      1.00000000      1.00000000      1.00000000      1.00000000      1.00000000
      1.00000000      1.00000000      1.00000000      1.00000000      1.00000000      1.00000000      1.00000000      1.00000000      1.00000000      1.00000000      1.00000000      1.00000000      1.00000000      1.00000000      1.00000000      1.00000000      1.00000000      1.00000000      1.00000000      1.00000000
      1.00000000      1.00000000      1.00000000      1.00000000      1.00000000      1.00000000      1.00000000      1.00000000      1.00000000      1.00000000      1.00000000      1.00000000      1.00000000      1.00000000      1.00000000      1.00000000      1.00000000      1.00000000      1.00000000</v>
    <i name="NUPDOWN">     -1.00000000</i>
    <i type="logical" name="LSORBIT"> F  </i>
    <v name="SAXIS">      0.00000000      0.00000000      1.00000000</v>
    <i type="logical" name="LSPIRAL"> F  </i>
    <v name="QSPIRAL">      0.00000000      0.00000000      0.00000000</v>
    <i type="logical" name="LZEROZ"> F  </i>
   </separator>
   <separator name="electronic exchange-correlation" >
    <i type="logical" name="LASPH"> F  </i>
    <i type="logical" name="LMETAGGA"> F  </i>
   </separator>
   <separator name="electronic convergence" >
    <i type="int" name="NELM">   500</i>
    <i type="int" name="NELMDL">    -5</i>
    <i type="int" name="NELMIN">     2</i>
    <i name="ENINI">    450.00000000</i>
    <separator name="electronic convergence detail" >
     <i type="logical" name="LDIAG"> T  </i>
     <i type="logical" name="LSUBROT"> F  </i>
     <i name="WEIMIN">      0.00000000</i>
     <i name="EBREAK">      0.00000000</i>
     <i name="DEPER">      0.30000000</i>
     <i type="int" name="NRMM">     4</i>
     <i name="TIME">      0.40000000</i>
    </separator>
   </separator>
   <separator name="electronic mixer" >
    <i name="AMIX">      0.40000000</i>
    <i name="BMIX">      1.00000000</i>
    <i name="AMIN">      0.10000000</i>
    <i name="AMIX_MAG">      1.60000000</i>
    <i name="BMIX_MAG">      1.00000000</i>
    <separator name="electronic mixer details" >
     <i type="int" name="IMIX">     4</i>
     <i type="logical" name="MIXFIRST"> F  </i>
     <i type="int" name="MAXMIX">   -45</i>
     <i name="WC">    100.00000000</i>
     <i type="int" name="INIMIX">     1</i>
     <i type="int" name="MIXPRE">     1</i>
     <i type="int" name="MREMOVE">     5</i>
    </separator>
   </separator>
   <separator name="electronic dipolcorrection" >
    <i type="logical" name="LDIPOL"> F  </i>
    <i type="logical" name="LMONO"> F  </i>
    <i type="int" name="IDIPOL">     0</i>
    <i name="EPSILON">      1.00000000</i>
    <v name="DIPOL">   -100.00000000   -100.00000000   -100.00000000</v>
    <i name="EFIELD">      0.00000000</i>
   </separator>
  </separator>
  <separator name="grids" >
   <i type="int" name="NGX">    64</i>
   <i type="int" name="NGY">    48</i>
   <i type="int" name="NGZ">    60</i>
   <i type="int" name="NGXF">   128</i>
   <i type="int" name="NGYF">    96</i>
   <i type="int" name="NGZF">   120</i>
   <i type="logical" name="ADDGRID"> F  </i>
  </separator>
  <separator name="ionic" >
   <i type="int" name="NSW">     0</i>
   <i type="int" name="IBRION">    -1</i>
   <i type="int" name="MDALGO">     0</i>
   <i type="int" name="ISIF">     2</i>
   <i name="PSTRESS">      0.00000000</i>
   <i name="EDIFFG">     -0.00500000</i>
   <i type="int" name="NFREE">     0</i>
   <i name="POTIM">      0.50000000</i>
   <i name="SMASS">     -3.00000000</i>
   <i name="SCALEE">      1.00000000</i>
  </separator>
  <separator name="ionic md" >
   <i name="TEBEG">      0.00010000</i>
   <i name="TEEND">      0.00010000</i>
   <i type="int" name="NBLOCK">     1</i>
   <i type="int" name="KBLOCK">     1</i>
   <i type="int" name="NPACO">   256</i>
   <i name="APACO">     10.00000000</i>
  </separator>
  <separator name="symmetry" >
   <i type="int" name="ISYM">     3</i>
   <i name="SYMPREC">      0.00001000</i>
  </separator>
  <separator name="dos" >
   <i type="int" name="LORBIT">     0</i>
   <v name="RWIGS">     -1.00000000     -1.00000000     -1.00000000</v>
   <i type="int" name="NEDOS">   301</i>
   <i name="EMIN">     10.00000000</i>
   <i name="EMAX">    -10.00000000</i>
   <i name="EFERMI">      0.00000000</i>
  </separator>
  <separator name="writing" >
   <i type="int" name="NWRITE">     2</i>
   <i type="logical" name="LWAVE"> T  </i>
   <i type="logical" name="LDOWNSAMPLE"> F  </i>
   <i type="logical" name="LCHARG"> T  </i>
   <i type="logical" name="LPARD"> F  </i>
   <i type="logical" name="LVTOT"> F  </i>
   <i type="logical" name="LVHAR"> F  </i>
   <i type="logical" name="LELF"> F  </i>
   <i type="logical" name="LOPTICS"> F  </i>
   <v name="STM">      0.00000000      0.00000000      0.00000000      0.00000000      0.00000000      0.00000000      0.00000000</v>
  </separator>
  <separator name="performance" >
   <i type="int" name="NPAR">     1</i>
   <i type="int" name="NSIM">     4</i>
   <i type="int" name="NBLK">    -1</i>
   <i type="logical" name="LPLANE"> T  </i>
   <i type="logical" name="LSCALAPACK"> T  </i>
   <i type="logical" name="LSCAAWARE"> F  </i>
   <i type="logical" name="LSCALU"> F  </i>
   <i type="logical" name="LASYNC"> F  </i>
   <i type="logical" name="LORBITALREAL"> F  </i>
  </separator>
  <separator name="miscellaneous" >
   <i type="int" name="IDIOT">     3</i>
   <i type="int" name="PHON_NSTRUCT">    -1</i>
   <i type="logical" name="LMUSIC"> F  </i>
   <v name="POMASS">     69.72300000     16.00000000     30.97400000</v>
   <v name="DARWINR">      0.00000000      0.00000000      0.00000000</v>
   <v name="DARWINV">      1.00000000      1.00000000      1.00000000</v>
   <i type="logical" name="LCORR"> T  </i>
  </separator>
  <i type="logical" name="GGA_COMPAT"> T  </i>
  <i type="logical" name="LBERRY"> F  </i>
  <i type="int" name="ICORELEVEL">     0</i>
  <i type="logical" name="LDAU"> F  </i>
  <i type="int" name="I_CONSTRAINED_M">     0</i>
  <separator name="electronic exchange-correlation" >
   <i type="string" name="GGA">--</i>
   <i type="int" name="VOSKOWN">     0</i>
   <i type="logical" name="LHFCALC"> T  </i>
   <i type="string" name="PRECFOCK">fast</i>
   <i type="logical" name="LSYMGRAD"> F  </i>
   <i type="logical" name="LHFONE"> F  </i>
   <i type="logical" name="LRHFCALC"> F  </i>
   <i type="logical" name="LTHOMAS"> F  </i>
   <i type="logical" name="LMODELHF"> F  </i>
   <i type="logical" name="LFOCKACE"> T  </i>
   <i name="ENCUT4O">     -1.00000000</i>
   <i type="int" name="EXXOEP">     0</i>
   <i type="int" name="FOURORBIT">     0</i>
   <i name="AEXX">      0.35000000</i>
   <i name="HFALPHA">     -1.00000000</i>
   <i name="MCALPHA">      0.00000000</i>
   <i name="ALDAX">      0.65000000</i>
   <i name="AGGAX">      0.65000000</i>
   <i name="ALDAC">      1.00000000</i>
   <i name="AGGAC">      1.00000000</i>
   <i type="int" name="NKREDX">     1</i>
   <i type="int" name="NKREDY">     1</i>
   <i type="int" name="NKREDZ">     1</i>
   <i type="logical" name="SHIFTRED"> F  </i>
   <i type="logical" name="ODDONLY"> F  </i>
   <i type="logical" name="EVENONLY"> F  </i>
   <i type="int" name="LMAXFOCK">     4</i>
   <i type="int" name="NMAXFOCKAE">     1</i>
   <i type="logical" name="LFOCKAEDFT"> F  </i>
   <i name="HFSCREEN">      0.18000000</i>
   <i name="HFSCREENC">      0.18000000</i>
   <i type="int" name="NBANDSGWLOW">     1</i>
  </separator>
  <separator name="vdW DFT" >
   <i type="logical" name="LUSE_VDW"> F  </i>
   <i type="int" name="IVDW_NL">     1</i>
   <i type="logical" name="LSPIN_VDW"> F  </i>
   <i name="Zab_VDW">     -0.84910000</i>
   <i name="PARAM1">      0.12340000</i>
   <i name="PARAM2">      1.00000000</i>
   <i name="PARAM3">      0.00000000</i>
  </separator>
  <separator name="model GW" >
   <i type="int" name="MODEL_GW">     0</i>
   <i name="MODEL_EPS0">      6.39733692</i>
   <i name="MODEL_ALPHA">      1.00000000</i>
  </separator>
  <separator name="linear response parameters" >
   <i type="logical" name="LEPSILON"> F  </i>
   <i type="logical" name="LRPA"> F  </i>
   <i type="logical" name="LNABLA"> F  </i>
   <i type="logical" name="LVEL"> F  </i>
   <i name="CSHIFT">      0.10000000</i>
   <i name="OMEGAMAX">     -1.00000000</i>
   <i name="DEG_THRESHOLD">      0.00200000</i>
   <i name="RTIME">     -0.10000000</i>
   <i name="WPLASMAI">      0.00000000</i>
   <v name="DFIELD">      0.00000000      0.00000000      0.00000000</v>
   <v name="WPLASMA">      0.00000000      0.00000000      0.00000000      0.00000000      0.00000000      0.00000000      0.00000000      0.00000000      0.00000000</v>
  </separator>
  <separator name="orbital magnetization" >
   <i type="logical" name="NUCIND"> F  </i>
   <v name="MAGPOS">      0.00000000      0.00000000      0.00000000</v>
   <i type="logical" name="LNICSALL"> T  </i>
   <i type="logical" name="ORBITALMAG"> F  </i>
   <i type="logical" name="LMAGBLOCH"> F  </i>
   <i type="logical" name="LCHIMAG"> F  </i>
   <i type="logical" name="LGAUGE"> T  </i>
   <i type="int" name="MAGATOM">     0</i>
   <v name="MAGDIPOL">      0.00000000      0.00000000      0.00000000</v>
   <v name="AVECCONST">      0.00000000      0.00000000      0.00000000</v>
  </separator>
  <separator name="response functions" >
   <i type="logical" name="LALL_IN_ONE"> F  </i>
   <i type="int" name="IALL_IN_ONE">    -1</i>
   <i type="int" name="NBANDS_WAVE">    -1</i>
   <i type="logical" name="LFINITE_TEMPERATURE"> F  </i>
   <i type="logical" name="LADDER"> F  </i>
   <i type="logical" name="LRPAFORCE"> F  </i>
   <i type="logical" name="LFXC"> F  </i>
   <i type="logical" name="LHARTREE"> T  </i>
   <i type="int" name="IBSE">     0</i>
   <v type="int" name="KPOINT">    -1     0     0     0</v>
   <i type="logical" name="LTCTC"> F  </i>
   <i type="logical" name="LTCTE"> F  </i>
   <i type="logical" name="LTETE"> F  </i>
   <i type="logical" name="LTRIPLET"> F  </i>
   <i type="logical" name="LFXCEPS"> F  </i>
   <i type="logical" name="LFXHEG"> F  </i>
   <i type="int" name="NATURALO">     2</i>
   <i type="logical" name="LHOLEGF"> F  </i>
   <i type="logical" name="L2ORDER"> F  </i>
   <i type="logical" name="LDMP1"> F  </i>
   <i type="logical" name="LMP2LT"> F  </i>
   <i type="logical" name="LSMP2LT"> F  </i>
   <i type="logical" name="LGWLF"> F  </i>
   <i name="ENCUTGW">     -1.60000002</i>
   <i name="ENCUTGWSOFT">     -1.60000002</i>
   <i name="ENCUTLF">     -1.00000000</i>
   <i type="logical" name="LESF_SPLINES"> F  </i>
   <i type="int" name="LMAXMP2">    -1</i>
   <i name="SCISSOR">      0.00000000</i>
   <i type="int" name="NOMEGA">     0</i>
   <i type="int" name="NOMEGAR">     0</i>
   <i type="int" name="NBANDSGW">    -1</i>
   <i type="int" name="NBANDSO">    -1</i>
   <i type="int" name="NBANDSV">    -1</i>
   <i type="int" name="NELMGW">     1</i>
   <i type="int" name="NELMHF">     1</i>
   <i type="int" name="DIM">     3</i>
   <i type="int" name="IESPILON">     4</i>
   <i type="int" name="ANTIRES">     0</i>
   <i name="OMEGAMAX">    -30.00000000</i>
   <i name="OMEGAMIN">    -30.00000000</i>
   <i name="OMEGATL">   -200.00000000</i>
   <i type="int" name="OMEGAGRID">     0</i>
   <i name="CSHIFT">     -0.10000000</i>
   <i type="logical" name="LSELFENERGY"> F  </i>
   <i type="logical" name="LSPECTRAL"> F  </i>
   <i type="logical" name="LSPECTRALGW"> F  </i>
   <i type="logical" name="LSINGLES"> F  </i>
   <i type="logical" name="LFERMIGW"> F  </i>
   <i type="logical" name="ODDONLYGW"> F  </i>
   <i type="logical" name="EVENONLYGW"> F  </i>
   <i type="int" name="NKREDLFX">     1</i>
   <i type="int" name="NKREDLFY">     1</i>
   <i type="int" name="NKREDLFZ">     1</i>
   <i type="int" name="MAXMEM">  2800</i>
   <i type="int" name="TELESCOPE">     0</i>
   <i type="int" name="NTAUPAR">    -1</i>
   <i type="int" name="NOMEGAPAR">    -1</i>
   <i name="DAMP_NEWTON">      0.80000001</i>
   <i name="LAMBDA">      1.00000000</i>
  </separator>
  <separator name="External order field" >
   <i name="OFIELD_KAPPA">      0.00000000</i>
   <v name="OFIELD_K">      0.00000000      0.00000000      0.00000000</v>
   <i name="OFIELD_Q6_NEAR">      0.00000000</i>
   <i name="OFIELD_Q6_FAR">      0.00000000</i>
   <i name="OFIELD_A">      0.00000000</i>
  </separator>
  <separator name="optional k-points parameters" >
   <i type="int" name="KPOINTS_OPT_MODE">     1</i>
   <i type="logical" name="LKPOINTS_OPT"> F  </i>
  </separator>
 </parameters>
 <atominfo>
  <atoms>     119 </atoms>
  <types>       3 </types>
  <array name="atoms" >
   <dimension dim="1">ion</dimension>
   <field type="string">element</field>
   <field type="int">atomtype</field>
   <set>
    <rc><c>Ga</c><c>   1</c></rc>
    <rc><c>Ga</c><c>   1</c></rc>
    <rc><c>Ga</c><c>   1</c></rc>
    <rc><c>Ga</c><c>   1</c></rc>
    <rc><c>Ga</c><c>   1</c></rc>
    <rc><c>Ga</c><c>   1</c></rc>
    <rc><c>Ga</c><c>   1</c></rc>
    <rc><c>Ga</c><c>   1</c></rc>
    <rc><c>Ga</c><c>   1</c></rc>
    <rc><c>Ga</c><c>   1</c></rc>
    <rc><c>Ga</c><c>   1</c></rc>
    <rc><c>Ga</c><c>   1</c></rc>
    <rc><c>Ga</c><c>   1</c></rc>
    <rc><c>Ga</c><c>   1</c></rc>
    <rc><c>Ga</c><c>   1</c></rc>
    <rc><c>Ga</c><c>   1</c></rc>
    <rc><c>Ga</c><c>   1</c></rc>
    <rc><c>Ga</c><c>   1</c></rc>
    <rc><c>Ga</c><c>   1</c></rc>
    <rc><c>Ga</c><c>   1</c></rc>
    <rc><c>Ga</c><c>   1</c></rc>
    <rc><c>Ga</c><c>   1</c></rc>
    <rc><c>Ga</c><c>   1</c></rc>
    <rc><c>Ga</c><c>   1</c></rc>
    <rc><c>Ga</c><c>   1</c></rc>
    <rc><c>Ga</c><c>   1</c></rc>
    <rc><c>Ga</c><c>   1</c></rc>
    <rc><c>Ga</c><c>   1</c></rc>
    <rc><c>Ga</c><c>   1</c></rc>
    <rc><c>Ga</c><c>   1</c></rc>
    <rc><c>Ga</c><c>   1</c></rc>
    <rc><c>Ga</c><c>   1</c></rc>
    <rc><c>Ga</c><c>   1</c></rc>
    <rc><c>Ga</c><c>   1</c></rc>
    <rc><c>Ga</c><c>   1</c></rc>
    <rc><c>Ga</c><c>   1</c></rc>
    <rc><c>Ga</c><c>   1</c></rc>
    <rc><c>Ga</c><c>   1</c></rc>
    <rc><c>Ga</c><c>   1</c></rc>
    <rc><c>Ga</c><c>   1</c></rc>
    <rc><c>Ga</c><c>   1</c></rc>
    <rc><c>Ga</c><c>   1</c></rc>
    <rc><c>Ga</c><c>   1</c></rc>
    <rc><c>Ga</c><c>   1</c></rc>
    <rc><c>Ga</c><c>   1</c></rc>
    <rc><c>Ga</c><c>   1</c></rc>
    <rc><c>Ga</c><c>   1</c></rc>
    <rc><c>O </c><c>   2</c></rc>
    <rc><c>O </c><c>   2</c></rc>
    <rc><c>O </c><c>   2</c></rc>
    <rc><c>O </c><c>   2</c></rc>
    <rc><c>O </c><c>   2</c></rc>
    <rc><c>O </c><c>   2</c></rc>
    <rc><c>O </c><c>   2</c></rc>
    <rc><c>O </c><c>   2</c></rc>
    <rc><c>O </c><c>   2</c></rc>
    <rc><c>O </c><c>   2</c></rc>
    <rc><c>O </c><c>   2</c></rc>
    <rc><c>O </c><c>   2</c></rc>
    <rc><c>O </c><c>   2</c></rc>
    <rc><c>O </c><c>   2</c></rc>
    <rc><c>O </c><c>   2</c></rc>
    <rc><c>O </c><c>   2</c></rc>
    <rc><c>O </c><c>   2</c></rc>
    <rc><c>O </c><c>   2</c></rc>
    <rc><c>O </c><c>   2</c></rc>
    <rc><c>O </c><c>   2</c></rc>
    <rc><c>O </c><c>   2</c></rc>
    <rc><c>O </c><c>   2</c></rc>
    <rc><c>O </c><c>   2</c></rc>
    <rc><c>O </c><c>   2</c></rc>
    <rc><c>O </c><c>   2</c></rc>
    <rc><c>O </c><c>   2</c></rc>
    <rc><c>O </c><c>   2</c></rc>
    <rc><c>O </c><c>   2</c></rc>
    <rc><c>O </c><c>   2</c></rc>
    <rc><c>O </c><c>   2</c></rc>
    <rc><c>O </c><c>   2</c></rc>
    <rc><c>O </c><c>   2</c></rc>
    <rc><c>O </c><c>   2</c></rc>
    <rc><c>O </c><c>   2</c></rc>
    <rc><c>O </c><c>   2</c></rc>
    <rc><c>O </c><c>   2</c></rc>
    <rc><c>O </c><c>   2</c></rc>
    <rc><c>O </c><c>   2</c></rc>
    <rc><c>O </c><c>   2</c></rc>
    <rc><c>O </c><c>   2</c></rc>
    <rc><c>O </c><c>   2</c></rc>
    <rc><c>O </c><c>   2</c></rc>
    <rc><c>O </c><c>   2</c></rc>
    <rc><c>O </c><c>   2</c></rc>
    <rc><c>O </c><c>   2</c></rc>
    <rc><c>O </c><c>   2</c></rc>
    <rc><c>O </c><c>   2</c></rc>
    <rc><c>O </c><c>   2</c></rc>
    <rc><c>O </c><c>   2</c></rc>
    <rc><c>O </c><c>   2</c></rc>
    <rc><c>O </c><c>   2</c></rc>
    <rc><c>O </c><c>   2</c></rc>
    <rc><c>O </c><c>   2</c></rc>
    <rc><c>O </c><c>   2</c></rc>
    <rc><c>O </c><c>   2</c></rc>
    <rc><c>O </c><c>   2</c></rc>
    <rc><c>O </c><c>   2</c></rc>
    <rc><c>O </c><c>   2</c></rc>
    <rc><c>O </c><c>   2</c></rc>
    <rc><c>O </c><c>   2</c></rc>
    <rc><c>O </c><c>   2</c></rc>
    <rc><c>O </c><c>   2</c></rc>
    <rc><c>O </c><c>   2</c></rc>
    <rc><c>O </c><c>   2</c></rc>
    <rc><c>O </c><c>   2</c></rc>
    <rc><c>O </c><c>   2</c></rc>
    <rc><c>O </c><c>   2</c></rc>
    <rc><c>O </c><c>   2</c></rc>
    <rc><c>O </c><c>   2</c></rc>
    <rc><c>O </c><c>   2</c></rc>
    <rc><c>O </c><c>   2</c></rc>
    <rc><c>P </c><c>   3</c></rc>
   </set>
  </array>
  <array name="atomtypes" >
   <dimension dim="1">type</dimension>
   <field type="int">atomspertype</field>
   <field type="string">element</field>
   <field>mass</field>
   <field>valence</field>
   <field type="string">pseudopotential</field>
   <set>
    <rc><c>  47</c><c>Ga</c><c>     69.72300000</c><c>     13.00000000</c><c>  PAW_PBE Ga_d 06Jul2010                </c></rc>
    <rc><c>  71</c><c>O </c><c>     16.00000000</c><c>      6.00000000</c><c>   PAW_PBE O 08Apr2002                  </c></rc>
    <rc><c>   1</c><c>P </c><c>     30.97400000</c><c>      5.00000000</c><c>  PAW_PBE P 06Sep2000                   </c></rc>
   </set>
  </array>
 </atominfo>
 <structure name="initialpos" >
  <crystal>
   <varray name="basis" >
    <v>       0.00000000      12.28047342       0.00000000 </v>
    <v>       9.14270205       0.00000000       0.00000000 </v>
    <v>       0.00000000      -2.76826177     -11.30069772 </v>
   </varray>
   <i name="volume">   1268.80515525 </i>
   <varray name="rec_basis" >
    <v>       0.00000000       0.08143009      -0.01994742 </v>
    <v>       0.10937686      -0.00000000       0.00000000 </v>
    <v>       0.00000000       0.00000000      -0.08849011 </v>
   </varray>
  </crystal>
  <varray name="positions" >
   <v>       0.67205140       0.99719916       0.15209277 </v>
   <v>       0.64348254       0.00356456       0.65362779 </v>
   <v>       0.66671193       0.32795040       0.15742241 </v>
   <v>       0.64895119       0.33169736       0.65282488 </v>
   <v>       0.66399727       0.66524847       0.16149848 </v>
   <v>       0.64135127       0.67075779       0.65349832 </v>
   <v>       0.84379181       0.15667965       0.34336112 </v>
   <v>       0.83208096       0.16754165       0.84004577 </v>
   <v>       0.84160750       0.49701055       0.34489862 </v>
   <v>       0.82851133       0.50033473       0.83505349 </v>
   <v>       0.84032200       0.82506994       0.34691642 </v>
   <v>       0.82738990       0.83379530       0.83815923 </v>
   <v>       0.58762627       0.13627206       0.39525004 </v>
   <v>       0.58442141       0.16137839       0.89936124 </v>
   <v>       0.58515383       0.50058142       0.39279236 </v>
   <v>       0.59240506       0.49879089       0.90372305 </v>
   <v>       0.58761860       0.86892755       0.39683827 </v>
   <v>       0.58755730       0.83152770       0.90295247 </v>
   <v>       0.91679680       0.96383866       0.09970835 </v>
   <v>       0.90937054       0.99662848       0.60404488 </v>
   <v>       0.91233555       0.33271036       0.10061453 </v>
   <v>       0.90504583       0.35623445       0.59873056 </v>
   <v>       0.90137445       0.69776427       0.09245824 </v>
   <v>       0.89789487       0.62511505       0.60133366 </v>
   <v>       0.15664598       0.18693100       0.15290036 </v>
   <v>       0.14643686       0.50854440       0.16912310 </v>
   <v>       0.18666873       0.45898060       0.65245456 </v>
   <v>       0.16505876       0.84852204       0.15104524 </v>
   <v>       0.15184873       0.82385965       0.66645721 </v>
   <v>       0.34588678       0.00850804       0.34630906 </v>
   <v>       0.33364819       0.99980796       0.84972782 </v>
   <v>       0.34107286       0.34129092       0.33381614 </v>
   <v>       0.34043644       0.32620520       0.85821611 </v>
   <v>       0.35011887       0.66833193       0.33521277 </v>
   <v>       0.33838536       0.66839753       0.85795713 </v>
   <v>       0.08769269       0.97294984       0.36621873 </v>
   <v>       0.08168930       0.00669190       0.89260323 </v>
   <v>       0.09273149       0.29956510       0.44319709 </v>
   <v>       0.08277799       0.34236445       0.88474614 </v>
   <v>       0.09253591       0.64816376       0.41454609 </v>
   <v>       0.07952681       0.67224724       0.89557832 </v>
   <v>       0.42229862       0.15543971       0.11700224 </v>
   <v>       0.37369639       0.17904319       0.60241522 </v>
   <v>       0.41751594       0.49684536       0.11087790 </v>
   <v>       0.40217206       0.49531182       0.60513546 </v>
   <v>       0.42454419       0.84728148       0.11777391 </v>
   <v>       0.38159786       0.85064632       0.59851910 </v>
   <v>       0.99088337       0.15704684       0.11476035 </v>
   <v>       0.97606463       0.17347763       0.61960515 </v>
   <v>       0.98240231       0.51476675       0.12451081 </v>
   <v>       0.03647329       0.48998329       0.62931164 </v>
   <v>       0.04216461       0.87150728       0.21558428 </v>
   <v>       0.98504271       0.81535170       0.63742673 </v>
   <v>       0.44166809       0.01050076       0.24652805 </v>
   <v>       0.50227643       0.99375474       0.86331616 </v>
   <v>       0.51445912       0.32125450       0.35903257 </v>
   <v>       0.50553958       0.33387251       0.89024767 </v>
   <v>       0.51711230       0.68228606       0.35834413 </v>
   <v>       0.50488069       0.66365392       0.88810605 </v>
   <v>       0.67572752       0.15937667       0.27386733 </v>
   <v>       0.66383230       0.16349656       0.78067380 </v>
   <v>       0.67351370       0.49525851       0.27860447 </v>
   <v>       0.65913709       0.50105570       0.77606829 </v>
   <v>       0.67143271       0.83626757       0.27422819 </v>
   <v>       0.65973581       0.83622363       0.77897383 </v>
   <v>       0.83185824       0.98980912       0.21932392 </v>
   <v>       0.81803084       0.99715314       0.71597966 </v>
   <v>       0.83051807       0.32885458       0.21685876 </v>
   <v>       0.81440541       0.32990705       0.72361475 </v>
   <v>       0.82759209       0.66369838       0.22227414 </v>
   <v>       0.81155535       0.67360860       0.71917544 </v>
   <v>       0.82630909       0.99129240       0.44664625 </v>
   <v>       0.82565114       0.00378342       0.94031007 </v>
   <v>       0.82667868       0.32297183       0.43582585 </v>
   <v>       0.82908501       0.33657485       0.94511977 </v>
   <v>       0.81498406       0.66505542       0.44192702 </v>
   <v>       0.81448920       0.65914226       0.93578105 </v>
   <v>       0.68149426       0.16772485       0.04884631 </v>
   <v>       0.66598731       0.16960948       0.55577703 </v>
   <v>       0.67486531       0.49889158       0.05777025 </v>
   <v>       0.65066374       0.50288024       0.55267217 </v>
   <v>       0.68019379       0.82450379       0.05178906 </v>
   <v>       0.65847283       0.83345318       0.55758246 </v>
   <v>       0.51757961       0.99958142       0.08182833 </v>
   <v>       0.48331353       0.01013405       0.61996138 </v>
   <v>       0.50631962       0.32932276       0.12415600 </v>
   <v>       0.49422064       0.32941984       0.63641606 </v>
   <v>       0.50311446       0.66872956       0.12546345 </v>
   <v>       0.47912880       0.67696868       0.62876493 </v>
   <v>       0.99676722       0.13862761       0.35164385 </v>
   <v>       0.99508351       0.17335692       0.86492905 </v>
   <v>       0.99749153       0.49411403       0.36997710 </v>
   <v>       0.99044908       0.50722402       0.85911000 </v>
   <v>       0.99960916       0.81217050       0.40865760 </v>
   <v>       0.99136552       0.83954554       0.87876166 </v>
   <v>       0.19845747       0.03261524       0.27243296 </v>
   <v>       0.17075516       0.98096913       0.79281070 </v>
   <v>       0.16854417       0.34220833       0.28166202 </v>
   <v>       0.18215672       0.33526430       0.79252090 </v>
   <v>       0.18057691       0.65411350       0.30278026 </v>
   <v>       0.17311891       0.67518490       0.79536237 </v>
   <v>       0.31583361       0.23006134       0.18948465 </v>
   <v>       0.35054803       0.16579010       0.75372481 </v>
   <v>       0.32449344       0.51076049       0.21341829 </v>
   <v>       0.34109752       0.50984166       0.74689724 </v>
   <v>       0.31542636       0.79861247       0.20030342 </v>
   <v>       0.33501725       0.82648167       0.74268635 </v>
   <v>       0.36821849       0.17523390       0.43632515 </v>
   <v>       0.33230057       0.15970305       0.96300947 </v>
   <v>       0.37767623       0.50666832       0.43766172 </v>
   <v>       0.33006270       0.49890906       0.96077672 </v>
   <v>       0.37256393       0.83738146       0.43219820 </v>
   <v>       0.33650273       0.83529424       0.96306513 </v>
   <v>       0.16049628       0.01123017       0.04802248 </v>
   <v>       0.13723469       0.35343193       0.04612562 </v>
   <v>       0.27951800       0.35680010       0.56975342 </v>
   <v>       0.13932242       0.67419706       0.05655192 </v>
   <v>       0.19210324       0.65326743       0.56275133 </v>
   <v>       0.20667706       0.99952146       0.54713697 </v>
  </varray>
 </structure>
 <calculation>
  <scstep>
   <time name="total">    3.97    3.98</time>
   <energy>
    <i name="alphaZ">   5376.25786726 </i>
    <i name="ewald"> -86118.36274346 </i>
    <i name="hartreedc">  -2121.46910807 </i>
    <i name="XCdc">   2815.99950844 </i>
    <i name="pawpsdc"> 339603.40430476 </i>
    <i name="pawaedc">-370968.22370551 </i>
    <i name="eentropy">     -0.01290496 </i>
    <i name="bandstr"> -41143.21543241 </i>
    <i name="atom"> 131459.35058357 </i>
    <i name="e_fr_energy"> -21096.27163039 </i>
    <i name="e_wo_entrp"> -21096.25872543 </i>
    <i name="e_0_energy"> -21096.26517791 </i>
   </energy>
  </scstep>
  <scstep>
   <time name="total">    3.11    3.11</time>
   <energy>
    <i name="e_fr_energy"> -67789.23373101 </i>
    <i name="e_wo_entrp"> -67789.22368753 </i>
    <i name="e_0_energy"> -67789.22870927 </i>
   </energy>
  </scstep>
  <scstep>
   <time name="total">    3.60    3.60</time>
   <energy>
    <i name="e_fr_energy"> -74306.49626277 </i>
    <i name="e_wo_entrp"> -74306.47389919 </i>
    <i name="e_0_energy"> -74306.48508098 </i>
   </energy>
  </scstep>
  <scstep>
   <time name="total">    4.45    4.45</time>
   <energy>
    <i name="e_fr_energy"> -75330.10932788 </i>
    <i name="e_wo_entrp"> -75330.08239534 </i>
    <i name="e_0_energy"> -75330.09586161 </i>
   </energy>
  </scstep>
  <scstep>
   <time name="total">  235.39  235.35</time>
   <energy>
    <i name="e_fr_energy"> -42901.95736673 </i>
    <i name="e_wo_entrp"> -42901.95736673 </i>
    <i name="e_0_energy"> -42901.95736673 </i>
   </energy>
  </scstep>
  <scstep>
   <time name="total">  469.30  469.23</time>
   <energy>
    <i name="e_fr_energy">  47302.50306536 </i>
    <i name="e_wo_entrp">  47302.51354708 </i>
    <i name="e_0_energy">  47302.50830622 </i>
   </energy>
  </scstep>
  <scstep>
   <time name="total">  469.12  469.05</time>
   <energy>
    <i name="e_fr_energy">  52640.58154079 </i>
    <i name="e_wo_entrp">  52640.59022706 </i>
    <i name="e_0_energy">  52640.58588392 </i>
   </energy>
  </scstep>
  <scstep>
   <time name="total">  468.51  468.46</time>
   <energy>
    <i name="e_fr_energy">  51466.09442808 </i>
    <i name="e_wo_entrp">  51466.09442809 </i>
    <i name="e_0_energy">  51466.09442808 </i>
   </energy>
  </scstep>
  <scstep>
   <time name="total">  468.17  468.10</time>
   <energy>
    <i name="e_fr_energy">  45524.26964514 </i>
    <i name="e_wo_entrp">  45524.27697991 </i>
    <i name="e_0_energy">  45524.27331253 </i>
   </energy>
  </scstep>
  <scstep>
   <time name="total">  468.63  468.59</time>
   <energy>
    <i name="e_fr_energy">  49202.27583617 </i>
    <i name="e_wo_entrp">  49202.28685525 </i>
    <i name="e_0_energy">  49202.28134571 </i>
   </energy>
  </scstep>
  <scstep>
   <time name="total">  468.49  468.41</time>
   <energy>
    <i name="e_fr_energy">  53803.60671073 </i>
    <i name="e_wo_entrp">  53803.60675252 </i>
    <i name="e_0_energy">  53803.60673163 </i>
   </energy>
  </scstep>
  <scstep>
   <time name="total">  469.08  469.00</time>
   <energy>
    <i name="e_fr_energy">  76841.17047469 </i>
    <i name="e_wo_entrp">  76841.17055226 </i>
    <i name="e_0_energy">  76841.17051347 </i>
   </energy>
  </scstep>
  <scstep>
   <time name="total">  468.29  468.23</time>
   <energy>
    <i name="e_fr_energy">  80214.86748188 </i>
    <i name="e_wo_entrp">  80214.86756493 </i>
    <i name="e_0_energy">  80214.86752340 </i>
   </energy>
  </scstep>
  <scstep>
   <time name="total">  468.69  468.61</time>
   <energy>
    <i name="e_fr_energy">  84037.71104839 </i>
    <i name="e_wo_entrp">  84037.71104839 </i>
    <i name="e_0_energy">  84037.71104839 </i>
   </energy>
  </scstep>
  <scstep>
   <time name="total">  468.66  468.59</time>
   <energy>
    <i name="e_fr_energy">  92967.72969985 </i>
    <i name="e_wo_entrp">  92967.72972289 </i>
    <i name="e_0_energy">  92967.72971137 </i>
   </energy>
  </scstep>
  <scstep>
   <time name="total">  468.45  468.38</time>
   <energy>
    <i name="e_fr_energy"> 101484.44350086 </i>
    <i name="e_wo_entrp"> 101484.45347648 </i>
    <i name="e_0_energy"> 101484.44848867 </i>
   </energy>
  </scstep>
  <scstep>
   <time name="total">  468.39  468.32</time>
   <energy>
    <i name="e_fr_energy"> 115994.76971659 </i>
    <i name="e_wo_entrp"> 115994.76974129 </i>
    <i name="e_0_energy"> 115994.76972894 </i>
   </energy>
  </scstep>
  <scstep>
   <time name="total">  468.48  468.42</time>
   <energy>
    <i name="e_fr_energy"> 123031.14423823 </i>
    <i name="e_wo_entrp"> 123031.14423823 </i>
    <i name="e_0_energy"> 123031.14423823 </i>
   </energy>
  </scstep>
  <scstep>
   <time name="total">  468.47  468.40</time>
   <energy>
    <i name="e_fr_energy"> 138038.38592049 </i>
    <i name="e_wo_entrp"> 138038.38635556 </i>
    <i name="e_0_energy"> 138038.38613803 </i>
   </energy>
  </scstep>
  <scstep>
   <time name="total">  468.61  468.55</time>
   <energy>
    <i name="e_fr_energy"> 142434.66578649 </i>
    <i name="e_wo_entrp"> 142434.66604798 </i>
    <i name="e_0_energy"> 142434.66591724 </i>
   </energy>
  </scstep>
  <scstep>
   <time name="total">  468.92  468.84</time>
   <energy>
    <i name="e_fr_energy"> 157815.85533712 </i>
    <i name="e_wo_entrp"> 157815.85590075 </i>
    <i name="e_0_energy"> 157815.85561894 </i>
   </energy>
  </scstep>
  <scstep>
   <time name="total">  468.30  468.23</time>
   <energy>
    <i name="e_fr_energy"> 160638.95224508 </i>
    <i name="e_wo_entrp"> 160638.95486259 </i>
    <i name="e_0_energy"> 160638.95355383 </i>
   </energy>
  </scstep>
  <scstep>
   <time name="total">  468.14  468.08</time>
   <energy>
    <i name="e_fr_energy"> 173957.85545864 </i>
    <i name="e_wo_entrp"> 173957.86287120 </i>
    <i name="e_0_energy"> 173957.85916492 </i>
   </energy>
  </scstep>
  <scstep>
   <time name="total">  468.40  468.31</time>
   <energy>
    <i name="e_fr_energy"> 178553.67878425 </i>
    <i name="e_wo_entrp"> 178553.68348180 </i>
    <i name="e_0_energy"> 178553.68113303 </i>
   </energy>
  </scstep>
  <scstep>
   <time name="total">  468.64  468.55</time>
   <energy>
    <i name="e_fr_energy"> 191713.61442228 </i>
    <i name="e_wo_entrp"> 191713.61456931 </i>
    <i name="e_0_energy"> 191713.61449580 </i>
   </energy>
  </scstep>
  <scstep>
   <time name="total">  468.46  468.41</time>
   <energy>
    <i name="e_fr_energy"> 191509.28348614 </i>
    <i name="e_wo_entrp"> 191509.29029776 </i>
    <i name="e_0_energy"> 191509.28689195 </i>
   </energy>
  </scstep>
  <scstep>
   <time name="total">  468.82  468.76</time>
   <energy>
    <i name="e_fr_energy"> 204757.64918926 </i>
    <i name="e_wo_entrp"> 204757.65608246 </i>
    <i name="e_0_energy"> 204757.65263586 </i>
   </energy>
  </scstep>
  <scstep>
   <time name="total">  468.81  468.74</time>
   <energy>
    <i name="e_fr_energy"> 225166.43568668 </i>
    <i name="e_wo_entrp"> 225166.44426318 </i>
    <i name="e_0_energy"> 225166.43997493 </i>
   </energy>
  </scstep>
  <scstep>
   <time name="total">  468.77  468.70</time>
   <energy>
    <i name="e_fr_energy"> 189066.73161585 </i>
    <i name="e_wo_entrp"> 189066.73436469 </i>
    <i name="e_0_energy"> 189066.73299027 </i>
   </energy>
  </scstep>
  <scstep>
   <time name="total">  468.60  468.52</time>
   <energy>
    <i name="e_fr_energy">  96700.44188477 </i>
    <i name="e_wo_entrp">  96700.44770514 </i>
    <i name="e_0_energy">  96700.44479496 </i>
   </energy>
  </scstep>
  <scstep>
   <time name="total">  468.62  468.56</time>
   <energy>
    <i name="e_fr_energy">  52032.32248882 </i>
    <i name="e_wo_entrp">  52032.33133622 </i>
    <i name="e_0_energy">  52032.32691252 </i>
   </energy>
  </scstep>
  <scstep>
   <time name="total"> 1172.35 1172.16</time>
   <energy>
    <i name="e_fr_energy">  29764.61312106 </i>
    <i name="e_wo_entrp">  29764.62462360 </i>
    <i name="e_0_energy">  29764.61887233 </i>
   </energy>
  </scstep>
  <scstep>
   <time name="total">  469.42  469.35</time>
   <energy>
    <i name="e_fr_energy">  28389.87061578 </i>
    <i name="e_wo_entrp">  28389.88266890 </i>
    <i name="e_0_energy">  28389.87664234 </i>
   </energy>
  </scstep>
  <scstep>
   <time name="total"> 1173.31 1173.13</time>
   <energy>
    <i name="e_fr_energy">  15794.00660705 </i>
    <i name="e_wo_entrp">  15794.01960878 </i>
    <i name="e_0_energy">  15794.01310791 </i>
   </energy>
  </scstep>
  <scstep>
   <time name="total">  468.80  468.75</time>
   <energy>
    <i name="e_fr_energy">  48051.72684008 </i>
    <i name="e_wo_entrp">  48051.73268008 </i>
    <i name="e_0_energy">  48051.72976008 </i>
   </energy>
  </scstep>
  <scstep>
   <time name="total">  468.89  468.81</time>
   <energy>
    <i name="e_fr_energy">  31814.20666095 </i>
    <i name="e_wo_entrp">  31814.21082231 </i>
    <i name="e_0_energy">  31814.20874163 </i>
   </energy>
  </scstep>
  <scstep>
   <time name="total">  468.72  468.64</time>
   <energy>
    <i name="e_fr_energy">  17191.92286772 </i>
    <i name="e_wo_entrp">  17191.92929570 </i>
    <i name="e_0_energy">  17191.92608171 </i>
   </energy>
  </scstep>
  <scstep>
   <time name="total">  468.76  468.69</time>
   <energy>
    <i name="e_fr_energy">  13423.99812261 </i>
    <i name="e_wo_entrp">  13424.00743424 </i>
    <i name="e_0_energy">  13424.00277842 </i>
   </energy>
  </scstep>
  <scstep>
   <time name="total">  468.68  468.63</time>
   <energy>
    <i name="e_fr_energy">   8972.53577223 </i>
    <i name="e_wo_entrp">   8972.54077823 </i>
    <i name="e_0_energy">   8972.53827523 </i>
   </energy>
  </scstep>
  <scstep>
   <time name="total">  468.48  468.40</time>
   <energy>
    <i name="e_fr_energy">   7394.83539374 </i>
    <i name="e_wo_entrp">   7394.84946625 </i>
    <i name="e_0_energy">   7394.84242999 </i>
   </energy>
  </scstep>
  <scstep>
   <time name="total">  469.34  469.28</time>
   <energy>
    <i name="e_fr_energy">  15821.19205682 </i>
    <i name="e_wo_entrp">  15821.21536179 </i>
    <i name="e_0_energy">  15821.20370930 </i>
   </energy>
  </scstep>
  <scstep>
   <time name="total">  469.84  469.78</time>
   <energy>
    <i name="e_fr_energy">   5363.32331091 </i>
    <i name="e_wo_entrp">   5363.33871087 </i>
    <i name="e_0_energy">   5363.33101089 </i>
   </energy>
  </scstep>
  <scstep>
   <time name="total">  469.64  469.57</time>
   <energy>
    <i name="e_fr_energy">   2837.52789639 </i>
    <i name="e_wo_entrp">   2837.53977406 </i>
    <i name="e_0_energy">   2837.53383523 </i>
   </energy>
  </scstep>
  <scstep>
   <time name="total">  470.05  469.99</time>
   <energy>
    <i name="e_fr_energy">   1865.70984224 </i>
    <i name="e_wo_entrp">   1865.72589424 </i>
    <i name="e_0_energy">   1865.71786824 </i>
   </energy>
  </scstep>
  <scstep>
   <time name="total">  469.42  469.34</time>
   <energy>
    <i name="e_fr_energy">   1485.53924118 </i>
    <i name="e_wo_entrp">   1485.55033809 </i>
    <i name="e_0_energy">   1485.54478963 </i>
   </energy>
  </scstep>
  <scstep>
   <time name="total">  469.41  469.33</time>
   <energy>
    <i name="e_fr_energy">   1079.93330326 </i>
    <i name="e_wo_entrp">   1079.96267875 </i>
    <i name="e_0_energy">   1079.94799101 </i>
   </energy>
  </scstep>
  <scstep>
   <time name="total">  470.71  470.63</time>
   <energy>
    <i name="e_fr_energy">   5617.26792649 </i>
    <i name="e_wo_entrp">   5617.29128206 </i>
    <i name="e_0_energy">   5617.27960427 </i>
   </energy>
  </scstep>
  <scstep>
   <time name="total">  470.16  470.09</time>
   <energy>
    <i name="e_fr_energy">   2284.74870008 </i>
    <i name="e_wo_entrp">   2284.76278823 </i>
    <i name="e_0_energy">   2284.75574415 </i>
   </energy>
  </scstep>
  <scstep>
   <time name="total">  469.03  468.97</time>
   <energy>
    <i name="e_fr_energy">    429.43308324 </i>
    <i name="e_wo_entrp">    429.44938841 </i>
    <i name="e_0_energy">    429.44123583 </i>
   </energy>
  </scstep>
  <scstep>
   <time name="total">  469.06  468.99</time>
   <energy>
    <i name="e_fr_energy">    -83.25352927 </i>
    <i name="e_wo_entrp">    -83.24606939 </i>
    <i name="e_0_energy">    -83.24979933 </i>
   </energy>
  </scstep>
  <scstep>
   <time name="total">  469.71  469.68</time>
   <energy>
    <i name="e_fr_energy">   -333.78420874 </i>
    <i name="e_wo_entrp">   -333.77692108 </i>
    <i name="e_0_energy">   -333.78056491 </i>
   </energy>
  </scstep>
  <scstep>
   <time name="total">  468.89  468.82</time>
   <energy>
    <i name="e_fr_energy">   -344.59141108 </i>
    <i name="e_wo_entrp">   -344.58077229 </i>
    <i name="e_0_energy">   -344.58609168 </i>
   </energy>
  </scstep>
  <scstep>
   <time name="total">  469.14  469.05</time>
   <energy>
    <i name="e_fr_energy">   -500.94959964 </i>
    <i name="e_wo_entrp">   -500.94257287 </i>
    <i name="e_0_energy">   -500.94608625 </i>
   </energy>
  </scstep>
  <scstep>
   <time name="total">  469.16  469.10</time>
   <energy>
    <i name="e_fr_energy">   -708.69107514 </i>
    <i name="e_wo_entrp">   -708.68914336 </i>
    <i name="e_0_energy">   -708.69010925 </i>
   </energy>
  </scstep>
  <scstep>
   <time name="total">  468.66  468.59</time>
   <energy>
    <i name="e_fr_energy">   -796.56089461 </i>
    <i name="e_wo_entrp">   -796.55962489 </i>
    <i name="e_0_energy">   -796.56025975 </i>
   </energy>
  </scstep>
  <scstep>
   <time name="total">  468.41  468.34</time>
   <energy>
    <i name="e_fr_energy">   -840.31282734 </i>
    <i name="e_wo_entrp">   -840.31007859 </i>
    <i name="e_0_energy">   -840.31145296 </i>
   </energy>
  </scstep>
  <scstep>
   <time name="total">  468.61  468.53</time>
   <energy>
    <i name="e_fr_energy">   -855.99954805 </i>
    <i name="e_wo_entrp">   -855.99894642 </i>
    <i name="e_0_energy">   -855.99924724 </i>
   </energy>
  </scstep>
  <scstep>
   <time name="total">  468.42  468.36</time>
   <energy>
    <i name="e_fr_energy">   -864.46659666 </i>
    <i name="e_wo_entrp">   -864.46299235 </i>
    <i name="e_0_energy">   -864.46479451 </i>
   </energy>
  </scstep>
  <scstep>
   <time name="total">  468.34  468.27</time>
   <energy>
    <i name="e_fr_energy">   -868.75461914 </i>
    <i name="e_wo_entrp">   -868.74972337 </i>
    <i name="e_0_energy">   -868.75217126 </i>
   </energy>
  </scstep>
  <scstep>
   <time name="total">  468.57  468.49</time>
   <energy>
    <i name="e_fr_energy">   -870.37208771 </i>
    <i name="e_wo_entrp">   -870.36810019 </i>
    <i name="e_0_energy">   -870.37009395 </i>
   </energy>
  </scstep>
  <scstep>
   <time name="total">  468.60  468.52</time>
   <energy>
    <i name="e_fr_energy">   -871.11337246 </i>
    <i name="e_wo_entrp">   -871.10550750 </i>
    <i name="e_0_energy">   -871.10943998 </i>
   </energy>
  </scstep>
  <scstep>
   <time name="total">  468.85  468.80</time>
   <energy>
    <i name="e_fr_energy">   -871.45067205 </i>
    <i name="e_wo_entrp">   -871.44286058 </i>
    <i name="e_0_energy">   -871.44676632 </i>
   </energy>
  </scstep>
  <scstep>
   <time name="total">  468.68  468.61</time>
   <energy>
    <i name="e_fr_energy">   -871.61674337 </i>
    <i name="e_wo_entrp">   -871.60830839 </i>
    <i name="e_0_energy">   -871.61252588 </i>
   </energy>
  </scstep>
  <scstep>
   <time name="total">  469.00  468.93</time>
   <energy>
    <i name="e_fr_energy">   -871.70447257 </i>
    <i name="e_wo_entrp">   -871.69557243 </i>
    <i name="e_0_energy">   -871.70002250 </i>
   </energy>
  </scstep>
  <scstep>
   <time name="total">  468.79  468.72</time>
   <energy>
    <i name="e_fr_energy">   -871.73725883 </i>
    <i name="e_wo_entrp">   -871.72838371 </i>
    <i name="e_0_energy">   -871.73282127 </i>
   </energy>
  </scstep>
  <scstep>
   <time name="total">  468.82  468.75</time>
   <energy>
    <i name="e_fr_energy">   -871.75387779 </i>
    <i name="e_wo_entrp">   -871.74495293 </i>
    <i name="e_0_energy">   -871.74941536 </i>
   </energy>
  </scstep>
  <scstep>
   <time name="total">  468.62  468.60</time>
   <energy>
    <i name="e_fr_energy">   -871.76209694 </i>
    <i name="e_wo_entrp">   -871.75315532 </i>
    <i name="e_0_energy">   -871.75762613 </i>
   </energy>
  </scstep>
  <scstep>
   <time name="total">  468.41  468.35</time>
   <energy>
    <i name="e_fr_energy">   -871.76582890 </i>
    <i name="e_wo_entrp">   -871.75688903 </i>
    <i name="e_0_energy">   -871.76135897 </i>
   </energy>
  </scstep>
  <scstep>
   <time name="total">  468.81  468.75</time>
   <energy>
    <i name="e_fr_energy">   -871.76802745 </i>
    <i name="e_wo_entrp">   -871.75910980 </i>
    <i name="e_0_energy">   -871.76356862 </i>
   </energy>
  </scstep>
  <scstep>
   <time name="total">  468.84  468.76</time>
   <energy>
    <i name="e_fr_energy">   -871.76889804 </i>
    <i name="e_wo_entrp">   -871.75998429 </i>
    <i name="e_0_energy">   -871.76444117 </i>
   </energy>
  </scstep>
  <scstep>
   <time name="total">  468.71  468.64</time>
   <energy>
    <i name="e_fr_energy">   -871.76929235 </i>
    <i name="e_wo_entrp">   -871.76036583 </i>
    <i name="e_0_energy">   -871.76482909 </i>
   </energy>
  </scstep>
  <scstep>
   <time name="total">  468.62  468.56</time>
   <energy>
    <i name="e_fr_energy">   -871.76948558 </i>
    <i name="e_wo_entrp">   -871.76056456 </i>
    <i name="e_0_energy">   -871.76502507 </i>
   </energy>
  </scstep>
  <scstep>
   <time name="total">  468.57  468.50</time>
   <energy>
    <i name="e_fr_energy">   -871.76958752 </i>
    <i name="e_wo_entrp">   -871.76066557 </i>
    <i name="e_0_energy">   -871.76512654 </i>
   </energy>
  </scstep>
  <scstep>
   <time name="total">  468.82  468.75</time>
   <energy>
    <i name="e_fr_energy">   -871.76963915 </i>
    <i name="e_wo_entrp">   -871.76071428 </i>
    <i name="e_0_energy">   -871.76517671 </i>
   </energy>
  </scstep>
  <scstep>
   <time name="total">  468.73  468.65</time>
   <energy>
    <i name="e_fr_energy">   -871.76966186 </i>
    <i name="e_wo_entrp">   -871.76073969 </i>
    <i name="e_0_energy">   -871.76520077 </i>
   </energy>
  </scstep>
  <scstep>
   <time name="total">  468.60  468.53</time>
   <energy>
    <i name="e_fr_energy">   -871.76967201 </i>
    <i name="e_wo_entrp">   -871.76074929 </i>
    <i name="e_0_energy">   -871.76521065 </i>
   </energy>
  </scstep>
  <scstep>
   <time name="total">  698.87  698.76</time>
   <energy>
    <i name="alphaZ">   5376.25786726 </i>
    <i name="ewald"> -86118.36274346 </i>
    <i name="hartreedc"> -34476.13591215 </i>
    <i name="XCdc">   2788.74267871 </i>
    <i name="pawpsdc"> 121764.75827001 </i>
    <i name="pawaedc">-136960.62113700 </i>
    <i name="eentropy">     -0.00892298 </i>
    <i name="bandstr">  -8999.28538598 </i>
    <i name="atom"> 131459.35058357 </i>
    <i name="e_fr_energy">   -871.76967674 </i>
    <i name="e_wo_entrp">   -871.76075376 </i>
    <i name="e_0_energy">   -871.76521525 </i>
   </energy>
  </scstep>
  <structure>
   <crystal>
    <varray name="basis" >
     <v>       0.00000000      12.28047342       0.00000000 </v>
     <v>       9.14270205       0.00000000       0.00000000 </v>
     <v>       0.00000000      -2.76826177     -11.30069772 </v>
    </varray>
    <i name="volume">   1268.80515525 </i>
    <varray name="rec_basis" >
     <v>       0.00000000       0.08143009      -0.01994742 </v>
     <v>       0.10937686      -0.00000000       0.00000000 </v>
     <v>       0.00000000       0.00000000      -0.08849011 </v>
    </varray>
   </crystal>
   <varray name="positions" >
    <v>       0.67205140       0.99719916       0.15209277 </v>
    <v>       0.64348254       0.00356456       0.65362779 </v>
    <v>       0.66671193       0.32795040       0.15742241 </v>
    <v>       0.64895119       0.33169736       0.65282488 </v>
    <v>       0.66399727       0.66524847       0.16149848 </v>
    <v>       0.64135127       0.67075779       0.65349832 </v>
    <v>       0.84379181       0.15667965       0.34336112 </v>
    <v>       0.83208096       0.16754165       0.84004577 </v>
    <v>       0.84160750       0.49701055       0.34489862 </v>
    <v>       0.82851133       0.50033473       0.83505349 </v>
    <v>       0.84032200       0.82506994       0.34691642 </v>
    <v>       0.82738990       0.83379530       0.83815923 </v>
    <v>       0.58762627       0.13627206       0.39525004 </v>
    <v>       0.58442141       0.16137839       0.89936124 </v>
    <v>       0.58515383       0.50058142       0.39279236 </v>
    <v>       0.59240506       0.49879089       0.90372305 </v>
    <v>       0.58761860       0.86892755       0.39683827 </v>
    <v>       0.58755730       0.83152770       0.90295247 </v>
    <v>       0.91679680       0.96383866       0.09970835 </v>
    <v>       0.90937054       0.99662848       0.60404488 </v>
    <v>       0.91233555       0.33271036       0.10061453 </v>
    <v>       0.90504583       0.35623445       0.59873056 </v>
    <v>       0.90137445       0.69776427       0.09245824 </v>
    <v>       0.89789487       0.62511505       0.60133366 </v>
    <v>       0.15664598       0.18693100       0.15290036 </v>
    <v>       0.14643686       0.50854440       0.16912310 </v>
    <v>       0.18666873       0.45898060       0.65245456 </v>
    <v>       0.16505876       0.84852204       0.15104524 </v>
    <v>       0.15184873       0.82385965       0.66645721 </v>
    <v>       0.34588678       0.00850804       0.34630906 </v>
    <v>       0.33364819       0.99980796       0.84972782 </v>
    <v>       0.34107286       0.34129092       0.33381614 </v>
    <v>       0.34043644       0.32620520       0.85821611 </v>
    <v>       0.35011887       0.66833193       0.33521277 </v>
    <v>       0.33838536       0.66839753       0.85795713 </v>
    <v>       0.08769269       0.97294984       0.36621873 </v>
    <v>       0.08168930       0.00669190       0.89260323 </v>
    <v>       0.09273149       0.29956510       0.44319709 </v>
    <v>       0.08277799       0.34236445       0.88474614 </v>
    <v>       0.09253591       0.64816376       0.41454609 </v>
    <v>       0.07952681       0.67224724       0.89557832 </v>
    <v>       0.42229862       0.15543971       0.11700224 </v>
    <v>       0.37369639       0.17904319       0.60241522 </v>
    <v>       0.41751594       0.49684536       0.11087790 </v>
    <v>       0.40217206       0.49531182       0.60513546 </v>
    <v>       0.42454419       0.84728148       0.11777391 </v>
    <v>       0.38159786       0.85064632       0.59851910 </v>
    <v>       0.99088337       0.15704684       0.11476035 </v>
    <v>       0.97606463       0.17347763       0.61960515 </v>
    <v>       0.98240231       0.51476675       0.12451081 </v>
    <v>       0.03647329       0.48998329       0.62931164 </v>
    <v>       0.04216461       0.87150728       0.21558428 </v>
    <v>       0.98504271       0.81535170       0.63742673 </v>
    <v>       0.44166809       0.01050076       0.24652805 </v>
    <v>       0.50227643       0.99375474       0.86331616 </v>
    <v>       0.51445912       0.32125450       0.35903257 </v>
    <v>       0.50553958       0.33387251       0.89024767 </v>
    <v>       0.51711230       0.68228606       0.35834413 </v>
    <v>       0.50488069       0.66365392       0.88810605 </v>
    <v>       0.67572752       0.15937667       0.27386733 </v>
    <v>       0.66383230       0.16349656       0.78067380 </v>
    <v>       0.67351370       0.49525851       0.27860447 </v>
    <v>       0.65913709       0.50105570       0.77606829 </v>
    <v>       0.67143271       0.83626757       0.27422819 </v>
    <v>       0.65973581       0.83622363       0.77897383 </v>
    <v>       0.83185824       0.98980912       0.21932392 </v>
    <v>       0.81803084       0.99715314       0.71597966 </v>
    <v>       0.83051807       0.32885458       0.21685876 </v>
    <v>       0.81440541       0.32990705       0.72361475 </v>
    <v>       0.82759209       0.66369838       0.22227414 </v>
    <v>       0.81155535       0.67360860       0.71917544 </v>
    <v>       0.82630909       0.99129240       0.44664625 </v>
    <v>       0.82565114       0.00378342       0.94031007 </v>
    <v>       0.82667868       0.32297183       0.43582585 </v>
    <v>       0.82908501       0.33657485       0.94511977 </v>
    <v>       0.81498406       0.66505542       0.44192702 </v>
    <v>       0.81448920       0.65914226       0.93578105 </v>
    <v>       0.68149426       0.16772485       0.04884631 </v>
    <v>       0.66598731       0.16960948       0.55577703 </v>
    <v>       0.67486531       0.49889158       0.05777025 </v>
    <v>       0.65066374       0.50288024       0.55267217 </v>
    <v>       0.68019379       0.82450379       0.05178906 </v>
    <v>       0.65847283       0.83345318       0.55758246 </v>
    <v>       0.51757961       0.99958142       0.08182833 </v>
    <v>       0.48331353       0.01013405       0.61996138 </v>
    <v>       0.50631962       0.32932276       0.12415600 </v>
    <v>       0.49422064       0.32941984       0.63641606 </v>
    <v>       0.50311446       0.66872956       0.12546345 </v>
    <v>       0.47912880       0.67696868       0.62876493 </v>
    <v>       0.99676722       0.13862761       0.35164385 </v>
    <v>       0.99508351       0.17335692       0.86492905 </v>
    <v>       0.99749153       0.49411403       0.36997710 </v>
    <v>       0.99044908       0.50722402       0.85911000 </v>
    <v>       0.99960916       0.81217050       0.40865760 </v>
    <v>       0.99136552       0.83954554       0.87876166 </v>
    <v>       0.19845747       0.03261524       0.27243296 </v>
    <v>       0.17075516       0.98096913       0.79281070 </v>
    <v>       0.16854417       0.34220833       0.28166202 </v>
    <v>       0.18215672       0.33526430       0.79252090 </v>
    <v>       0.18057691       0.65411350       0.30278026 </v>
    <v>       0.17311891       0.67518490       0.79536237 </v>
    <v>       0.31583361       0.23006134       0.18948465 </v>
    <v>       0.35054803       0.16579010       0.75372481 </v>
    <v>       0.32449344       0.51076049       0.21341829 </v>
    <v>       0.34109752       0.50984166       0.74689724 </v>
    <v>       0.31542636       0.79861247       0.20030342 </v>
    <v>       0.33501725       0.82648167       0.74268635 </v>
    <v>       0.36821849       0.17523390       0.43632515 </v>
    <v>       0.33230057       0.15970305       0.96300947 </v>
    <v>       0.37767623       0.50666832       0.43766172 </v>
    <v>       0.33006270       0.49890906       0.96077672 </v>
    <v>       0.37256393       0.83738146       0.43219820 </v>
    <v>       0.33650273       0.83529424       0.96306513 </v>
    <v>       0.16049628       0.01123017       0.04802248 </v>
    <v>       0.13723469       0.35343193       0.04612562 </v>
    <v>       0.27951800       0.35680010       0.56975342 </v>
    <v>       0.13932242       0.67419706       0.05655192 </v>
    <v>       0.19210324       0.65326743       0.56275133 </v>
    <v>       0.20667706       0.99952146       0.54713697 </v>
   </varray>
  </structure>
  <varray name="forces" >
   <v>      -0.01121833       0.01325502       0.04213042 </v>
   <v>       0.02088494       0.02586498       0.07418292 </v>
   <v>       0.00471032       0.07370833      -0.00561663 </v>
   <v>      -0.02872411       0.06338396       0.05072888 </v>
   <v>      -0.00528464       0.09969640       0.00158231 </v>
   <v>       0.05413667       0.17612171       0.06146336 </v>
   <v>       0.06791263      -0.00184532      -0.05222832 </v>
   <v>       0.07312307      -0.08682720       0.04571324 </v>
   <v>      -0.03605400       0.01392714      -0.11900390 </v>
   <v>       0.04756612      -0.04256696       0.06976004 </v>
   <v>      -0.13408797      -0.08462328      -0.15783083 </v>
   <v>      -0.06516891      -0.07166625       0.05607671 </v>
   <v>       0.38334960       0.22079994      -0.08223180 </v>
   <v>       0.01619925      -0.00158583       0.07133831 </v>
   <v>      -0.01779600       0.06319153      -0.01387735 </v>
   <v>      -0.01063133      -0.10571156      -0.01109765 </v>
   <v>      -0.42689870       0.24093321      -0.11875953 </v>
   <v>       0.00975248      -0.05561014       0.08727305 </v>
   <v>       0.05108313      -0.14167332      -0.21960117 </v>
   <v>       0.16019987      -0.09123765       0.03215605 </v>
   <v>       0.01385037      -0.15648526      -0.00643838 </v>
   <v>       0.13686688       0.06524101       0.10052361 </v>
   <v>      -0.33580876      -0.31877350       0.09131377 </v>
   <v>      -0.20872414      -0.21088078       0.05914571 </v>
   <v>       0.07179866       0.18434327      -0.12768177 </v>
   <v>      -0.05027276       0.01743864      -0.04290618 </v>
   <v>      -0.04996722      -0.07921074       0.01816821 </v>
   <v>       0.01493298       0.01978232      -0.05881230 </v>
   <v>      -0.14923138       0.00526057      -0.30322223 </v>
   <v>       0.10749608      -0.03327978       0.08499272 </v>
   <v>       0.08319190      -0.01715530       0.12810021 </v>
   <v>      -0.05514071       0.03753289       0.05889998 </v>
   <v>      -0.14943807      -0.10237084       0.15487076 </v>
   <v>      -0.03859142       0.02139515       0.04288614 </v>
   <v>      -0.01301622      -0.02024568       0.18607320 </v>
   <v>       0.04983297      -0.28385700       0.45286494 </v>
   <v>      -0.01242196       0.09823990       0.01964436 </v>
   <v>      -0.06043422      -0.21327871       0.33813155 </v>
   <v>       0.01503882       0.00366589       0.00224975 </v>
   <v>      -0.06730756      -0.03183279       0.04173297 </v>
   <v>      -0.01425671      -0.02642508       0.02611532 </v>
   <v>       0.09189020      -0.12849567       0.01335851 </v>
   <v>       0.32393617       0.02237363      -0.09141838 </v>
   <v>       0.03521439      -0.14776222       0.11937224 </v>
   <v>      -0.36249776      -0.11547623       0.08976434 </v>
   <v>      -0.04685913      -0.06143639       0.12192018 </v>
   <v>       0.09362182       0.25645340      -0.09597213 </v>
   <v>       0.16720032      -0.07074111       0.02247397 </v>
   <v>      -0.21476901      -0.73141422       0.13306311 </v>
   <v>      -0.09280196      -0.04673113       0.08781710 </v>
   <v>      -0.07257418       0.69547110      -0.07817466 </v>
   <v>       0.42512468       0.56116215      -0.08261185 </v>
   <v>       0.18587750       0.00433710       0.15893618 </v>
   <v>       0.06282485      -0.50204246       0.23561818 </v>
   <v>       0.01124999       0.35373398      -0.42462995 </v>
   <v>       0.05232953       0.19785206      -0.18289214 </v>
   <v>      -0.03944014       0.24271957      -0.05477766 </v>
   <v>      -0.03647175       0.07147626      -0.16313966 </v>
   <v>       0.05837908       0.29332879      -0.09510828 </v>
   <v>      -0.05329003       0.11760665       0.07626406 </v>
   <v>      -0.07159557       0.00283985      -0.11938763 </v>
   <v>       0.05386327       0.02134141      -0.06833149 </v>
   <v>       0.02545419       0.00582844      -0.18646737 </v>
   <v>       0.02278988       0.10736141       0.05764577 </v>
   <v>      -0.00867964       0.02463168      -0.15300299 </v>
   <v>      -0.02767495      -0.19857263       0.04763737 </v>
   <v>      -0.02147856       0.06277364      -0.00232673 </v>
   <v>       0.00899692      -0.03313893       0.25758338 </v>
   <v>      -0.14553949      -0.32601493      -0.32297777 </v>
   <v>       0.11046073      -0.17098438      -0.00112406 </v>
   <v>       0.10875779      -0.16672707      -0.23273076 </v>
   <v>      -0.01405938       0.47588516      -0.01005936 </v>
   <v>       0.03135133       0.38816448       0.23431765 </v>
   <v>      -0.14114819       0.46010625       0.29497335 </v>
   <v>      -0.03633980       0.41465028      -0.06282561 </v>
   <v>       0.14983610       0.52786496       0.27620199 </v>
   <v>      -0.01198350       0.41790441       0.13199916 </v>
   <v>      -0.05109102      -0.50656775       0.03427478 </v>
   <v>      -0.01170730      -0.47332537      -0.11011573 </v>
   <v>      -0.01196806      -0.43962663       0.07980496 </v>
   <v>      -0.00821718      -0.46896104       0.12258061 </v>
   <v>       0.07546149      -0.50739463       0.09156802 </v>
   <v>       0.02987691      -0.43337329      -0.08060041 </v>
   <v>      -0.05935171      -0.15074641      -0.44718234 </v>
   <v>      -0.18017586      -0.05177437      -0.02734764 </v>
   <v>      -0.03445593      -0.09184855      -0.03652652 </v>
   <v>       0.21393111       0.06999690       0.10970634 </v>
   <v>       0.04856439      -0.06908910      -0.04995364 </v>
   <v>      -0.13919565      -0.04530347       0.09648688 </v>
   <v>      -0.19072735      -0.12280436      -0.16866029 </v>
   <v>      -0.08030665       0.20214289      -0.15560031 </v>
   <v>       0.49226990      -0.19647383      -0.12233550 </v>
   <v>      -0.00227060       0.21401303      -0.21316180 </v>
   <v>      -0.10712160       0.17098313       0.31864564 </v>
   <v>      -0.01719046       0.26599952       0.02989495 </v>
   <v>      -0.06463414       0.25785588      -0.04411841 </v>
   <v>      -0.24055216      -0.15739540      -0.42653153 </v>
   <v>       0.06311879       0.32746151       0.39899619 </v>
   <v>       0.31559413       0.02251423      -0.33734197 </v>
   <v>      -0.17633686      -0.08417156      -0.12776811 </v>
   <v>       0.29601520      -0.12958689      -0.23789254 </v>
   <v>      -0.10485810      -0.00247383      -0.13045787 </v>
   <v>       0.01943891       0.06801610      -0.03450593 </v>
   <v>      -0.01314550       0.16697954      -0.04219313 </v>
   <v>      -0.01352034      -0.18187088       0.14652984 </v>
   <v>       0.09379918      -0.08329115       0.01227594 </v>
   <v>       0.03742023      -0.00279347       0.05654877 </v>
   <v>      -0.14409411      -0.08798370       0.26158475 </v>
   <v>      -0.02346329       0.44802172      -0.02790753 </v>
   <v>       0.02685093      -0.08580298       0.13879605 </v>
   <v>       0.01488963       0.47745470      -0.10987297 </v>
   <v>       0.10533745      -0.09653507       0.13768555 </v>
   <v>       0.01098037       0.37998349      -0.00491298 </v>
   <v>      -0.16185115      -0.40130420       0.07628622 </v>
   <v>      -0.11315423      -0.20210663       0.05947009 </v>
   <v>       0.34293338       0.31803719      -0.57330853 </v>
   <v>       0.12183120      -0.17621318       0.06373882 </v>
   <v>      -0.06422501      -0.44481713       0.19377041 </v>
   <v>      -0.35810628       0.01120677       0.06985235 </v>
  </varray>
  <varray name="stress" >
   <v>     141.63428008       9.41513413      -0.37100779 </v>
   <v>       9.41513311     197.12989041       1.85988368 </v>
   <v>      -0.37100759       1.85988440     222.38448021 </v>
  </varray>
  <energy>
   <i name="e_fr_energy">   -871.76967674 </i>
   <i name="e_wo_entrp">   -871.76075376 </i>
   <i name="e_0_energy">   -871.76521525 </i>
  </energy>
  <time name="totalsc">36231.6836226.53</time>
  <eigenvalues>
   <array>
    <dimension dim="1">band</dimension>
    <dimension dim="2">kpoint</dimension>
    <dimension dim="3">spin</dimension>
    <field>eigene</field>
    <field>occ</field>
    <set>
     <set comment="spin 1">
      <set comment="kpoint 1">
       <r>  -19.2904    1.0000 </r>
       <r>  -19.0409    1.0000 </r>
       <r>  -18.9254    1.0000 </r>
       <r>  -18.7566    1.0000 </r>
       <r>  -18.6373    1.0000 </r>
       <r>  -18.6060    1.0000 </r>
       <r>  -18.5603    1.0000 </r>
       <r>  -18.4757    1.0000 </r>
       <r>  -18.4448    1.0000 </r>
       <r>  -18.4266    1.0000 </r>
       <r>  -18.3619    1.0000 </r>
       <r>  -18.2861    1.0000 </r>
       <r>  -18.2618    1.0000 </r>
       <r>  -18.2343    1.0000 </r>
       <r>  -18.2024    1.0000 </r>
       <r>  -18.1728    1.0000 </r>
       <r>  -18.1519    1.0000 </r>
       <r>  -18.0979    1.0000 </r>
       <r>  -18.0251    1.0000 </r>
       <r>  -17.9938    1.0000 </r>
       <r>  -17.9709    1.0000 </r>
       <r>  -17.9291    1.0000 </r>
       <r>  -17.9075    1.0000 </r>
       <r>  -17.8845    1.0000 </r>
       <r>  -17.8285    1.0000 </r>
[...]
       <r>   -12.7122   194.8443   525.3331 </r>
       <r>   -12.5733   152.0900   546.4566 </r>
       <r>   -12.4344   120.4821   563.1901 </r>
       <r>   -12.2955    95.9905   576.5220 </r>
       <r>   -12.1566    81.0733   587.7821 </r>
       <r>   -12.0177    50.5841   594.8076 </r>
       <r>   -11.8788    31.5675   599.1920 </r>
       <r>   -11.7400    18.1135   601.7077 </r>
       <r>   -11.6011    51.0529   608.7983 </r>
       <r>   -11.4622    22.9313   611.9832 </r>
       <r>   -11.3233     0.1208   612.0000 </r>
       <r>   -11.1844     0.0000   612.0000 </r>
       <r>   -11.0455     0.0000   612.0000 </r>
       <r>   -10.9066     0.0000   612.0000 </r>
       <r>   -10.7677     0.0000   612.0000 </r>
       <r>   -10.6289     0.0000   612.0000 </r>
       <r>   -10.4900     0.0000   612.0000 </r>
       <r>   -10.3511     0.0000   612.0000 </r>
       <r>   -10.2122     0.0000   612.0000 </r>
       <r>   -10.0733     0.0000   612.0000 </r>
       <r>    -9.9344     0.0000   612.0000 </r>
       <r>    -9.7955     0.0000   612.0000 </r>
       <r>    -9.6566     0.0000   612.0000 </r>
       <r>    -9.5178     0.0000   612.0000 </r>
       <r>    -9.3789     0.0000   612.0000 </r>
       <r>    -9.2400     0.0000   612.0000 </r>
       <r>    -9.1011     0.0000   612.0000 </r>
       <r>    -8.9622     0.0000   612.0000 </r>
       <r>    -8.8233     0.0000   612.0000 </r>
       <r>    -8.6844     0.0000   612.0000 </r>
       <r>    -8.5455     0.0000   612.0000 </r>
       <r>    -8.4067     0.0000   612.0000 </r>
       <r>    -8.2678     0.0000   612.0000 </r>
       <r>    -8.1289     0.0000   612.0000 </r>
       <r>    -7.9900     0.0000   612.0000 </r>
       <r>    -7.8511     0.0000   612.0000 </r>
       <r>    -7.7122     0.0000   612.0000 </r>
       <r>    -7.5733     0.0000   612.0000 </r>
       <r>    -7.4344     0.0000   612.0000 </r>
       <r>    -7.2955     0.0000   612.0000 </r>
       <r>    -7.1567     0.0000   612.0000 </r>
       <r>    -7.0178     0.0006   612.0001 </r>
       <r>    -6.8789     7.1590   612.9944 </r>
       <r>    -6.7400     7.2399   613.9999 </r>
       <r>    -6.6011     0.0006   614.0000 </r>
       <r>    -6.4622     0.0000   614.0000 </r>
       <r>    -6.3233     0.0000   614.0000 </r>
       <r>    -6.1844     0.0000   614.0000 </r>
       <r>    -6.0456     0.0000   614.0000 </r>
       <r>    -5.9067     0.0000   614.0000 </r>
       <r>    -5.7678     0.0000   614.0000 </r>
       <r>    -5.6289     0.0000   614.0000 </r>
       <r>    -5.4900     1.2866   614.1787 </r>
       <r>    -5.3511    12.5891   615.9272 </r>
       <r>    -5.2122    28.1310   619.8342 </r>
       <r>    -5.0733    32.4320   624.3386 </r>
       <r>    -4.9345    39.8373   629.8715 </r>
       <r>    -4.7956    35.6246   634.8194 </r>
       <r>    -4.6567    40.7517   640.4793 </r>
       <r>    -4.5178    37.2246   645.6493 </r>
       <r>    -4.3789    40.7444   651.3082 </r>
       <r>    -4.2400    39.8827   656.8475 </r>
       <r>    -4.1011    33.7764   661.5386 </r>
       <r>    -3.9622    39.1944   666.9822 </r>
       <r>    -3.8234    33.9769   671.7012 </r>
       <r>    -3.6845    32.7874   676.2550 </r>
       <r>    -3.5456    29.7246   680.3834 </r>
       <r>    -3.4067    33.7521   685.0711 </r>
       <r>    -3.2678    28.1310   688.9782 </r>
       <r>    -3.1289    38.0814   694.2672 </r>
       <r>    -2.9900    39.6756   699.7777 </r>
       <r>    -2.8511    42.7185   705.7107 </r>
       <r>    -2.7122    38.7103   711.0871 </r>
       <r>    -2.5734    45.0784   717.3480 </r>
       <r>    -2.4345    43.0888   723.3325 </r>
       <r>    -2.2956    41.4145   729.0845 </r>
       <r>    -2.1567    55.9810   736.8595 </r>
       <r>    -2.0178    51.4793   744.0094 </r>
       <r>    -1.8789    48.8254   750.7906 </r>
       <r>    -1.7400    54.2146   758.3204 </r>
       <r>    -1.6011    58.5847   766.4571 </r>
       <r>    -1.4623    60.1194   774.8070 </r>
       <r>    -1.3234    60.2471   783.1745 </r>
       <r>    -1.1845    59.4108   791.4260 </r>
       <r>    -1.0456    59.0129   799.6222 </r>
       <r>    -0.9067    54.0248   807.1255 </r>
       <r>    -0.7678    56.6922   814.9994 </r>
       <r>    -0.6289    62.0005   823.6105 </r>
       <r>    -0.4900    62.6666   832.3141 </r>
       <r>    -0.3512    64.3493   841.2515 </r>
       <r>    -0.2123    67.3903   850.6112 </r>
       <r>    -0.0734    60.9727   859.0795 </r>
       <r>     0.0655    71.1178   868.9569 </r>
       <r>     0.2044    77.9489   879.7831 </r>
       <r>     0.3433    73.7131   890.0209 </r>
       <r>     0.4822    81.5562   901.3481 </r>
       <r>     0.6211    77.2569   912.0782 </r>
       <r>     0.7599    84.2637   923.7814 </r>
       <r>     0.8988    91.1023   936.4344 </r>
       <r>     1.0377   103.0098   950.7412 </r>
       <r>     1.1766    93.1734   963.6818 </r>
       <r>     1.3155    93.1453   976.6186 </r>
       <r>     1.4544   100.3550   990.5567 </r>
       <r>     1.5933    78.2908  1001.4303 </r>
       <r>     1.7322    76.8509  1012.1040 </r>
       <r>     1.8711    54.8468  1019.7215 </r>
       <r>     2.0099    45.4824  1026.0385 </r>
       <r>     2.1488    38.0125  1031.3180 </r>
       <r>     2.2877    27.5895  1035.1498 </r>
       <r>     2.4266    26.2673  1038.7980 </r>
       <r>     2.5655     8.6407  1039.9981 </r>
       <r>     2.7044     0.0136  1040.0000 </r>
       <r>     2.8433     0.0000  1040.0000 </r>
       <r>     2.9822     0.0000  1040.0000 </r>
       <r>     3.1210     0.0001  1040.0000 </r>
       <r>     3.2599     3.2893  1040.4569 </r>
       <r>     3.3988    11.4644  1042.0491 </r>
       <r>     3.5377    12.1197  1043.7324 </r>
       <r>     3.6766     1.9266  1044.0000 </r>
       <r>     3.8155     0.0092  1044.0013 </r>
       <r>     3.9544     1.8444  1044.2574 </r>
       <r>     4.0933     9.3030  1045.5495 </r>
       <r>     4.2321    11.7283  1047.1784 </r>
       <r>     4.3710     5.9142  1047.9998 </r>
       <r>     4.5099     0.0012  1048.0000 </r>
       <r>     4.6488     0.2494  1048.0346 </r>
       <r>     4.7877     6.2117  1048.8974 </r>
       <r>     4.9266     7.8527  1049.9880 </r>
       <r>     5.0655     0.0863  1050.0000 </r>
       <r>     5.2044     0.0000  1050.0000 </r>
       <r>     5.3432     0.0000  1050.0000 </r>
       <r>     5.4821     0.0312  1050.0043 </r>
       <r>     5.6210     4.6397  1050.6487 </r>
       <r>     5.7599     3.2012  1051.0933 </r>
       <r>     5.8988     6.1846  1051.9523 </r>
       <r>     6.0377     0.3433  1052.0000 </r>
       <r>     6.1766     0.1007  1052.0140 </r>
       <r>     6.3155    12.8135  1053.7936 </r>
       <r>     6.4543     1.4859  1054.0000 </r>
       <r>     6.5932     0.0000  1054.0000 </r>
       <r>     6.7321     0.0000  1054.0000 </r>
       <r>     6.8710     0.0000  1054.0000 </r>
       <r>     7.0099     0.0000  1054.0000 </r>
       <r>     7.1488     0.0000  1054.0000 </r>
       <r>     7.2877     0.0000  1054.0000 </r>
       <r>     7.4266     0.0000  1054.0000 </r>
       <r>     7.5655     0.0000  1054.0000 </r>
       <r>     7.7043     0.7731  1054.1074 </r>
       <r>     7.8432     2.3341  1054.4316 </r>
       <r>     7.9821     2.2702  1054.7469 </r>
       <r>     8.1210     0.7301  1054.8483 </r>
       <r>     8.2599     2.8802  1055.2483 </r>
       <r>     8.3988     4.6098  1055.8885 </r>
       <r>     8.5377     2.8058  1056.2782 </r>
       <r>     8.6766     4.3770  1056.8861 </r>
       <r>     8.8154     5.6554  1057.6716 </r>
       <r>     8.9543     4.5768  1058.3073 </r>
       <r>     9.0932     6.2454  1059.1747 </r>
       <r>     9.2321     8.2055  1060.3143 </r>
       <r>     9.3710     6.5302  1061.2213 </r>
       <r>     9.5099     5.6634  1062.0079 </r>
       <r>     9.6488    13.9035  1063.9389 </r>
       <r>     9.7877    13.8161  1065.8578 </r>
       <r>     9.9265    15.2401  1067.9745 </r>
       <r>    10.0654    22.2840  1071.0695 </r>
       <r>    10.2043    19.0096  1073.7097 </r>
       <r>    10.3432    19.2193  1076.3790 </r>
       <r>    10.4821    17.0256  1078.7436 </r>
       <r>    10.6210    19.2404  1081.4159 </r>
       <r>    10.7599    27.7843  1085.2748 </r>
       <r>    10.8988    24.9640  1088.7420 </r>
       <r>    11.0376    28.4082  1092.6876 </r>
       <r>    11.1765    27.6093  1096.5222 </r>
       <r>    11.3154    21.1349  1099.4575 </r>
       <r>    11.4543    22.4495  1102.5755 </r>
       <r>    11.5932    32.6825  1107.1147 </r>
       <r>    11.7321    31.7028  1111.5178 </r>
       <r>    11.8710    28.4179  1115.4647 </r>
       <r>    12.0099    27.8260  1119.3294 </r>
       <r>    12.1488    27.8468  1123.1970 </r>
       <r>    12.2876    25.7451  1126.7727 </r>
       <r>    12.4265    28.3746  1130.7136 </r>
       <r>    12.5654    28.6924  1134.6986 </r>
       <r>    12.7043    27.1094  1138.4638 </r>
       <r>    12.8432    27.4750  1142.2797 </r>
       <r>    12.9821    29.5441  1146.3830 </r>
       <r>    13.1210    29.9087  1150.5370 </r>
       <r>    13.2599    31.1835  1154.8680 </r>
       <r>    13.3987    24.5678  1158.2801 </r>
       <r>    13.5376    25.5612  1161.8303 </r>
       <r>    13.6765    27.4752  1165.6463 </r>
       <r>    13.8154    21.8530  1168.6814 </r>
       <r>    13.9543    27.1873  1172.4574 </r>
       <r>    14.0932    23.9721  1175.7868 </r>
       <r>    14.2321    28.0675  1179.6850 </r>
       <r>    14.3710    25.9533  1183.2896 </r>
       <r>    14.5098    22.9381  1186.4755 </r>
       <r>    14.6487    23.7326  1189.7716 </r>
       <r>    14.7876    25.2442  1193.2777 </r>
       <r>    14.9265    24.4799  1196.6777 </r>
       <r>    15.0654    22.1536  1199.7546 </r>
       <r>    15.2043    21.8119  1202.7840 </r>
       <r>    15.3432    21.5643  1205.7790 </r>
       <r>    15.4821    27.7667  1209.6354 </r>
       <r>    15.6209    23.3977  1212.8851 </r>
       <r>    15.7598    20.9927  1215.8007 </r>
       <r>    15.8987    21.5428  1218.7928 </r>
       <r>    16.0376    20.2602  1221.6067 </r>
       <r>    16.1765    19.6206  1224.3317 </r>
       <r>    16.3154    26.7403  1228.0456 </r>
       <r>    16.4543    18.0529  1230.5530 </r>
       <r>    16.5932    21.9420  1233.6005 </r>
       <r>    16.7321    21.3673  1236.5681 </r>
       <r>    16.8709    20.0777  1239.3567 </r>
       <r>    17.0098    20.6340  1242.2225 </r>
       <r>    17.1487    19.4665  1244.9261 </r>
       <r>    17.2876    20.1463  1247.7242 </r>
       <r>    17.4265    15.1615  1249.8300 </r>
       <r>    17.5654    15.2510  1251.9481 </r>
       <r>    17.7043    18.5712  1254.5274 </r>
       <r>    17.8432    13.4328  1256.3931 </r>
       <r>    17.9820    21.3514  1259.3586 </r>
       <r>    18.1209    16.4960  1261.6496 </r>
       <r>    18.2598    10.6731  1263.1320 </r>
       <r>    18.3987     9.7367  1264.4843 </r>
       <r>    18.5376     8.1788  1265.6203 </r>
       <r>    18.6765     2.7229  1265.9984 </r>
       <r>    18.8154     0.0113  1266.0000 </r>
       <r>    18.9543     0.0000  1266.0000 </r>
       <r>    19.0931     0.0000  1266.0000 </r>
       <r>    19.2320     0.0000  1266.0000 </r>
       <r>    19.3709     0.0000  1266.0000 </r>
       <r>    19.5098     0.0000  1266.0000 </r>
       <r>    19.6487     0.0000  1266.0000 </r>
       <r>    19.7876     0.0000  1266.0000 </r>
       <r>    19.9265     0.0000  1266.0000 </r>
       <r>    20.0654     0.0000  1266.0000 </r>
       <r>    20.2042     0.0000  1266.0000 </r>
       <r>    20.3431     0.0000  1266.0000 </r>
       <r>    20.4820     0.0000  1266.0000 </r>
      </set>
     </set>
    </array>
   </total>
  </dos>
 </calculation>
 <structure name="finalpos" >
  <crystal>
   <varray name="basis" >
    <v>       0.00000000      12.28047342       0.00000000 </v>
    <v>       9.14270205       0.00000000       0.00000000 </v>
    <v>       0.00000000      -2.76826177     -11.30069772 </v>
   </varray>
   <i name="volume">   1268.80515525 </i>
   <varray name="rec_basis" >
    <v>       0.00000000       0.08143009      -0.01994742 </v>
    <v>       0.10937686      -0.00000000       0.00000000 </v>
    <v>       0.00000000       0.00000000      -0.08849011 </v>
   </varray>
  </crystal>
  <varray name="positions" >
   <v>       0.67205140       0.99719916       0.15209277 </v>
   <v>       0.64348254       0.00356456       0.65362779 </v>
   <v>       0.66671193       0.32795040       0.15742241 </v>
   <v>       0.64895119       0.33169736       0.65282488 </v>
   <v>       0.66399727       0.66524847       0.16149848 </v>
   <v>       0.64135127       0.67075779       0.65349832 </v>
   <v>       0.84379181       0.15667965       0.34336112 </v>
   <v>       0.83208096       0.16754165       0.84004577 </v>
   <v>       0.84160750       0.49701055       0.34489862 </v>
   <v>       0.82851133       0.50033473       0.83505349 </v>
   <v>       0.84032200       0.82506994       0.34691642 </v>
   <v>       0.82738990       0.83379530       0.83815923 </v>
   <v>       0.58762627       0.13627206       0.39525004 </v>
   <v>       0.58442141       0.16137839       0.89936124 </v>
   <v>       0.58515383       0.50058142       0.39279236 </v>
   <v>       0.59240506       0.49879089       0.90372305 </v>
   <v>       0.58761860       0.86892755       0.39683827 </v>
   <v>       0.58755730       0.83152770       0.90295247 </v>
   <v>       0.91679680       0.96383866       0.09970835 </v>
   <v>       0.90937054       0.99662848       0.60404488 </v>
   <v>       0.91233555       0.33271036       0.10061453 </v>
   <v>       0.90504583       0.35623445       0.59873056 </v>
   <v>       0.90137445       0.69776427       0.09245824 </v>
   <v>       0.89789487       0.62511505       0.60133366 </v>
   <v>       0.15664598       0.18693100       0.15290036 </v>
   <v>       0.14643686       0.50854440       0.16912310 </v>
   <v>       0.18666873       0.45898060       0.65245456 </v>
   <v>       0.16505876       0.84852204       0.15104524 </v>
   <v>       0.15184873       0.82385965       0.66645721 </v>
   <v>       0.34588678       0.00850804       0.34630906 </v>
   <v>       0.33364819       0.99980796       0.84972782 </v>
   <v>       0.34107286       0.34129092       0.33381614 </v>
   <v>       0.34043644       0.32620520       0.85821611 </v>
   <v>       0.35011887       0.66833193       0.33521277 </v>
   <v>       0.33838536       0.66839753       0.85795713 </v>
   <v>       0.08769269       0.97294984       0.36621873 </v>
   <v>       0.08168930       0.00669190       0.89260323 </v>
   <v>       0.09273149       0.29956510       0.44319709 </v>
   <v>       0.08277799       0.34236445       0.88474614 </v>
   <v>       0.09253591       0.64816376       0.41454609 </v>
   <v>       0.07952681       0.67224724       0.89557832 </v>
   <v>       0.42229862       0.15543971       0.11700224 </v>
   <v>       0.37369639       0.17904319       0.60241522 </v>
   <v>       0.41751594       0.49684536       0.11087790 </v>
   <v>       0.40217206       0.49531182       0.60513546 </v>
   <v>       0.42454419       0.84728148       0.11777391 </v>
   <v>       0.38159786       0.85064632       0.59851910 </v>
   <v>       0.99088337       0.15704684       0.11476035 </v>
   <v>       0.97606463       0.17347763       0.61960515 </v>
   <v>       0.98240231       0.51476675       0.12451081 </v>
   <v>       0.03647329       0.48998329       0.62931164 </v>
   <v>       0.04216461       0.87150728       0.21558428 </v>
   <v>       0.98504271       0.81535170       0.63742673 </v>
   <v>       0.44166809       0.01050076       0.24652805 </v>
   <v>       0.50227643       0.99375474       0.86331616 </v>
   <v>       0.51445912       0.32125450       0.35903257 </v>
   <v>       0.50553958       0.33387251       0.89024767 </v>
   <v>       0.51711230       0.68228606       0.35834413 </v>
   <v>       0.50488069       0.66365392       0.88810605 </v>
   <v>       0.67572752       0.15937667       0.27386733 </v>
   <v>       0.66383230       0.16349656       0.78067380 </v>
   <v>       0.67351370       0.49525851       0.27860447 </v>
   <v>       0.65913709       0.50105570       0.77606829 </v>
   <v>       0.67143271       0.83626757       0.27422819 </v>
   <v>       0.65973581       0.83622363       0.77897383 </v>
   <v>       0.83185824       0.98980912       0.21932392 </v>
   <v>       0.81803084       0.99715314       0.71597966 </v>
   <v>       0.83051807       0.32885458       0.21685876 </v>
   <v>       0.81440541       0.32990705       0.72361475 </v>
   <v>       0.82759209       0.66369838       0.22227414 </v>
   <v>       0.81155535       0.67360860       0.71917544 </v>
   <v>       0.82630909       0.99129240       0.44664625 </v>
   <v>       0.82565114       0.00378342       0.94031007 </v>
   <v>       0.82667868       0.32297183       0.43582585 </v>
   <v>       0.82908501       0.33657485       0.94511977 </v>
   <v>       0.81498406       0.66505542       0.44192702 </v>
   <v>       0.81448920       0.65914226       0.93578105 </v>
   <v>       0.68149426       0.16772485       0.04884631 </v>
   <v>       0.66598731       0.16960948       0.55577703 </v>
   <v>       0.67486531       0.49889158       0.05777025 </v>
   <v>       0.65066374       0.50288024       0.55267217 </v>
   <v>       0.68019379       0.82450379       0.05178906 </v>
   <v>       0.65847283       0.83345318       0.55758246 </v>
   <v>       0.51757961       0.99958142       0.08182833 </v>
   <v>       0.48331353       0.01013405       0.61996138 </v>
   <v>       0.50631962       0.32932276       0.12415600 </v>
   <v>       0.49422064       0.32941984       0.63641606 </v>
   <v>       0.50311446       0.66872956       0.12546345 </v>
   <v>       0.47912880       0.67696868       0.62876493 </v>
   <v>       0.99676722       0.13862761       0.35164385 </v>
   <v>       0.99508351       0.17335692       0.86492905 </v>
   <v>       0.99749153       0.49411403       0.36997710 </v>
   <v>       0.99044908       0.50722402       0.85911000 </v>
   <v>       0.99960916       0.81217050       0.40865760 </v>
   <v>       0.99136552       0.83954554       0.87876166 </v>
   <v>       0.19845747       0.03261524       0.27243296 </v>
   <v>       0.17075516       0.98096913       0.79281070 </v>
   <v>       0.16854417       0.34220833       0.28166202 </v>
   <v>       0.18215672       0.33526430       0.79252090 </v>
   <v>       0.18057691       0.65411350       0.30278026 </v>
   <v>       0.17311891       0.67518490       0.79536237 </v>
   <v>       0.31583361       0.23006134       0.18948465 </v>
   <v>       0.35054803       0.16579010       0.75372481 </v>
   <v>       0.32449344       0.51076049       0.21341829 </v>
   <v>       0.34109752       0.50984166       0.74689724 </v>
   <v>       0.31542636       0.79861247       0.20030342 </v>
   <v>       0.33501725       0.82648167       0.74268635 </v>
   <v>       0.36821849       0.17523390       0.43632515 </v>
   <v>       0.33230057       0.15970305       0.96300947 </v>
   <v>       0.37767623       0.50666832       0.43766172 </v>
   <v>       0.33006270       0.49890906       0.96077672 </v>
   <v>       0.37256393       0.83738146       0.43219820 </v>
   <v>       0.33650273       0.83529424       0.96306513 </v>
   <v>       0.16049628       0.01123017       0.04802248 </v>
   <v>       0.13723469       0.35343193       0.04612562 </v>
   <v>       0.27951800       0.35680010       0.56975342 </v>
   <v>       0.13932242       0.67419706       0.05655192 </v>
   <v>       0.19210324       0.65326743       0.56275133 </v>
   <v>       0.20667706       0.99952146       0.54713697 </v>
  </varray>
 </structure>
</modeling>
