 running    4 mpi-ranks, on    1 nodes
 distrk:  each k-point on    1 cores,    4 groups
 distr:  one band on    1 cores,    1 groups
 OpenACC runtime initialized ...    4 GPUs detected
 vasp.6.4.2 20Jul23 (build Nov 12 2023 22:16:35) complex                         
 POSCAR found type information on POSCAR GaO P 
 POSCAR found :  3 types and     119 ions
 scaLAPACK will be used selectively (only on CPU)
 LDA part: xc-table for Pade appr. of Perdew
 POSCAR, INCAR and KPOINTS ok, starting setup
 FFT: planning ... GRIDC
 FFT: planning ... GRID_SOFT
 FFT: planning ... GRID
 WAVECAR not read
 initial charge from wavefunction
 entering main loop
       N       E                     dE             d eps       ncg     rms          ort
DAV:   1    -0.213352620419E+05   -0.21335E+05   -0.54432E+05  5000   0.752E+03
DAV:   2    -0.658873124884E+05   -0.44552E+05   -0.43031E+05  5000   0.123E+03
DAV:   3    -0.709877463338E+05   -0.51004E+04   -0.46289E+04  5000   0.377E+02
DAV:   4    -0.716999373024E+05   -0.71219E+03   -0.64407E+03  5000   0.119E+02
DAV:   5    -0.392755074715E+05    0.32424E+05   -0.71975E+02  5000   0.610E+01
 gam= 0.000 g(H,U,f)=  0.784E+05 0.162E+05 0.180E+05 ort(H,U,f) = 0.000E+00 0.000E+00 0.000E+00
SDA:   6     0.303115210900E+05    0.69587E+05   -0.71975E+02  5000   0.113E+06 0.000E+00
 gam= 0.000 trial= 0.400  step= 0.405 mean= 0.400
 gam= 0.533 g(H,U,f)=  0.257E+05 0.298E+05 0.435E+04 ort(H,U,f) =-0.707E+04-0.189E+05-0.277E+04
CGA:   7     0.761431588789E+04   -0.22697E+05   -0.22820E+05  5000   0.599E+05-0.288E+05
 gam= 0.533 trial= 0.400  step= 0.223 mean= 0.400
 gam= 0.313 g(H,U,f)=  0.135E+05 0.497E+04 0.220E+03 ort(H,U,f) = 0.354E+04 0.227E+04-0.118E+03
CGA:   8     0.428140004772E+04   -0.33329E+04   -0.49870E+04  5000   0.187E+05 0.569E+04
 gam= 0.313 trial= 0.391  step= 0.250 mean= 0.391
 gam= 0.491 g(H,U,f)=  0.668E+04 0.234E+04 0.176E+03 ort(H,U,f) = 0.236E+04-0.778E+03-0.997E+02
CGA:   9     0.211785030042E+04   -0.21635E+04   -0.25618E+04  5000   0.919E+04 0.148E+04
 gam= 0.491 trial= 0.384  step= 0.278 mean= 0.384
 gam= 0.403 g(H,U,f)=  0.330E+04 0.395E+03 0.518E+01 ort(H,U,f) = 0.640E+03 0.360E+03 0.101E+02
CGA:  10     0.936800000115E+03   -0.11811E+04   -0.13804E+04  5000   0.370E+04 0.101E+04
 gam= 0.403 trial= 0.379  step= 0.463 mean= 0.379
 gam= 0.410 g(H,U,f)=  0.135E+04 0.154E+03 0.126E+02 ort(H,U,f) = 0.240E+03 0.158E+03 0.583E+01
CGA:  11    -0.451898414599E+02   -0.98199E+03   -0.95051E+03  5000   0.152E+04 0.404E+03
 gam= 0.410 trial= 0.383  step= 0.499 mean= 0.383
 gam= 0.493 g(H,U,f)=  0.642E+03 0.105E+03 0.148E+00 ort(H,U,f) =-0.785E+01 0.131E+03 0.182E+00
CGA:  12    -0.478790947801E+03   -0.43360E+03   -0.41994E+03  5000   0.748E+03 0.123E+03
 gam= 0.493 trial= 0.389  step= 0.661 mean= 0.389
 gam= 0.640 g(H,U,f)=  0.407E+03 0.707E+02 0.860E+00 ort(H,U,f) =-0.184E+03 0.961E+02-0.302E-01
CGA:  13    -0.732905442142E+03   -0.25411E+03   -0.26711E+03  5000   0.479E+03-0.884E+02
 gam= 0.640 trial= 0.403  step= 0.518 mean= 0.403
 gam= 0.549 g(H,U,f)=  0.237E+03 0.237E+02 0.259E+01 ort(H,U,f) =-0.565E+02 0.287E+02 0.464E+01
CGA:  14    -0.840776238591E+03   -0.10787E+03   -0.10939E+03  5000   0.263E+03-0.232E+02
 gam= 0.549 trial= 0.408  step= 0.463 mean= 0.408
 gam= 0.484 g(H,U,f)=  0.110E+03 0.156E+02 0.164E+01 ort(H,U,f) = 0.889E+01-0.616E+01 0.325E+01
CGA:  15    -0.899119939818E+03   -0.58344E+02   -0.57975E+02  5000   0.127E+03 0.598E+01
 gam= 0.484 trial= 0.411  step= 0.489 mean= 0.411
 gam= 0.546 g(H,U,f)=  0.548E+02 0.144E+02 0.296E+00 ort(H,U,f) =-0.635E+00 0.290E+01 0.711E+00
CGA:  16    -0.931370152236E+03   -0.32250E+02   -0.31837E+02  5000   0.694E+02 0.298E+01
 gam= 0.546 trial= 0.415  step= 0.580 mean= 0.415
 gam= 0.632 g(H,U,f)=  0.350E+02 0.884E+01 0.121E-05 ort(H,U,f) =-0.108E+02 0.683E+01 0.643E-05
CGA:  17    -0.951429531450E+03   -0.20059E+02   -0.20617E+02  5000   0.439E+02-0.393E+01
 gam= 0.632 trial= 0.423  step= 0.537 mean= 0.423
 gam= 0.606 g(H,U,f)=  0.222E+02 0.434E+01 0.129E-17 ort(H,U,f) =-0.764E+01 0.589E+01 0.810E-17
CGA:  18    -0.962376832708E+03   -0.10947E+02   -0.11111E+02  5000   0.266E+02-0.175E+01
 gam= 0.606 trial= 0.429  step= 0.509 mean= 0.429
 gam= 0.594 g(H,U,f)=  0.133E+02 0.246E+01 0.808E-14 ort(H,U,f) =-0.253E+01 0.247E+01 0.351E-13
CGA:  19    -0.968863343883E+03   -0.64865E+01   -0.64922E+01  5000   0.158E+02-0.588E-01
 gam= 0.594 trial= 0.433  step= 0.505 mean= 0.433
 gam= 0.543 g(H,U,f)=  0.704E+01 0.154E+01 0.103E-17 ort(H,U,f) =-0.971E+00 0.111E+01 0.676E-17
CGA:  20    -0.972848409628E+03   -0.39851E+01   -0.39806E+01  5000   0.858E+01 0.135E+00
 gam= 0.543 trial= 0.437  step= 0.517 mean= 0.437
 gam= 0.548 g(H,U,f)=  0.397E+01 0.734E+00 0.428E-20 ort(H,U,f) =-0.501E+00 0.630E+00-0.312E-19
CGA:  21    -0.975093708747E+03   -0.22453E+01   -0.22392E+01  5000   0.470E+01 0.129E+00
 gam= 0.548 trial= 0.441  step= 0.511 mean= 0.441
 gam= 0.594 g(H,U,f)=  0.241E+01 0.388E+00 0.134E-19 ort(H,U,f) =-0.214E+00 0.271E+00-0.139E-19
CGA:  22    -0.976315682335E+03   -0.12220E+01   -0.12195E+01  5000   0.279E+01 0.568E-01
 gam= 0.594 trial= 0.444  step= 0.500 mean= 0.444
 gam= 0.559 g(H,U,f)=  0.132E+01 0.243E+00 0.176E-13 ort(H,U,f) =-0.145E+00 0.160E+00 0.123E-13
CGA:  23    -0.977022860685E+03   -0.70718E+00   -0.70665E+00  5000   0.156E+01 0.151E-01
 gam= 0.559 trial= 0.447  step= 0.458 mean= 0.447
 gam= 0.525 g(H,U,f)=  0.663E+00 0.157E+00 0.463E-19 ort(H,U,f) =-0.158E+00 0.159E+00 0.108E-18
CGA:  24    -0.977382472184E+03   -0.35961E+00   -0.35961E+00  5000   0.820E+00 0.143E-02
 gam= 0.525 trial= 0.447  step= 0.539 mean= 0.447
 gam= 0.602 g(H,U,f)=  0.411E+00 0.821E-01 0.997E-15 ort(H,U,f) =-0.113E+00 0.112E+00 0.374E-14
CGA:  25    -0.977603821283E+03   -0.22135E+00   -0.22138E+00  5000   0.493E+00-0.568E-04
 gam= 0.602 trial= 0.452  step= 0.536 mean= 0.452
 gam= 0.532 g(H,U,f)=  0.224E+00 0.387E-01 0.417E-15 ort(H,U,f) =-0.503E-01 0.508E-01 0.112E-14
CGA:  26    -0.977736172357E+03   -0.13235E+00   -0.13234E+00  5000   0.263E+00 0.500E-03
 gam= 0.532 trial= 0.456  step= 0.550 mean= 0.456
 gam= 0.591 g(H,U,f)=  0.131E+00 0.238E-01 0.311E-14 ort(H,U,f) =-0.162E-01 0.163E-01 0.743E-13
CGA:  27    -0.977808519073E+03   -0.72347E-01   -0.72340E-01  5000   0.155E+00 0.171E-03
 gam= 0.591 trial= 0.461  step= 0.542 mean= 0.461
 gam= 0.594 g(H,U,f)=  0.771E-01 0.150E-01 0.128E-20 ort(H,U,f) =-0.700E-02 0.695E-02-0.879E-20
CGA:  28    -0.977850625642E+03   -0.42107E-01   -0.42111E-01  5000   0.921E-01-0.544E-04
 gam= 0.594 trial= 0.465  step= 0.489 mean= 0.465
 gam= 0.525 g(H,U,f)=  0.394E-01 0.895E-02 0.141E-15 ort(H,U,f) =-0.402E-02 0.405E-02-0.221E-15
CGA:  29    -0.977873119915E+03   -0.22494E-01   -0.22494E-01  5000   0.483E-01 0.264E-04
 gam= 0.525 trial= 0.466  step= 0.500 mean= 0.466
 gam= 0.588 g(H,U,f)=  0.225E-01 0.589E-02 0.327E-14 ort(H,U,f) =-0.369E-02 0.379E-02 0.350E-15
CGA:  30    -0.977885197352E+03   -0.12077E-01   -0.12076E-01  5000   0.284E-01 0.933E-04
 gam= 0.588 trial= 0.468  step= 0.537 mean= 0.468
 gam= 0.574 g(H,U,f)=  0.130E-01 0.331E-02 0.486E-15 ort(H,U,f) =-0.344E-02 0.352E-02 0.681E-15
CGA:  31    -0.977892854447E+03   -0.76571E-02   -0.76540E-02  5000   0.163E-01 0.842E-04
 gam= 0.574 trial= 0.471  step= 0.549 mean= 0.471
 gam= 0.578 g(H,U,f)=  0.796E-02 0.148E-02 0.120E-16 ort(H,U,f) =-0.209E-02 0.212E-02 0.437E-16
CGA:  32    -0.977897345165E+03   -0.44907E-02   -0.44893E-02  5000   0.944E-02 0.341E-04
 gam= 0.578 trial= 0.475  step= 0.578 mean= 0.475
 gam= 0.614 g(H,U,f)=  0.509E-02 0.709E-03 0.374E-18 ort(H,U,f) =-0.662E-03 0.659E-03 0.573E-17
CGA:  33    -0.977900078784E+03   -0.27336E-02   -0.27338E-02  5000   0.580E-02-0.296E-05
 gam= 0.614 trial= 0.480  step= 0.536 mean= 0.480
 gam= 0.571 g(H,U,f)=  0.286E-02 0.448E-03 0.322E-17 ort(H,U,f) =-0.102E-03 0.918E-04-0.409E-16
CGA:  34    -0.977901631685E+03   -0.15529E-02   -0.15532E-02  5000   0.331E-02-0.979E-05
 gam= 0.571 trial= 0.483  step= 0.503 mean= 0.483
 gam= 0.567 g(H,U,f)=  0.153E-02 0.343E-03 0.586E-15 ort(H,U,f) =-0.678E-04 0.666E-04-0.210E-14
CGA:  35    -0.977902462826E+03   -0.83114E-03   -0.83115E-03  5000   0.188E-02-0.124E-05
 gam= 0.567 trial= 0.484  step= 0.517 mean= 0.484
 gam= 0.579 g(H,U,f)=  0.852E-03 0.234E-03 0.628E-17 ort(H,U,f) =-0.139E-03 0.143E-03 0.962E-16
CGA:  36    -0.977902947115E+03   -0.48429E-03   -0.48423E-03  5000   0.109E-02 0.389E-05
 gam= 0.579 trial= 0.486  step= 0.536 mean= 0.486
 gam= 0.000 g(H,U,f)=  0.496E-03 0.127E-03 0.771E-16 ort(H,U,f) =-0.131E-03 0.133E-03-0.553E-15
SDA:  37    -0.977903238735E+03   -0.29162E-03   -0.29158E-03  5000   0.622E-03 0.159E-05
 gam= 0.000 trial= 0.488  step= 0.961 mean= 0.488
 gam= 0.440 g(H,U,f)=  0.223E-03 0.513E-04 0.500E-22 ort(H,U,f) =-0.783E-04 0.716E-04 0.801E-22
CGA:  38    -0.977903536272E+03   -0.29754E-03   -0.29912E-03  5000   0.274E-03-0.670E-05
 gam= 0.440 trial= 0.512  step= 0.644 mean= 0.512
 gam= 0.398 g(H,U,f)=  0.926E-04 0.165E-04 0.310E-20 ort(H,U,f) =-0.471E-04 0.473E-04 0.880E-20
CGA:  39    -0.977903623612E+03   -0.87340E-04   -0.87330E-04  5000   0.109E-03 0.157E-06
 gam= 0.398 trial= 0.519  step= 0.589 mean= 0.519
 gam= 0.356 g(H,U,f)=  0.344E-04 0.439E-05 0.686E-19 ort(H,U,f) =-0.159E-04 0.169E-04 0.293E-18
CGA:  40    -0.977903655800E+03   -0.32188E-04   -0.32153E-04  5000   0.388E-04 0.100E-05
 gam= 0.356 trial= 0.522  step= 0.562 mean= 0.522
 gam= 0.372 g(H,U,f)=  0.134E-04 0.981E-06 0.386E-18 ort(H,U,f) =-0.545E-05 0.470E-05 0.265E-17
CGA:  41    -0.977903666793E+03   -0.10993E-04   -0.11008E-04  5000   0.144E-04-0.750E-06
 gam= 0.372 trial= 0.524  step= 0.576 mean= 0.524
 gam= 0.345 g(H,U,f)=  0.480E-05 0.176E-06 0.294E-18 ort(H,U,f) =-0.231E-05 0.845E-06 0.678E-17
CGA:  42    -0.977903670828E+03   -0.40354E-05   -0.40735E-05  5000   0.497E-05-0.147E-05
 gam= 0.345 trial= 0.527  step= 0.630 mean= 0.527
 final diagonalization
   1 F= -.97790367E+03 E0= -.97790367E+03  d E =-.440490E-12
 writing wavefunctions
Warning: ieee_invalid is signaling
Warning: ieee_divide_by_zero is signaling
Warning: ieee_underflow is signaling
Warning: ieee_inexact is signaling
FORTRAN STOP
Warning: ieee_invalid is signaling
Warning: ieee_divide_by_zero is signaling
Warning: ieee_underflow is signaling
Warning: ieee_inexact is signaling
FORTRAN STOP
Warning: ieee_invalid is signaling
Warning: ieee_divide_by_zero is signaling
Warning: ieee_underflow is signaling
Warning: ieee_inexact is signaling
FORTRAN STOP
Warning: ieee_invalid is signaling
Warning: ieee_divide_by_zero is signaling
Warning: ieee_underflow is signaling
Warning: ieee_inexact is signaling
FORTRAN STOP
