       N       E                     dE             d eps       ncg     rms          ort
DAV:   1    -0.213352620419E+05   -0.21335E+05   -0.54432E+05  5000   0.752E+03
DAV:   2    -0.658873124884E+05   -0.44552E+05   -0.43031E+05  5000   0.123E+03
DAV:   3    -0.709877463338E+05   -0.51004E+04   -0.46289E+04  5000   0.377E+02
DAV:   4    -0.716999373024E+05   -0.71219E+03   -0.64407E+03  5000   0.119E+02
DAV:   5    -0.392755074715E+05    0.32424E+05   -0.71975E+02  5000   0.610E+01
SDA:   6     0.303115210900E+05    0.69587E+05   -0.71975E+02  5000   0.113E+06 0.000E+00
CGA:   7     0.761431588789E+04   -0.22697E+05   -0.22820E+05  5000   0.599E+05-0.288E+05
CGA:   8     0.428140004772E+04   -0.33329E+04   -0.49870E+04  5000   0.187E+05 0.569E+04
CGA:   9     0.211785030042E+04   -0.21635E+04   -0.25618E+04  5000   0.919E+04 0.148E+04
CGA:  10     0.936800000115E+03   -0.11811E+04   -0.13804E+04  5000   0.370E+04 0.101E+04
CGA:  11    -0.451898414599E+02   -0.98199E+03   -0.95051E+03  5000   0.152E+04 0.404E+03
CGA:  12    -0.478790947801E+03   -0.43360E+03   -0.41994E+03  5000   0.748E+03 0.123E+03
CGA:  13    -0.732905442142E+03   -0.25411E+03   -0.26711E+03  5000   0.479E+03-0.884E+02
CGA:  14    -0.840776238591E+03   -0.10787E+03   -0.10939E+03  5000   0.263E+03-0.232E+02
CGA:  15    -0.899119939818E+03   -0.58344E+02   -0.57975E+02  5000   0.127E+03 0.598E+01
CGA:  16    -0.931370152236E+03   -0.32250E+02   -0.31837E+02  5000   0.694E+02 0.298E+01
CGA:  17    -0.951429531450E+03   -0.20059E+02   -0.20617E+02  5000   0.439E+02-0.393E+01
CGA:  18    -0.962376832708E+03   -0.10947E+02   -0.11111E+02  5000   0.266E+02-0.175E+01
CGA:  19    -0.968863343883E+03   -0.64865E+01   -0.64922E+01  5000   0.158E+02-0.588E-01
CGA:  20    -0.972848409628E+03   -0.39851E+01   -0.39806E+01  5000   0.858E+01 0.135E+00
CGA:  21    -0.975093708747E+03   -0.22453E+01   -0.22392E+01  5000   0.470E+01 0.129E+00
CGA:  22    -0.976315682335E+03   -0.12220E+01   -0.12195E+01  5000   0.279E+01 0.568E-01
CGA:  23    -0.977022860685E+03   -0.70718E+00   -0.70665E+00  5000   0.156E+01 0.151E-01
CGA:  24    -0.977382472184E+03   -0.35961E+00   -0.35961E+00  5000   0.820E+00 0.143E-02
CGA:  25    -0.977603821283E+03   -0.22135E+00   -0.22138E+00  5000   0.493E+00-0.568E-04
CGA:  26    -0.977736172357E+03   -0.13235E+00   -0.13234E+00  5000   0.263E+00 0.500E-03
CGA:  27    -0.977808519073E+03   -0.72347E-01   -0.72340E-01  5000   0.155E+00 0.171E-03
CGA:  28    -0.977850625642E+03   -0.42107E-01   -0.42111E-01  5000   0.921E-01-0.544E-04
CGA:  29    -0.977873119915E+03   -0.22494E-01   -0.22494E-01  5000   0.483E-01 0.264E-04
CGA:  30    -0.977885197352E+03   -0.12077E-01   -0.12076E-01  5000   0.284E-01 0.933E-04
CGA:  31    -0.977892854447E+03   -0.76571E-02   -0.76540E-02  5000   0.163E-01 0.842E-04
CGA:  32    -0.977897345165E+03   -0.44907E-02   -0.44893E-02  5000   0.944E-02 0.341E-04
CGA:  33    -0.977900078784E+03   -0.27336E-02   -0.27338E-02  5000   0.580E-02-0.296E-05
CGA:  34    -0.977901631685E+03   -0.15529E-02   -0.15532E-02  5000   0.331E-02-0.979E-05
CGA:  35    -0.977902462826E+03   -0.83114E-03   -0.83115E-03  5000   0.188E-02-0.124E-05
CGA:  36    -0.977902947115E+03   -0.48429E-03   -0.48423E-03  5000   0.109E-02 0.389E-05
SDA:  37    -0.977903238735E+03   -0.29162E-03   -0.29158E-03  5000   0.622E-03 0.159E-05
CGA:  38    -0.977903536272E+03   -0.29754E-03   -0.29912E-03  5000   0.274E-03-0.670E-05
CGA:  39    -0.977903623612E+03   -0.87340E-04   -0.87330E-04  5000   0.109E-03 0.157E-06
CGA:  40    -0.977903655800E+03   -0.32188E-04   -0.32153E-04  5000   0.388E-04 0.100E-05
CGA:  41    -0.977903666793E+03   -0.10993E-04   -0.11008E-04  5000   0.144E-04-0.750E-06
CGA:  42    -0.977903670828E+03   -0.40354E-05   -0.40735E-05  5000   0.497E-05-0.147E-05
   1 F= -.97790367E+03 E0= -.97790367E+03  d E =-.440490E-12
