<?xml version="1.0" encoding="ISO-8859-1"?>
<modeling>
 <generator>
  <i name="program" type="string">vasp </i>
  <i name="version" type="string">6.4.2  </i>
  <i name="subversion" type="string">20Jul23 (build Nov 12 2023 22:16:35) complex                          parallel </i>
  <i name="platform" type="string">LinuxNV </i>
  <i name="date" type="string">2025 03 12 </i>
  <i name="time" type="string">13:38:45 </i>
 </generator>
 <incar>
  <i type="int" name="ISTART">     0</i>
  <i type="string" name="PREC">Normal</i>
  <i type="string" name="ALGO">All</i>
  <i type="int" name="ISPIN">     1</i>
  <i type="int" name="ICHARG">     0</i>
  <i type="int" name="NELM">   500</i>
  <i type="int" name="IBRION">    -1</i>
  <i name="EDIFF">      0.00001000</i>
  <i name="EDIFFG">     -0.00500000</i>
  <i type="int" name="NSW">     0</i>
  <i type="int" name="ISIF">     2</i>
  <i name="ENCUT">    450.00000000</i>
  <i type="string" name="LREAL">Auto</i>
  <i type="logical" name="LPLANE"> T  </i>
  <i name="TIME">      0.40000000</i>
  <i type="int" name="ISMEAR">     0</i>
  <i name="SIGMA">      0.05000000</i>
  <i type="logical" name="LWAVE"> T  </i>
  <i type="logical" name="LCHARG"> T  </i>
  <i name="HFSCREEN">      0.18000000</i>
  <i type="logical" name="LHFCALC"> T  </i>
  <i type="int" name="LMAXFOCK">     4</i>
  <i name="AEXX">      0.35000000</i>
  <i type="string" name="PRECFOCK">Fast</i>
 </incar>
 <primitive_cell>
  <structure name="primitive_cell" >
   <crystal>
    <varray name="basis" >
     <v>       0.00000000      12.28047342       0.00000000 </v>
     <v>       9.14270205       0.00000000       0.00000000 </v>
     <v>       0.00000000      -2.76826177     -11.30069772 </v>
    </varray>
    <i name="volume">   1268.80515525 </i>
    <varray name="rec_basis" >
     <v>       0.00000000       0.08143009      -0.01994742 </v>
     <v>       0.10937686      -0.00000000       0.00000000 </v>
     <v>       0.00000000       0.00000000      -0.08849011 </v>
    </varray>
   </crystal>
   <varray name="positions" >
    <v>       0.66321357       0.99340610       0.15245181 </v>
    <v>       0.65955000       0.99919605       0.65876011 </v>
    <v>       0.66321357       0.33992723       0.15245181 </v>
    <v>       0.65955000       0.33413729       0.65876011 </v>
    <v>       0.66006421       0.66666667       0.15587495 </v>
    <v>       0.66087404       0.66666667       0.65533275 </v>
    <v>       0.84187901       0.16666667       0.84601587 </v>
    <v>       0.84555697       0.50093069       0.33532998 </v>
    <v>       0.84266196       0.49988791       0.84377652 </v>
    <v>       0.84555697       0.83240264       0.33532998 </v>
    <v>       0.84266196       0.83344543       0.84377652 </v>
    <v>       0.59001836       0.16666667       0.40282926 </v>
    <v>       0.59198837       0.16666667       0.89999951 </v>
    <v>       0.59270907       0.50035921       0.39743955 </v>
    <v>       0.58930135       0.50130392       0.89411166 </v>
    <v>       0.59270907       0.83297412       0.39743955 </v>
    <v>       0.58930135       0.83202941       0.89411166 </v>
    <v>       0.91220035       0.99874422       0.10364042 </v>
    <v>       0.91133059       0.00102406       0.60733915 </v>
    <v>       0.91220035       0.33458911       0.10364042 </v>
    <v>       0.91133059       0.33230927       0.60733915 </v>
    <v>       0.91223911       0.66666667       0.09961718 </v>
    <v>       0.90841506       0.66666667       0.60011346 </v>
    <v>       0.16225995       0.16666667       0.15856615 </v>
    <v>       0.16309913       0.16666667       0.65614853 </v>
    <v>       0.16163751       0.49954771       0.15836430 </v>
    <v>       0.15935447       0.49896695       0.65351962 </v>
    <v>       0.16163751       0.83378562       0.15836430 </v>
    <v>       0.15935447       0.83436638       0.65351962 </v>
    <v>       0.34108936       0.99944974       0.34385220 </v>
    <v>       0.34151516       0.99991600       0.84392570 </v>
    <v>       0.34108936       0.33388359       0.34385220 </v>
    <v>       0.34151516       0.33341734       0.84392570 </v>
    <v>       0.34213929       0.66666667       0.34411142 </v>
    <v>       0.33968096       0.66666667       0.84294240 </v>
    <v>       0.08721438       0.03119665       0.39582290 </v>
    <v>       0.09254864       0.00007140       0.89825922 </v>
    <v>       0.08721438       0.30213668       0.39582290 </v>
    <v>       0.09254864       0.33326194       0.89825922 </v>
    <v>       0.08743528       0.66666667       0.39554640 </v>
    <v>       0.09273250       0.66666667       0.89832225 </v>
    <v>       0.41295216       0.16666667       0.10396344 </v>
    <v>       0.41062371       0.16666667       0.60350137 </v>
    <v>       0.41185419       0.49923469       0.10349854 </v>
    <v>       0.40991758       0.50057387       0.60295293 </v>
    <v>       0.41185419       0.83409865       0.10349854 </v>
    <v>       0.40991758       0.83275946       0.60295293 </v>
    <v>       0.99774679       0.16666667       0.13760204 </v>
    <v>       0.99827549       0.16666667       0.62276403 </v>
    <v>       0.99963215       0.50102925       0.12531981 </v>
    <v>       0.99501257       0.49927661       0.62469466 </v>
    <v>       0.99963215       0.83230409       0.12531981 </v>
    <v>       0.99501257       0.83405672       0.62469466 </v>
    <v>       0.50553325       0.99991609       0.37202630 </v>
    <v>       0.50458761       0.00045929       0.87367445 </v>
    <v>       0.50553325       0.33341724       0.37202630 </v>
    <v>       0.50458761       0.33287404       0.87367445 </v>
    <v>       0.50556897       0.66666667       0.37321391 </v>
    <v>       0.50162285       0.66666667       0.86838905 </v>
    <v>       0.69125301       0.16666667       0.29846643 </v>
    <v>       0.67399468       0.16666667       0.78364100 </v>
    <v>       0.67558340       0.50092321       0.28170273 </v>
    <v>       0.67395078       0.50015197       0.78000216 </v>
    <v>       0.67558340       0.83241012       0.28170273 </v>
    <v>       0.67395078       0.83318136       0.78000216 </v>
    <v>       0.82407134       0.98104011       0.21095237 </v>
    <v>       0.82812081       0.00093956       0.72089423 </v>
    <v>       0.82407134       0.35229323       0.21095237 </v>
    <v>       0.82812081       0.33239377       0.72089423 </v>
    <v>       0.83014428       0.66666667       0.21602386 </v>
    <v>       0.82851175       0.66666667       0.71839289 </v>
    <v>       0.82648019       0.01693656       0.44889008 </v>
    <v>       0.83458369       0.99989590       0.94693956 </v>
    <v>       0.82648019       0.31639677       0.44889008 </v>
    <v>       0.83458369       0.33343743       0.94693956 </v>
    <v>       0.83750311       0.66666667       0.44148731 </v>
    <v>       0.83312026       0.66666667       0.94430125 </v>
    <v>       0.66840242       0.16666667       0.05824493 </v>
    <v>       0.66740092       0.16666667       0.55823143 </v>
    <v>       0.66513173       0.50447031       0.05000657 </v>
    <v>       0.67112488       0.49901778       0.55389486 </v>
    <v>       0.66513173       0.82886302       0.05000657 </v>
    <v>       0.67112488       0.83431555       0.55389486 </v>
    <v>       0.50191653       0.00050262       0.13111043 </v>
    <v>       0.49764149       0.99935834       0.62853847 </v>
    <v>       0.50191653       0.33283072       0.13111043 </v>
    <v>       0.49764149       0.33397500       0.62853847 </v>
    <v>       0.49821932       0.66666667       0.12836278 </v>
    <v>       0.49866121       0.66666667       0.62706480 </v>
    <v>       0.00421700       0.16666667       0.87222737 </v>
    <v>       0.00639894       0.48741856       0.37466479 </v>
    <v>       0.00473898       0.49999153       0.87118102 </v>
    <v>       0.00639894       0.84591478       0.37466479 </v>
    <v>       0.00473898       0.83334180       0.87118102 </v>
    <v>       0.17507225       0.99890453       0.27961065 </v>
    <v>       0.17363170       0.00039468       0.78101917 </v>
    <v>       0.17507225       0.33442880       0.27961065 </v>
    <v>       0.17363170       0.33293865       0.78101917 </v>
    <v>       0.17304752       0.66666667       0.28136279 </v>
    <v>       0.17247054       0.66666667       0.77935407 </v>
    <v>       0.33114916       0.16666667       0.22009209 </v>
    <v>       0.33024942       0.16666667       0.72131374 </v>
    <v>       0.33021702       0.50056226       0.22008038 </v>
    <v>       0.32797323       0.50018808       0.71950792 </v>
    <v>       0.33021702       0.83277108       0.22008038 </v>
    <v>       0.32797323       0.83314526       0.71950792 </v>
    <v>       0.33609632       0.16666667       0.44658815 </v>
    <v>       0.33558376       0.16666667       0.94759254 </v>
    <v>       0.33546562       0.50046277       0.44634693 </v>
    <v>       0.33461195       0.49954093       0.94691367 </v>
    <v>       0.33546562       0.83287057       0.44634693 </v>
    <v>       0.33461195       0.83379240       0.94691367 </v>
    <v>       0.16871185       0.00091429       0.05424312 </v>
    <v>       0.16881161       0.99996261       0.55456553 </v>
    <v>       0.16871185       0.33241904       0.05424312 </v>
    <v>       0.16881161       0.33337073       0.55456553 </v>
    <v>       0.17027638       0.66666667       0.05456315 </v>
    <v>       0.16485107       0.66666667       0.55249993 </v>
    <v>       0.83275343       0.16666667       0.36305175 </v>
   </varray>
  </structure>
  <varray name="primitive_index" >
   <v type="int" >        1 </v>
   <v type="int" >        2 </v>
   <v type="int" >        3 </v>
   <v type="int" >        4 </v>
   <v type="int" >        5 </v>
   <v type="int" >        6 </v>
   <v type="int" >        7 </v>
   <v type="int" >        8 </v>
   <v type="int" >        9 </v>
   <v type="int" >       10 </v>
   <v type="int" >       11 </v>
   <v type="int" >       12 </v>
   <v type="int" >       13 </v>
   <v type="int" >       14 </v>
   <v type="int" >       15 </v>
   <v type="int" >       16 </v>
   <v type="int" >       17 </v>
   <v type="int" >       18 </v>
   <v type="int" >       19 </v>
   <v type="int" >       20 </v>
   <v type="int" >       21 </v>
   <v type="int" >       22 </v>
   <v type="int" >       23 </v>
   <v type="int" >       24 </v>
   <v type="int" >       25 </v>
   <v type="int" >       26 </v>
   <v type="int" >       27 </v>
   <v type="int" >       28 </v>
   <v type="int" >       29 </v>
   <v type="int" >       30 </v>
   <v type="int" >       31 </v>
   <v type="int" >       32 </v>
   <v type="int" >       33 </v>
   <v type="int" >       34 </v>
   <v type="int" >       35 </v>
   <v type="int" >       36 </v>
   <v type="int" >       37 </v>
   <v type="int" >       38 </v>
   <v type="int" >       39 </v>
   <v type="int" >       40 </v>
   <v type="int" >       41 </v>
   <v type="int" >       42 </v>
   <v type="int" >       43 </v>
   <v type="int" >       44 </v>
   <v type="int" >       45 </v>
   <v type="int" >       46 </v>
   <v type="int" >       47 </v>
   <v type="int" >       48 </v>
   <v type="int" >       49 </v>
   <v type="int" >       50 </v>
   <v type="int" >       51 </v>
   <v type="int" >       52 </v>
   <v type="int" >       53 </v>
   <v type="int" >       54 </v>
   <v type="int" >       55 </v>
   <v type="int" >       56 </v>
   <v type="int" >       57 </v>
   <v type="int" >       58 </v>
   <v type="int" >       59 </v>
   <v type="int" >       60 </v>
   <v type="int" >       61 </v>
   <v type="int" >       62 </v>
   <v type="int" >       63 </v>
   <v type="int" >       64 </v>
   <v type="int" >       65 </v>
   <v type="int" >       66 </v>
   <v type="int" >       67 </v>
   <v type="int" >       68 </v>
   <v type="int" >       69 </v>
   <v type="int" >       70 </v>
   <v type="int" >       71 </v>
   <v type="int" >       72 </v>
   <v type="int" >       73 </v>
   <v type="int" >       74 </v>
   <v type="int" >       75 </v>
   <v type="int" >       76 </v>
   <v type="int" >       77 </v>
   <v type="int" >       78 </v>
   <v type="int" >       79 </v>
   <v type="int" >       80 </v>
   <v type="int" >       81 </v>
   <v type="int" >       82 </v>
   <v type="int" >       83 </v>
   <v type="int" >       84 </v>
   <v type="int" >       85 </v>
   <v type="int" >       86 </v>
   <v type="int" >       87 </v>
   <v type="int" >       88 </v>
   <v type="int" >       89 </v>
   <v type="int" >       90 </v>
   <v type="int" >       91 </v>
   <v type="int" >       92 </v>
   <v type="int" >       93 </v>
   <v type="int" >       94 </v>
   <v type="int" >       95 </v>
   <v type="int" >       96 </v>
   <v type="int" >       97 </v>
   <v type="int" >       98 </v>
   <v type="int" >       99 </v>
   <v type="int" >      100 </v>
   <v type="int" >      101 </v>
   <v type="int" >      102 </v>
   <v type="int" >      103 </v>
   <v type="int" >      104 </v>
   <v type="int" >      105 </v>
   <v type="int" >      106 </v>
   <v type="int" >      107 </v>
   <v type="int" >      108 </v>
   <v type="int" >      109 </v>
   <v type="int" >      110 </v>
   <v type="int" >      111 </v>
   <v type="int" >      112 </v>
   <v type="int" >      113 </v>
   <v type="int" >      114 </v>
   <v type="int" >      115 </v>
   <v type="int" >      116 </v>
   <v type="int" >      117 </v>
   <v type="int" >      118 </v>
   <v type="int" >      119 </v>
  </varray>
 </primitive_cell>
 <kpoints>
  <generation param="Gamma">
   <v type="int" name="divisions">       2        2        2 </v>
   <v name="usershift">      0.00000000       0.00000000       0.00000000 </v>
   <v name="genvec1">      0.50000000       0.00000000       0.00000000 </v>
   <v name="genvec2">      0.00000000       0.50000000       0.00000000 </v>
   <v name="genvec3">      0.00000000       0.00000000       0.50000000 </v>
   <v name="shift">      0.00000000       0.00000000       0.00000000 </v>
  </generation>
  <varray name="kpointlist" >
   <v>       0.00000000       0.00000000       0.00000000 </v>
   <v>       0.50000000       0.00000000       0.00000000 </v>
   <v>       0.00000000       0.50000000       0.00000000 </v>
   <v>       0.50000000       0.50000000       0.00000000 </v>
   <v>       0.00000000       0.00000000       0.50000000 </v>
   <v>       0.50000000       0.00000000       0.50000000 </v>
   <v>       0.00000000       0.50000000       0.50000000 </v>
   <v>       0.50000000       0.50000000       0.50000000 </v>
  </varray>
  <varray name="weights" >
   <v>       0.12500000 </v>
   <v>       0.12500000 </v>
   <v>       0.12500000 </v>
   <v>       0.12500000 </v>
   <v>       0.12500000 </v>
   <v>       0.12500000 </v>
   <v>       0.12500000 </v>
   <v>       0.12500000 </v>
  </varray>
 </kpoints>
 <parameters>
  <separator name="general" >
   <i type="string" name="SYSTEM">unknown system</i>
   <i type="logical" name="LCOMPAT"> F  </i>
  </separator>
  <separator name="electronic" >
   <i type="string" name="PREC">normal</i>
   <i name="ENMAX">    450.00000000</i>
   <i name="ENAUG">    605.39200000</i>
   <i name="EDIFF">      0.00001000</i>
   <i type="int" name="IALGO">    58</i>
   <i type="int" name="IWAVPR">    10</i>
   <i type="int" name="NBANDS">   625</i>
   <i type="int" name="NBANDSLOW">    -1</i>
   <i type="int" name="NBANDSHIGH">    -1</i>
   <i name="NELECT">   1042.00000000</i>
   <i type="int" name="TURBO">     0</i>
   <i type="int" name="IRESTART">     0</i>
   <i type="int" name="NREBOOT">     0</i>
   <i type="int" name="NMIN">     0</i>
   <i name="EREF">      0.00000000</i>
   <separator name="electronic smearing" >
    <i type="int" name="ISMEAR">     0</i>
    <i name="SIGMA">      0.05000000</i>
    <i name="KSPACING">      0.50000000</i>
    <i type="logical" name="KGAMMA"> T  </i>
    <i type="logical" name="KBLOWUP"> T  </i>
   </separator>
   <separator name="electronic projectors" >
    <i type="logical" name="LREAL"> T  </i>
    <v name="ROPT">     -0.00050000     -0.00050000     -0.00050000</v>
    <i type="int" name="LMAXPAW">  -100</i>
    <i type="int" name="LMAXMIX">     2</i>
    <i type="logical" name="NLSPLINE"> F  </i>
   </separator>
   <separator name="electronic startup" >
    <i type="int" name="ISTART">     0</i>
    <i type="int" name="ICHARG">     0</i>
    <i type="int" name="INIWAV">     1</i>
   </separator>
   <separator name="electronic spin" >
    <i type="int" name="ISPIN">     1</i>
    <i type="logical" name="LNONCOLLINEAR"> F  </i>
    <v name="MAGMOM">      1.00000000      1.00000000      1.00000000      1.00000000      1.00000000      1.00000000      1.00000000      1.00000000      1.00000000      1.00000000      1.00000000      1.00000000      1.00000000      1.00000000      1.00000000      1.00000000      1.00000000      1.00000000      1.00000000      1.00000000
      1.00000000      1.00000000      1.00000000      1.00000000      1.00000000      1.00000000      1.00000000      1.00000000      1.00000000      1.00000000      1.00000000      1.00000000      1.00000000      1.00000000      1.00000000      1.00000000      1.00000000      1.00000000      1.00000000      1.00000000
      1.00000000      1.00000000      1.00000000      1.00000000      1.00000000      1.00000000      1.00000000      1.00000000      1.00000000      1.00000000      1.00000000      1.00000000      1.00000000      1.00000000      1.00000000      1.00000000      1.00000000      1.00000000      1.00000000      1.00000000
      1.00000000      1.00000000      1.00000000      1.00000000      1.00000000      1.00000000      1.00000000      1.00000000      1.00000000      1.00000000      1.00000000      1.00000000      1.00000000      1.00000000      1.00000000      1.00000000      1.00000000      1.00000000      1.00000000      1.00000000
      1.00000000      1.00000000      1.00000000      1.00000000      1.00000000      1.00000000      1.00000000      1.00000000      1.00000000      1.00000000      1.00000000      1.00000000      1.00000000      1.00000000      1.00000000      1.00000000      1.00000000      1.00000000      1.00000000      1.00000000
      1.00000000      1.00000000      1.00000000      1.00000000      1.00000000      1.00000000      1.00000000      1.00000000      1.00000000      1.00000000      1.00000000      1.00000000      1.00000000      1.00000000      1.00000000      1.00000000      1.00000000      1.00000000      1.00000000</v>
    <i name="NUPDOWN">     -1.00000000</i>
    <i type="logical" name="LSORBIT"> F  </i>
    <v name="SAXIS">      0.00000000      0.00000000      1.00000000</v>
    <i type="logical" name="LSPIRAL"> F  </i>
    <v name="QSPIRAL">      0.00000000      0.00000000      0.00000000</v>
    <i type="logical" name="LZEROZ"> F  </i>
   </separator>
   <separator name="electronic exchange-correlation" >
    <i type="logical" name="LASPH"> F  </i>
    <i type="logical" name="LMETAGGA"> F  </i>
   </separator>
   <separator name="electronic convergence" >
    <i type="int" name="NELM">   500</i>
    <i type="int" name="NELMDL">    -5</i>
    <i type="int" name="NELMIN">     2</i>
    <i name="ENINI">    450.00000000</i>
    <separator name="electronic convergence detail" >
     <i type="logical" name="LDIAG"> T  </i>
     <i type="logical" name="LSUBROT"> F  </i>
     <i name="WEIMIN">      0.00000000</i>
     <i name="EBREAK">      0.00000000</i>
     <i name="DEPER">      0.30000000</i>
     <i type="int" name="NRMM">     4</i>
     <i name="TIME">      0.40000000</i>
    </separator>
   </separator>
   <separator name="electronic mixer" >
    <i name="AMIX">      0.40000000</i>
    <i name="BMIX">      1.00000000</i>
    <i name="AMIN">      0.10000000</i>
    <i name="AMIX_MAG">      1.60000000</i>
    <i name="BMIX_MAG">      1.00000000</i>
    <separator name="electronic mixer details" >
     <i type="int" name="IMIX">     4</i>
     <i type="logical" name="MIXFIRST"> F  </i>
     <i type="int" name="MAXMIX">   -45</i>
     <i name="WC">    100.00000000</i>
     <i type="int" name="INIMIX">     1</i>
     <i type="int" name="MIXPRE">     1</i>
     <i type="int" name="MREMOVE">     5</i>
    </separator>
   </separator>
   <separator name="electronic dipolcorrection" >
    <i type="logical" name="LDIPOL"> F  </i>
    <i type="logical" name="LMONO"> F  </i>
    <i type="int" name="IDIPOL">     0</i>
    <i name="EPSILON">      1.00000000</i>
    <v name="DIPOL">   -100.00000000   -100.00000000   -100.00000000</v>
    <i name="EFIELD">      0.00000000</i>
   </separator>
  </separator>
  <separator name="grids" >
   <i type="int" name="NGX">    64</i>
   <i type="int" name="NGY">    48</i>
   <i type="int" name="NGZ">    60</i>
   <i type="int" name="NGXF">   128</i>
   <i type="int" name="NGYF">    96</i>
   <i type="int" name="NGZF">   120</i>
   <i type="logical" name="ADDGRID"> F  </i>
  </separator>
  <separator name="ionic" >
   <i type="int" name="NSW">     0</i>
   <i type="int" name="IBRION">    -1</i>
   <i type="int" name="MDALGO">     0</i>
   <i type="int" name="ISIF">     2</i>
   <i name="PSTRESS">      0.00000000</i>
   <i name="EDIFFG">     -0.00500000</i>
   <i type="int" name="NFREE">     0</i>
   <i name="POTIM">      0.50000000</i>
   <i name="SMASS">     -3.00000000</i>
   <i name="SCALEE">      1.00000000</i>
  </separator>
  <separator name="ionic md" >
   <i name="TEBEG">      0.00010000</i>
   <i name="TEEND">      0.00010000</i>
   <i type="int" name="NBLOCK">     1</i>
   <i type="int" name="KBLOCK">     1</i>
   <i type="int" name="NPACO">   256</i>
   <i name="APACO">     10.00000000</i>
  </separator>
  <separator name="symmetry" >
   <i type="int" name="ISYM">     3</i>
   <i name="SYMPREC">      0.00001000</i>
  </separator>
  <separator name="dos" >
   <i type="int" name="LORBIT">     0</i>
   <v name="RWIGS">     -1.00000000     -1.00000000     -1.00000000</v>
   <i type="int" name="NEDOS">   301</i>
   <i name="EMIN">     10.00000000</i>
   <i name="EMAX">    -10.00000000</i>
   <i name="EFERMI">      0.00000000</i>
  </separator>
  <separator name="writing" >
   <i type="int" name="NWRITE">     2</i>
   <i type="logical" name="LWAVE"> T  </i>
   <i type="logical" name="LDOWNSAMPLE"> F  </i>
   <i type="logical" name="LCHARG"> T  </i>
   <i type="logical" name="LPARD"> F  </i>
   <i type="logical" name="LVTOT"> F  </i>
   <i type="logical" name="LVHAR"> F  </i>
   <i type="logical" name="LELF"> F  </i>
   <i type="logical" name="LOPTICS"> F  </i>
   <v name="STM">      0.00000000      0.00000000      0.00000000      0.00000000      0.00000000      0.00000000      0.00000000</v>
  </separator>
  <separator name="performance" >
   <i type="int" name="NPAR">     1</i>
   <i type="int" name="NSIM">     4</i>
   <i type="int" name="NBLK">    -1</i>
   <i type="logical" name="LPLANE"> T  </i>
   <i type="logical" name="LSCALAPACK"> T  </i>
   <i type="logical" name="LSCAAWARE"> F  </i>
   <i type="logical" name="LSCALU"> F  </i>
   <i type="logical" name="LASYNC"> F  </i>
   <i type="logical" name="LORBITALREAL"> F  </i>
  </separator>
  <separator name="miscellaneous" >
   <i type="int" name="IDIOT">     3</i>
   <i type="int" name="PHON_NSTRUCT">    -1</i>
   <i type="logical" name="LMUSIC"> F  </i>
   <v name="POMASS">     69.72300000     16.00000000     30.97400000</v>
   <v name="DARWINR">      0.00000000      0.00000000      0.00000000</v>
   <v name="DARWINV">      1.00000000      1.00000000      1.00000000</v>
   <i type="logical" name="LCORR"> T  </i>
  </separator>
  <i type="logical" name="GGA_COMPAT"> T  </i>
  <i type="logical" name="LBERRY"> F  </i>
  <i type="int" name="ICORELEVEL">     0</i>
  <i type="logical" name="LDAU"> F  </i>
  <i type="int" name="I_CONSTRAINED_M">     0</i>
  <separator name="electronic exchange-correlation" >
   <i type="string" name="GGA">--</i>
   <i type="int" name="VOSKOWN">     0</i>
   <i type="logical" name="LHFCALC"> T  </i>
   <i type="string" name="PRECFOCK">fast</i>
   <i type="logical" name="LSYMGRAD"> F  </i>
   <i type="logical" name="LHFONE"> F  </i>
   <i type="logical" name="LRHFCALC"> F  </i>
   <i type="logical" name="LTHOMAS"> F  </i>
   <i type="logical" name="LMODELHF"> F  </i>
   <i type="logical" name="LFOCKACE"> T  </i>
   <i name="ENCUT4O">     -1.00000000</i>
   <i type="int" name="EXXOEP">     0</i>
   <i type="int" name="FOURORBIT">     0</i>
   <i name="AEXX">      0.35000000</i>
   <i name="HFALPHA">     -1.00000000</i>
   <i name="MCALPHA">      0.00000000</i>
   <i name="ALDAX">      0.65000000</i>
   <i name="AGGAX">      0.65000000</i>
   <i name="ALDAC">      1.00000000</i>
   <i name="AGGAC">      1.00000000</i>
   <i type="int" name="NKREDX">     1</i>
   <i type="int" name="NKREDY">     1</i>
   <i type="int" name="NKREDZ">     1</i>
   <i type="logical" name="SHIFTRED"> F  </i>
   <i type="logical" name="ODDONLY"> F  </i>
   <i type="logical" name="EVENONLY"> F  </i>
   <i type="int" name="LMAXFOCK">     4</i>
   <i type="int" name="NMAXFOCKAE">     1</i>
   <i type="logical" name="LFOCKAEDFT"> F  </i>
   <i name="HFSCREEN">      0.18000000</i>
   <i name="HFSCREENC">      0.18000000</i>
   <i type="int" name="NBANDSGWLOW">     1</i>
  </separator>
  <separator name="vdW DFT" >
   <i type="logical" name="LUSE_VDW"> F  </i>
   <i type="int" name="IVDW_NL">     1</i>
   <i type="logical" name="LSPIN_VDW"> F  </i>
   <i name="Zab_VDW">     -0.84910000</i>
   <i name="PARAM1">      0.12340000</i>
   <i name="PARAM2">      1.00000000</i>
   <i name="PARAM3">      0.00000000</i>
  </separator>
  <separator name="model GW" >
   <i type="int" name="MODEL_GW">     0</i>
   <i name="MODEL_EPS0">      6.39733692</i>
   <i name="MODEL_ALPHA">      1.00000000</i>
  </separator>
  <separator name="linear response parameters" >
   <i type="logical" name="LEPSILON"> F  </i>
   <i type="logical" name="LRPA"> F  </i>
   <i type="logical" name="LNABLA"> F  </i>
   <i type="logical" name="LVEL"> F  </i>
   <i name="CSHIFT">      0.10000000</i>
   <i name="OMEGAMAX">     -1.00000000</i>
   <i name="DEG_THRESHOLD">      0.00200000</i>
   <i name="RTIME">     -0.10000000</i>
   <i name="WPLASMAI">      0.00000000</i>
   <v name="DFIELD">      0.00000000      0.00000000      0.00000000</v>
   <v name="WPLASMA">      0.00000000      0.00000000      0.00000000      0.00000000      0.00000000      0.00000000      0.00000000      0.00000000      0.00000000</v>
  </separator>
  <separator name="orbital magnetization" >
   <i type="logical" name="NUCIND"> F  </i>
   <v name="MAGPOS">      0.00000000      0.00000000      0.00000000</v>
   <i type="logical" name="LNICSALL"> T  </i>
   <i type="logical" name="ORBITALMAG"> F  </i>
   <i type="logical" name="LMAGBLOCH"> F  </i>
   <i type="logical" name="LCHIMAG"> F  </i>
   <i type="logical" name="LGAUGE"> T  </i>
   <i type="int" name="MAGATOM">     0</i>
   <v name="MAGDIPOL">      0.00000000      0.00000000      0.00000000</v>
   <v name="AVECCONST">      0.00000000      0.00000000      0.00000000</v>
  </separator>
  <separator name="response functions" >
   <i type="logical" name="LALL_IN_ONE"> F  </i>
   <i type="int" name="IALL_IN_ONE">    -1</i>
   <i type="int" name="NBANDS_WAVE">    -1</i>
   <i type="logical" name="LFINITE_TEMPERATURE"> F  </i>
   <i type="logical" name="LADDER"> F  </i>
   <i type="logical" name="LRPAFORCE"> F  </i>
   <i type="logical" name="LFXC"> F  </i>
   <i type="logical" name="LHARTREE"> T  </i>
   <i type="int" name="IBSE">     0</i>
   <v type="int" name="KPOINT">    -1     0     0     0</v>
   <i type="logical" name="LTCTC"> F  </i>
   <i type="logical" name="LTCTE"> F  </i>
   <i type="logical" name="LTETE"> F  </i>
   <i type="logical" name="LTRIPLET"> F  </i>
   <i type="logical" name="LFXCEPS"> F  </i>
   <i type="logical" name="LFXHEG"> F  </i>
   <i type="int" name="NATURALO">     2</i>
   <i type="logical" name="LHOLEGF"> F  </i>
   <i type="logical" name="L2ORDER"> F  </i>
   <i type="logical" name="LDMP1"> F  </i>
   <i type="logical" name="LMP2LT"> F  </i>
   <i type="logical" name="LSMP2LT"> F  </i>
   <i type="logical" name="LGWLF"> F  </i>
   <i name="ENCUTGW">     -1.60000002</i>
   <i name="ENCUTGWSOFT">     -1.60000002</i>
   <i name="ENCUTLF">     -1.00000000</i>
   <i type="logical" name="LESF_SPLINES"> F  </i>
   <i type="int" name="LMAXMP2">    -1</i>
   <i name="SCISSOR">      0.00000000</i>
   <i type="int" name="NOMEGA">     0</i>
   <i type="int" name="NOMEGAR">     0</i>
   <i type="int" name="NBANDSGW">    -1</i>
   <i type="int" name="NBANDSO">    -1</i>
   <i type="int" name="NBANDSV">    -1</i>
   <i type="int" name="NELMGW">     1</i>
   <i type="int" name="NELMHF">     1</i>
   <i type="int" name="DIM">     3</i>
   <i type="int" name="IESPILON">     4</i>
   <i type="int" name="ANTIRES">     0</i>
   <i name="OMEGAMAX">    -30.00000000</i>
   <i name="OMEGAMIN">    -30.00000000</i>
   <i name="OMEGATL">   -200.00000000</i>
   <i type="int" name="OMEGAGRID">     0</i>
   <i name="CSHIFT">     -0.10000000</i>
   <i type="logical" name="LSELFENERGY"> F  </i>
   <i type="logical" name="LSPECTRAL"> F  </i>
   <i type="logical" name="LSPECTRALGW"> F  </i>
   <i type="logical" name="LSINGLES"> F  </i>
   <i type="logical" name="LFERMIGW"> F  </i>
   <i type="logical" name="ODDONLYGW"> F  </i>
   <i type="logical" name="EVENONLYGW"> F  </i>
   <i type="int" name="NKREDLFX">     1</i>
   <i type="int" name="NKREDLFY">     1</i>
   <i type="int" name="NKREDLFZ">     1</i>
   <i type="int" name="MAXMEM">  2800</i>
   <i type="int" name="TELESCOPE">     0</i>
   <i type="int" name="NTAUPAR">    -1</i>
   <i type="int" name="NOMEGAPAR">    -1</i>
   <i name="DAMP_NEWTON">      0.80000001</i>
   <i name="LAMBDA">      1.00000000</i>
  </separator>
  <separator name="External order field" >
   <i name="OFIELD_KAPPA">      0.00000000</i>
   <v name="OFIELD_K">      0.00000000      0.00000000      0.00000000</v>
   <i name="OFIELD_Q6_NEAR">      0.00000000</i>
   <i name="OFIELD_Q6_FAR">      0.00000000</i>
   <i name="OFIELD_A">      0.00000000</i>
  </separator>
  <separator name="optional k-points parameters" >
   <i type="int" name="KPOINTS_OPT_MODE">     1</i>
   <i type="logical" name="LKPOINTS_OPT"> F  </i>
  </separator>
 </parameters>
 <atominfo>
  <atoms>     119 </atoms>
  <types>       3 </types>
  <array name="atoms" >
   <dimension dim="1">ion</dimension>
   <field type="string">element</field>
   <field type="int">atomtype</field>
   <set>
    <rc><c>Ga</c><c>   1</c></rc>
    <rc><c>Ga</c><c>   1</c></rc>
    <rc><c>Ga</c><c>   1</c></rc>
    <rc><c>Ga</c><c>   1</c></rc>
    <rc><c>Ga</c><c>   1</c></rc>
    <rc><c>Ga</c><c>   1</c></rc>
    <rc><c>Ga</c><c>   1</c></rc>
    <rc><c>Ga</c><c>   1</c></rc>
    <rc><c>Ga</c><c>   1</c></rc>
    <rc><c>Ga</c><c>   1</c></rc>
    <rc><c>Ga</c><c>   1</c></rc>
    <rc><c>Ga</c><c>   1</c></rc>
    <rc><c>Ga</c><c>   1</c></rc>
    <rc><c>Ga</c><c>   1</c></rc>
    <rc><c>Ga</c><c>   1</c></rc>
    <rc><c>Ga</c><c>   1</c></rc>
    <rc><c>Ga</c><c>   1</c></rc>
    <rc><c>Ga</c><c>   1</c></rc>
    <rc><c>Ga</c><c>   1</c></rc>
    <rc><c>Ga</c><c>   1</c></rc>
    <rc><c>Ga</c><c>   1</c></rc>
    <rc><c>Ga</c><c>   1</c></rc>
    <rc><c>Ga</c><c>   1</c></rc>
    <rc><c>Ga</c><c>   1</c></rc>
    <rc><c>Ga</c><c>   1</c></rc>
    <rc><c>Ga</c><c>   1</c></rc>
    <rc><c>Ga</c><c>   1</c></rc>
    <rc><c>Ga</c><c>   1</c></rc>
    <rc><c>Ga</c><c>   1</c></rc>
    <rc><c>Ga</c><c>   1</c></rc>
    <rc><c>Ga</c><c>   1</c></rc>
    <rc><c>Ga</c><c>   1</c></rc>
    <rc><c>Ga</c><c>   1</c></rc>
    <rc><c>Ga</c><c>   1</c></rc>
    <rc><c>Ga</c><c>   1</c></rc>
    <rc><c>Ga</c><c>   1</c></rc>
    <rc><c>Ga</c><c>   1</c></rc>
    <rc><c>Ga</c><c>   1</c></rc>
    <rc><c>Ga</c><c>   1</c></rc>
    <rc><c>Ga</c><c>   1</c></rc>
    <rc><c>Ga</c><c>   1</c></rc>
    <rc><c>Ga</c><c>   1</c></rc>
    <rc><c>Ga</c><c>   1</c></rc>
    <rc><c>Ga</c><c>   1</c></rc>
    <rc><c>Ga</c><c>   1</c></rc>
    <rc><c>Ga</c><c>   1</c></rc>
    <rc><c>Ga</c><c>   1</c></rc>
    <rc><c>O </c><c>   2</c></rc>
    <rc><c>O </c><c>   2</c></rc>
    <rc><c>O </c><c>   2</c></rc>
    <rc><c>O </c><c>   2</c></rc>
    <rc><c>O </c><c>   2</c></rc>
    <rc><c>O </c><c>   2</c></rc>
    <rc><c>O </c><c>   2</c></rc>
    <rc><c>O </c><c>   2</c></rc>
    <rc><c>O </c><c>   2</c></rc>
    <rc><c>O </c><c>   2</c></rc>
    <rc><c>O </c><c>   2</c></rc>
    <rc><c>O </c><c>   2</c></rc>
    <rc><c>O </c><c>   2</c></rc>
    <rc><c>O </c><c>   2</c></rc>
    <rc><c>O </c><c>   2</c></rc>
    <rc><c>O </c><c>   2</c></rc>
    <rc><c>O </c><c>   2</c></rc>
    <rc><c>O </c><c>   2</c></rc>
    <rc><c>O </c><c>   2</c></rc>
    <rc><c>O </c><c>   2</c></rc>
    <rc><c>O </c><c>   2</c></rc>
    <rc><c>O </c><c>   2</c></rc>
    <rc><c>O </c><c>   2</c></rc>
    <rc><c>O </c><c>   2</c></rc>
    <rc><c>O </c><c>   2</c></rc>
    <rc><c>O </c><c>   2</c></rc>
    <rc><c>O </c><c>   2</c></rc>
    <rc><c>O </c><c>   2</c></rc>
    <rc><c>O </c><c>   2</c></rc>
    <rc><c>O </c><c>   2</c></rc>
    <rc><c>O </c><c>   2</c></rc>
    <rc><c>O </c><c>   2</c></rc>
    <rc><c>O </c><c>   2</c></rc>
    <rc><c>O </c><c>   2</c></rc>
    <rc><c>O </c><c>   2</c></rc>
    <rc><c>O </c><c>   2</c></rc>
    <rc><c>O </c><c>   2</c></rc>
    <rc><c>O </c><c>   2</c></rc>
    <rc><c>O </c><c>   2</c></rc>
    <rc><c>O </c><c>   2</c></rc>
    <rc><c>O </c><c>   2</c></rc>
    <rc><c>O </c><c>   2</c></rc>
    <rc><c>O </c><c>   2</c></rc>
    <rc><c>O </c><c>   2</c></rc>
    <rc><c>O </c><c>   2</c></rc>
    <rc><c>O </c><c>   2</c></rc>
    <rc><c>O </c><c>   2</c></rc>
    <rc><c>O </c><c>   2</c></rc>
    <rc><c>O </c><c>   2</c></rc>
    <rc><c>O </c><c>   2</c></rc>
    <rc><c>O </c><c>   2</c></rc>
    <rc><c>O </c><c>   2</c></rc>
    <rc><c>O </c><c>   2</c></rc>
    <rc><c>O </c><c>   2</c></rc>
    <rc><c>O </c><c>   2</c></rc>
    <rc><c>O </c><c>   2</c></rc>
    <rc><c>O </c><c>   2</c></rc>
    <rc><c>O </c><c>   2</c></rc>
    <rc><c>O </c><c>   2</c></rc>
    <rc><c>O </c><c>   2</c></rc>
    <rc><c>O </c><c>   2</c></rc>
    <rc><c>O </c><c>   2</c></rc>
    <rc><c>O </c><c>   2</c></rc>
    <rc><c>O </c><c>   2</c></rc>
    <rc><c>O </c><c>   2</c></rc>
    <rc><c>O </c><c>   2</c></rc>
    <rc><c>O </c><c>   2</c></rc>
    <rc><c>O </c><c>   2</c></rc>
    <rc><c>O </c><c>   2</c></rc>
    <rc><c>O </c><c>   2</c></rc>
    <rc><c>O </c><c>   2</c></rc>
    <rc><c>P </c><c>   3</c></rc>
   </set>
  </array>
  <array name="atomtypes" >
   <dimension dim="1">type</dimension>
   <field type="int">atomspertype</field>
   <field type="string">element</field>
   <field>mass</field>
   <field>valence</field>
   <field type="string">pseudopotential</field>
   <set>
    <rc><c>  47</c><c>Ga</c><c>     69.72300000</c><c>     13.00000000</c><c>  PAW_PBE Ga_d 06Jul2010                </c></rc>
    <rc><c>  71</c><c>O </c><c>     16.00000000</c><c>      6.00000000</c><c>   PAW_PBE O 08Apr2002                  </c></rc>
    <rc><c>   1</c><c>P </c><c>     30.97400000</c><c>      5.00000000</c><c>  PAW_PBE P 06Sep2000                   </c></rc>
   </set>
  </array>
 </atominfo>
 <structure name="initialpos" >
  <crystal>
   <varray name="basis" >
    <v>       0.00000000      12.28047342       0.00000000 </v>
    <v>       9.14270205       0.00000000       0.00000000 </v>
    <v>       0.00000000      -2.76826177     -11.30069772 </v>
   </varray>
   <i name="volume">   1268.80515525 </i>
   <varray name="rec_basis" >
    <v>       0.00000000       0.08143009      -0.01994742 </v>
    <v>       0.10937686      -0.00000000       0.00000000 </v>
    <v>       0.00000000       0.00000000      -0.08849011 </v>
   </varray>
  </crystal>
  <varray name="positions" >
   <v>       0.66321357       0.99340610       0.15245181 </v>
   <v>       0.65955000       0.99919605       0.65876011 </v>
   <v>       0.66321357       0.33992723       0.15245181 </v>
   <v>       0.65955000       0.33413729       0.65876011 </v>
   <v>       0.66006421       0.66666667       0.15587495 </v>
   <v>       0.66087404       0.66666667       0.65533275 </v>
   <v>       0.84187901       0.16666667       0.84601587 </v>
   <v>       0.84555697       0.50093069       0.33532998 </v>
   <v>       0.84266196       0.49988791       0.84377652 </v>
   <v>       0.84555697       0.83240264       0.33532998 </v>
   <v>       0.84266196       0.83344543       0.84377652 </v>
   <v>       0.59001836       0.16666667       0.40282926 </v>
   <v>       0.59198837       0.16666667       0.89999951 </v>
   <v>       0.59270907       0.50035921       0.39743955 </v>
   <v>       0.58930135       0.50130392       0.89411166 </v>
   <v>       0.59270907       0.83297412       0.39743955 </v>
   <v>       0.58930135       0.83202941       0.89411166 </v>
   <v>       0.91220035       0.99874422       0.10364042 </v>
   <v>       0.91133059       0.00102406       0.60733915 </v>
   <v>       0.91220035       0.33458911       0.10364042 </v>
   <v>       0.91133059       0.33230927       0.60733915 </v>
   <v>       0.91223911       0.66666667       0.09961718 </v>
   <v>       0.90841506       0.66666667       0.60011346 </v>
   <v>       0.16225995       0.16666667       0.15856615 </v>
   <v>       0.16309913       0.16666667       0.65614853 </v>
   <v>       0.16163751       0.49954771       0.15836430 </v>
   <v>       0.15935447       0.49896695       0.65351962 </v>
   <v>       0.16163751       0.83378562       0.15836430 </v>
   <v>       0.15935447       0.83436638       0.65351962 </v>
   <v>       0.34108936       0.99944974       0.34385220 </v>
   <v>       0.34151516       0.99991600       0.84392570 </v>
   <v>       0.34108936       0.33388359       0.34385220 </v>
   <v>       0.34151516       0.33341734       0.84392570 </v>
   <v>       0.34213929       0.66666667       0.34411142 </v>
   <v>       0.33968096       0.66666667       0.84294240 </v>
   <v>       0.08721438       0.03119665       0.39582290 </v>
   <v>       0.09254864       0.00007140       0.89825922 </v>
   <v>       0.08721438       0.30213668       0.39582290 </v>
   <v>       0.09254864       0.33326194       0.89825922 </v>
   <v>       0.08743528       0.66666667       0.39554640 </v>
   <v>       0.09273250       0.66666667       0.89832225 </v>
   <v>       0.41295216       0.16666667       0.10396344 </v>
   <v>       0.41062371       0.16666667       0.60350137 </v>
   <v>       0.41185419       0.49923469       0.10349854 </v>
   <v>       0.40991758       0.50057387       0.60295293 </v>
   <v>       0.41185419       0.83409865       0.10349854 </v>
   <v>       0.40991758       0.83275946       0.60295293 </v>
   <v>       0.99774679       0.16666667       0.13760204 </v>
   <v>       0.99827549       0.16666667       0.62276403 </v>
   <v>       0.99963215       0.50102925       0.12531981 </v>
   <v>       0.99501257       0.49927661       0.62469466 </v>
   <v>       0.99963215       0.83230409       0.12531981 </v>
   <v>       0.99501257       0.83405672       0.62469466 </v>
   <v>       0.50553325       0.99991609       0.37202630 </v>
   <v>       0.50458761       0.00045929       0.87367445 </v>
   <v>       0.50553325       0.33341724       0.37202630 </v>
   <v>       0.50458761       0.33287404       0.87367445 </v>
   <v>       0.50556897       0.66666667       0.37321391 </v>
   <v>       0.50162285       0.66666667       0.86838905 </v>
   <v>       0.69125301       0.16666667       0.29846643 </v>
   <v>       0.67399468       0.16666667       0.78364100 </v>
   <v>       0.67558340       0.50092321       0.28170273 </v>
   <v>       0.67395078       0.50015197       0.78000216 </v>
   <v>       0.67558340       0.83241012       0.28170273 </v>
   <v>       0.67395078       0.83318136       0.78000216 </v>
   <v>       0.82407134       0.98104011       0.21095237 </v>
   <v>       0.82812081       0.00093956       0.72089423 </v>
   <v>       0.82407134       0.35229323       0.21095237 </v>
   <v>       0.82812081       0.33239377       0.72089423 </v>
   <v>       0.83014428       0.66666667       0.21602386 </v>
   <v>       0.82851175       0.66666667       0.71839289 </v>
   <v>       0.82648019       0.01693656       0.44889008 </v>
   <v>       0.83458369       0.99989590       0.94693956 </v>
   <v>       0.82648019       0.31639677       0.44889008 </v>
   <v>       0.83458369       0.33343743       0.94693956 </v>
   <v>       0.83750311       0.66666667       0.44148731 </v>
   <v>       0.83312026       0.66666667       0.94430125 </v>
   <v>       0.66840242       0.16666667       0.05824493 </v>
   <v>       0.66740092       0.16666667       0.55823143 </v>
   <v>       0.66513173       0.50447031       0.05000657 </v>
   <v>       0.67112488       0.49901778       0.55389486 </v>
   <v>       0.66513173       0.82886302       0.05000657 </v>
   <v>       0.67112488       0.83431555       0.55389486 </v>
   <v>       0.50191653       0.00050262       0.13111043 </v>
   <v>       0.49764149       0.99935834       0.62853847 </v>
   <v>       0.50191653       0.33283072       0.13111043 </v>
   <v>       0.49764149       0.33397500       0.62853847 </v>
   <v>       0.49821932       0.66666667       0.12836278 </v>
   <v>       0.49866121       0.66666667       0.62706480 </v>
   <v>       0.00421700       0.16666667       0.87222737 </v>
   <v>       0.00639894       0.48741856       0.37466479 </v>
   <v>       0.00473898       0.49999153       0.87118102 </v>
   <v>       0.00639894       0.84591478       0.37466479 </v>
   <v>       0.00473898       0.83334180       0.87118102 </v>
   <v>       0.17507225       0.99890453       0.27961065 </v>
   <v>       0.17363170       0.00039468       0.78101917 </v>
   <v>       0.17507225       0.33442880       0.27961065 </v>
   <v>       0.17363170       0.33293865       0.78101917 </v>
   <v>       0.17304752       0.66666667       0.28136279 </v>
   <v>       0.17247054       0.66666667       0.77935407 </v>
   <v>       0.33114916       0.16666667       0.22009209 </v>
   <v>       0.33024942       0.16666667       0.72131374 </v>
   <v>       0.33021702       0.50056226       0.22008038 </v>
   <v>       0.32797323       0.50018808       0.71950792 </v>
   <v>       0.33021702       0.83277108       0.22008038 </v>
   <v>       0.32797323       0.83314526       0.71950792 </v>
   <v>       0.33609632       0.16666667       0.44658815 </v>
   <v>       0.33558376       0.16666667       0.94759254 </v>
   <v>       0.33546562       0.50046277       0.44634693 </v>
   <v>       0.33461195       0.49954093       0.94691367 </v>
   <v>       0.33546562       0.83287057       0.44634693 </v>
   <v>       0.33461195       0.83379240       0.94691367 </v>
   <v>       0.16871185       0.00091429       0.05424312 </v>
   <v>       0.16881161       0.99996261       0.55456553 </v>
   <v>       0.16871185       0.33241904       0.05424312 </v>
   <v>       0.16881161       0.33337073       0.55456553 </v>
   <v>       0.17027638       0.66666667       0.05456315 </v>
   <v>       0.16485107       0.66666667       0.55249993 </v>
   <v>       0.83275343       0.16666667       0.36305175 </v>
  </varray>
 </structure>
 <calculation>
  <scstep>
   <time name="total">    3.91    3.93</time>
   <energy>
    <i name="alphaZ">   5376.25786726 </i>
    <i name="ewald"> -86652.75323191 </i>
    <i name="hartreedc">  -2072.20797061 </i>
    <i name="XCdc">   2751.48580700 </i>
    <i name="pawpsdc"> 330938.13845840 </i>
    <i name="pawaedc">-362247.57868442 </i>
    <i name="eentropy">     -0.00715693 </i>
    <i name="bandstr"> -40887.94771425 </i>
    <i name="atom"> 131459.35058357 </i>
    <i name="e_fr_energy"> -21335.26204187 </i>
    <i name="e_wo_entrp"> -21335.25488494 </i>
    <i name="e_0_energy"> -21335.25846341 </i>
   </energy>
  </scstep>
  <scstep>
   <time name="total">    3.11    3.11</time>
   <energy>
    <i name="e_fr_energy"> -65887.31248842 </i>
    <i name="e_wo_entrp"> -65887.29792142 </i>
    <i name="e_0_energy"> -65887.30520492 </i>
   </energy>
  </scstep>
  <scstep>
   <time name="total">    3.34    3.34</time>
   <energy>
    <i name="e_fr_energy"> -70987.74633375 </i>
    <i name="e_wo_entrp"> -70987.71674726 </i>
    <i name="e_0_energy"> -70987.73154051 </i>
   </energy>
  </scstep>
  <scstep>
   <time name="total">    3.80    3.80</time>
   <energy>
    <i name="e_fr_energy"> -71699.93730240 </i>
    <i name="e_wo_entrp"> -71699.89740608 </i>
    <i name="e_0_energy"> -71699.91735424 </i>
   </energy>
  </scstep>
  <scstep>
   <time name="total">  230.87  230.85</time>
   <energy>
    <i name="e_fr_energy"> -39275.50747147 </i>
    <i name="e_wo_entrp"> -39275.49099161 </i>
    <i name="e_0_energy"> -39275.49923154 </i>
   </energy>
  </scstep>
  <scstep>
   <time name="total">  459.72  459.66</time>
   <energy>
    <i name="e_fr_energy">  30311.52108998 </i>
    <i name="e_wo_entrp">  30311.55074455 </i>
    <i name="e_0_energy">  30311.53591727 </i>
   </energy>
  </scstep>
  <scstep>
   <time name="total">  459.94  459.89</time>
   <energy>
    <i name="e_fr_energy">   7614.31588789 </i>
    <i name="e_wo_entrp">   7614.35830491 </i>
    <i name="e_0_energy">   7614.33709640 </i>
   </energy>
  </scstep>
  <scstep>
   <time name="total">  459.80  459.75</time>
   <energy>
    <i name="e_fr_energy">   4281.40004772 </i>
    <i name="e_wo_entrp">   4281.42138939 </i>
    <i name="e_0_energy">   4281.41071856 </i>
   </energy>
  </scstep>
  <scstep>
   <time name="total">  459.35  459.29</time>
   <energy>
    <i name="e_fr_energy">   2117.85030042 </i>
    <i name="e_wo_entrp">   2117.86477743 </i>
    <i name="e_0_energy">   2117.85753892 </i>
   </energy>
  </scstep>
  <scstep>
   <time name="total">  458.70  458.64</time>
   <energy>
    <i name="e_fr_energy">    936.80000011 </i>
    <i name="e_wo_entrp">    936.81331587 </i>
    <i name="e_0_energy">    936.80665799 </i>
   </energy>
  </scstep>
  <scstep>
   <time name="total">  458.79  458.74</time>
   <energy>
    <i name="e_fr_energy">    -45.18984146 </i>
    <i name="e_wo_entrp">    -45.18246146 </i>
    <i name="e_0_energy">    -45.18615146 </i>
   </energy>
  </scstep>
  <scstep>
   <time name="total">  458.98  458.92</time>
   <energy>
    <i name="e_fr_energy">   -478.79094780 </i>
    <i name="e_wo_entrp">   -478.78123169 </i>
    <i name="e_0_energy">   -478.78608974 </i>
   </energy>
  </scstep>
  <scstep>
   <time name="total">  459.15  459.10</time>
   <energy>
    <i name="e_fr_energy">   -732.90544214 </i>
    <i name="e_wo_entrp">   -732.89350346 </i>
    <i name="e_0_energy">   -732.89947280 </i>
   </energy>
  </scstep>
  <scstep>
   <time name="total">  458.70  458.64</time>
   <energy>
    <i name="e_fr_energy">   -840.77623859 </i>
    <i name="e_wo_entrp">   -840.76917697 </i>
    <i name="e_0_energy">   -840.77270778 </i>
   </energy>
  </scstep>
  <scstep>
   <time name="total">  458.26  458.22</time>
   <energy>
    <i name="e_fr_energy">   -899.11993982 </i>
    <i name="e_wo_entrp">   -899.11281882 </i>
    <i name="e_0_energy">   -899.11637932 </i>
   </energy>
  </scstep>
  <scstep>
   <time name="total">  458.07  458.03</time>
   <energy>
    <i name="e_fr_energy">   -931.37015224 </i>
    <i name="e_wo_entrp">   -931.37015222 </i>
    <i name="e_0_energy">   -931.37015223 </i>
   </energy>
  </scstep>
  <scstep>
   <time name="total">  457.91  457.86</time>
   <energy>
    <i name="e_fr_energy">   -951.42953145 </i>
    <i name="e_wo_entrp">   -951.42953145 </i>
    <i name="e_0_energy">   -951.42953145 </i>
   </energy>
  </scstep>
  <scstep>
   <time name="total">  458.26  458.22</time>
   <energy>
    <i name="e_fr_energy">   -962.37683271 </i>
    <i name="e_wo_entrp">   -962.37683271 </i>
    <i name="e_0_energy">   -962.37683271 </i>
   </energy>
  </scstep>
  <scstep>
   <time name="total">  457.98  457.93</time>
   <energy>
    <i name="e_fr_energy">   -968.86334388 </i>
    <i name="e_wo_entrp">   -968.86334388 </i>
    <i name="e_0_energy">   -968.86334388 </i>
   </energy>
  </scstep>
  <scstep>
   <time name="total">  458.10  458.05</time>
   <energy>
    <i name="e_fr_energy">   -972.84840963 </i>
    <i name="e_wo_entrp">   -972.84840963 </i>
    <i name="e_0_energy">   -972.84840963 </i>
   </energy>
  </scstep>
  <scstep>
   <time name="total">  457.95  457.90</time>
   <energy>
    <i name="e_fr_energy">   -975.09370875 </i>
    <i name="e_wo_entrp">   -975.09370875 </i>
    <i name="e_0_energy">   -975.09370875 </i>
   </energy>
  </scstep>
  <scstep>
   <time name="total">  458.17  458.11</time>
   <energy>
    <i name="e_fr_energy">   -976.31568234 </i>
    <i name="e_wo_entrp">   -976.31568234 </i>
    <i name="e_0_energy">   -976.31568234 </i>
   </energy>
  </scstep>
  <scstep>
   <time name="total">  458.19  458.14</time>
   <energy>
    <i name="e_fr_energy">   -977.02286068 </i>
    <i name="e_wo_entrp">   -977.02286068 </i>
    <i name="e_0_energy">   -977.02286068 </i>
   </energy>
  </scstep>
  <scstep>
   <time name="total">  458.28  458.22</time>
   <energy>
    <i name="e_fr_energy">   -977.38247218 </i>
    <i name="e_wo_entrp">   -977.38247218 </i>
    <i name="e_0_energy">   -977.38247218 </i>
   </energy>
  </scstep>
  <scstep>
   <time name="total">  458.18  458.13</time>
   <energy>
    <i name="e_fr_energy">   -977.60382128 </i>
    <i name="e_wo_entrp">   -977.60382128 </i>
    <i name="e_0_energy">   -977.60382128 </i>
   </energy>
  </scstep>
  <scstep>
   <time name="total">  458.11  458.06</time>
   <energy>
    <i name="e_fr_energy">   -977.73617236 </i>
    <i name="e_wo_entrp">   -977.73617236 </i>
    <i name="e_0_energy">   -977.73617236 </i>
   </energy>
  </scstep>
  <scstep>
   <time name="total">  458.39  458.34</time>
   <energy>
    <i name="e_fr_energy">   -977.80851907 </i>
    <i name="e_wo_entrp">   -977.80851907 </i>
    <i name="e_0_energy">   -977.80851907 </i>
   </energy>
  </scstep>
  <scstep>
   <time name="total">  458.46  458.42</time>
   <energy>
    <i name="e_fr_energy">   -977.85062564 </i>
    <i name="e_wo_entrp">   -977.85062564 </i>
    <i name="e_0_energy">   -977.85062564 </i>
   </energy>
  </scstep>
  <scstep>
   <time name="total">  457.97  457.91</time>
   <energy>
    <i name="e_fr_energy">   -977.87311992 </i>
    <i name="e_wo_entrp">   -977.87311992 </i>
    <i name="e_0_energy">   -977.87311992 </i>
   </energy>
  </scstep>
  <scstep>
   <time name="total">  458.12  458.06</time>
   <energy>
    <i name="e_fr_energy">   -977.88519735 </i>
    <i name="e_wo_entrp">   -977.88519735 </i>
    <i name="e_0_energy">   -977.88519735 </i>
   </energy>
  </scstep>
  <scstep>
   <time name="total">  458.35  458.29</time>
   <energy>
    <i name="e_fr_energy">   -977.89285445 </i>
    <i name="e_wo_entrp">   -977.89285445 </i>
    <i name="e_0_energy">   -977.89285445 </i>
   </energy>
  </scstep>
  <scstep>
   <time name="total">  458.11  458.05</time>
   <energy>
    <i name="e_fr_energy">   -977.89734517 </i>
    <i name="e_wo_entrp">   -977.89734517 </i>
    <i name="e_0_energy">   -977.89734517 </i>
   </energy>
  </scstep>
  <scstep>
   <time name="total">  458.06  458.01</time>
   <energy>
    <i name="e_fr_energy">   -977.90007878 </i>
    <i name="e_wo_entrp">   -977.90007878 </i>
    <i name="e_0_energy">   -977.90007878 </i>
   </energy>
  </scstep>
  <scstep>
   <time name="total">  457.86  457.81</time>
   <energy>
    <i name="e_fr_energy">   -977.90163169 </i>
    <i name="e_wo_entrp">   -977.90163169 </i>
    <i name="e_0_energy">   -977.90163169 </i>
   </energy>
  </scstep>
  <scstep>
   <time name="total">  458.07  458.02</time>
   <energy>
    <i name="e_fr_energy">   -977.90246283 </i>
    <i name="e_wo_entrp">   -977.90246283 </i>
    <i name="e_0_energy">   -977.90246283 </i>
   </energy>
  </scstep>
  <scstep>
   <time name="total">  458.19  458.14</time>
   <energy>
    <i name="e_fr_energy">   -977.90294712 </i>
    <i name="e_wo_entrp">   -977.90294712 </i>
    <i name="e_0_energy">   -977.90294712 </i>
   </energy>
  </scstep>
  <scstep>
   <time name="total">  458.35  458.28</time>
   <energy>
    <i name="e_fr_energy">   -977.90323873 </i>
    <i name="e_wo_entrp">   -977.90323873 </i>
    <i name="e_0_energy">   -977.90323873 </i>
   </energy>
  </scstep>
  <scstep>
   <time name="total">  458.08  458.02</time>
   <energy>
    <i name="e_fr_energy">   -977.90353627 </i>
    <i name="e_wo_entrp">   -977.90353627 </i>
    <i name="e_0_energy">   -977.90353627 </i>
   </energy>
  </scstep>
  <scstep>
   <time name="total">  458.21  458.16</time>
   <energy>
    <i name="e_fr_energy">   -977.90362361 </i>
    <i name="e_wo_entrp">   -977.90362361 </i>
    <i name="e_0_energy">   -977.90362361 </i>
   </energy>
  </scstep>
  <scstep>
   <time name="total">  458.27  458.21</time>
   <energy>
    <i name="e_fr_energy">   -977.90365580 </i>
    <i name="e_wo_entrp">   -977.90365580 </i>
    <i name="e_0_energy">   -977.90365580 </i>
   </energy>
  </scstep>
  <scstep>
   <time name="total">  457.96  457.90</time>
   <energy>
    <i name="e_fr_energy">   -977.90366679 </i>
    <i name="e_wo_entrp">   -977.90366679 </i>
    <i name="e_0_energy">   -977.90366679 </i>
   </energy>
  </scstep>
  <scstep>
   <time name="total">  682.96  682.88</time>
   <energy>
    <i name="alphaZ">   5376.25786726 </i>
    <i name="ewald"> -86652.75323191 </i>
    <i name="hartreedc"> -33904.19909515 </i>
    <i name="XCdc">   2753.23968845 </i>
    <i name="pawpsdc"> 120499.35218826 </i>
    <i name="pawaedc">-135663.79990116 </i>
    <i name="eentropy">     -0.00000000 </i>
    <i name="bandstr">  -9099.42723700 </i>
    <i name="atom"> 131459.35058357 </i>
    <i name="e_fr_energy">   -977.90367083 </i>
    <i name="e_wo_entrp">   -977.90367083 </i>
    <i name="e_0_energy">   -977.90367083 </i>
   </energy>
  </scstep>
  <structure>
   <crystal>
    <varray name="basis" >
     <v>       0.00000000      12.28047342       0.00000000 </v>
     <v>       9.14270205       0.00000000       0.00000000 </v>
     <v>       0.00000000      -2.76826177     -11.30069772 </v>
    </varray>
    <i name="volume">   1268.80515525 </i>
    <varray name="rec_basis" >
     <v>       0.00000000       0.08143009      -0.01994742 </v>
     <v>       0.10937686      -0.00000000       0.00000000 </v>
     <v>       0.00000000       0.00000000      -0.08849011 </v>
    </varray>
   </crystal>
   <varray name="positions" >
    <v>       0.66321357       0.99340610       0.15245181 </v>
    <v>       0.65955000       0.99919605       0.65876011 </v>
    <v>       0.66321357       0.33992723       0.15245181 </v>
    <v>       0.65955000       0.33413729       0.65876011 </v>
    <v>       0.66006421       0.66666667       0.15587495 </v>
    <v>       0.66087404       0.66666667       0.65533275 </v>
    <v>       0.84187901       0.16666667       0.84601587 </v>
    <v>       0.84555697       0.50093069       0.33532998 </v>
    <v>       0.84266196       0.49988791       0.84377652 </v>
    <v>       0.84555697       0.83240264       0.33532998 </v>
    <v>       0.84266196       0.83344543       0.84377652 </v>
    <v>       0.59001836       0.16666667       0.40282926 </v>
    <v>       0.59198837       0.16666667       0.89999951 </v>
    <v>       0.59270907       0.50035921       0.39743955 </v>
    <v>       0.58930135       0.50130392       0.89411166 </v>
    <v>       0.59270907       0.83297412       0.39743955 </v>
    <v>       0.58930135       0.83202941       0.89411166 </v>
    <v>       0.91220035       0.99874422       0.10364042 </v>
    <v>       0.91133059       0.00102406       0.60733915 </v>
    <v>       0.91220035       0.33458911       0.10364042 </v>
    <v>       0.91133059       0.33230927       0.60733915 </v>
    <v>       0.91223911       0.66666667       0.09961718 </v>
    <v>       0.90841506       0.66666667       0.60011346 </v>
    <v>       0.16225995       0.16666667       0.15856615 </v>
    <v>       0.16309913       0.16666667       0.65614853 </v>
    <v>       0.16163751       0.49954771       0.15836430 </v>
    <v>       0.15935447       0.49896695       0.65351962 </v>
    <v>       0.16163751       0.83378562       0.15836430 </v>
    <v>       0.15935447       0.83436638       0.65351962 </v>
    <v>       0.34108936       0.99944974       0.34385220 </v>
    <v>       0.34151516       0.99991600       0.84392570 </v>
    <v>       0.34108936       0.33388359       0.34385220 </v>
    <v>       0.34151516       0.33341734       0.84392570 </v>
    <v>       0.34213929       0.66666667       0.34411142 </v>
    <v>       0.33968096       0.66666667       0.84294240 </v>
    <v>       0.08721438       0.03119665       0.39582290 </v>
    <v>       0.09254864       0.00007140       0.89825922 </v>
    <v>       0.08721438       0.30213668       0.39582290 </v>
    <v>       0.09254864       0.33326194       0.89825922 </v>
    <v>       0.08743528       0.66666667       0.39554640 </v>
    <v>       0.09273250       0.66666667       0.89832225 </v>
    <v>       0.41295216       0.16666667       0.10396344 </v>
    <v>       0.41062371       0.16666667       0.60350137 </v>
    <v>       0.41185419       0.49923469       0.10349854 </v>
    <v>       0.40991758       0.50057387       0.60295293 </v>
    <v>       0.41185419       0.83409865       0.10349854 </v>
    <v>       0.40991758       0.83275946       0.60295293 </v>
    <v>       0.99774679       0.16666667       0.13760204 </v>
    <v>       0.99827549       0.16666667       0.62276403 </v>
    <v>       0.99963215       0.50102925       0.12531981 </v>
    <v>       0.99501257       0.49927661       0.62469466 </v>
    <v>       0.99963215       0.83230409       0.12531981 </v>
    <v>       0.99501257       0.83405672       0.62469466 </v>
    <v>       0.50553325       0.99991609       0.37202630 </v>
    <v>       0.50458761       0.00045929       0.87367445 </v>
    <v>       0.50553325       0.33341724       0.37202630 </v>
    <v>       0.50458761       0.33287404       0.87367445 </v>
    <v>       0.50556897       0.66666667       0.37321391 </v>
    <v>       0.50162285       0.66666667       0.86838905 </v>
    <v>       0.69125301       0.16666667       0.29846643 </v>
    <v>       0.67399468       0.16666667       0.78364100 </v>
    <v>       0.67558340       0.50092321       0.28170273 </v>
    <v>       0.67395078       0.50015197       0.78000216 </v>
    <v>       0.67558340       0.83241012       0.28170273 </v>
    <v>       0.67395078       0.83318136       0.78000216 </v>
    <v>       0.82407134       0.98104011       0.21095237 </v>
    <v>       0.82812081       0.00093956       0.72089423 </v>
    <v>       0.82407134       0.35229323       0.21095237 </v>
    <v>       0.82812081       0.33239377       0.72089423 </v>
    <v>       0.83014428       0.66666667       0.21602386 </v>
    <v>       0.82851175       0.66666667       0.71839289 </v>
    <v>       0.82648019       0.01693656       0.44889008 </v>
    <v>       0.83458369       0.99989590       0.94693956 </v>
    <v>       0.82648019       0.31639677       0.44889008 </v>
    <v>       0.83458369       0.33343743       0.94693956 </v>
    <v>       0.83750311       0.66666667       0.44148731 </v>
    <v>       0.83312026       0.66666667       0.94430125 </v>
    <v>       0.66840242       0.16666667       0.05824493 </v>
    <v>       0.66740092       0.16666667       0.55823143 </v>
    <v>       0.66513173       0.50447031       0.05000657 </v>
    <v>       0.67112488       0.49901778       0.55389486 </v>
    <v>       0.66513173       0.82886302       0.05000657 </v>
    <v>       0.67112488       0.83431555       0.55389486 </v>
    <v>       0.50191653       0.00050262       0.13111043 </v>
    <v>       0.49764149       0.99935834       0.62853847 </v>
    <v>       0.50191653       0.33283072       0.13111043 </v>
    <v>       0.49764149       0.33397500       0.62853847 </v>
    <v>       0.49821932       0.66666667       0.12836278 </v>
    <v>       0.49866121       0.66666667       0.62706480 </v>
    <v>       0.00421700       0.16666667       0.87222737 </v>
    <v>       0.00639894       0.48741856       0.37466479 </v>
    <v>       0.00473898       0.49999153       0.87118102 </v>
    <v>       0.00639894       0.84591478       0.37466479 </v>
    <v>       0.00473898       0.83334180       0.87118102 </v>
    <v>       0.17507225       0.99890453       0.27961065 </v>
    <v>       0.17363170       0.00039468       0.78101917 </v>
    <v>       0.17507225       0.33442880       0.27961065 </v>
    <v>       0.17363170       0.33293865       0.78101917 </v>
    <v>       0.17304752       0.66666667       0.28136279 </v>
    <v>       0.17247054       0.66666667       0.77935407 </v>
    <v>       0.33114916       0.16666667       0.22009209 </v>
    <v>       0.33024942       0.16666667       0.72131374 </v>
    <v>       0.33021702       0.50056226       0.22008038 </v>
    <v>       0.32797323       0.50018808       0.71950792 </v>
    <v>       0.33021702       0.83277108       0.22008038 </v>
    <v>       0.32797323       0.83314526       0.71950792 </v>
    <v>       0.33609632       0.16666667       0.44658815 </v>
    <v>       0.33558376       0.16666667       0.94759254 </v>
    <v>       0.33546562       0.50046277       0.44634693 </v>
    <v>       0.33461195       0.49954093       0.94691367 </v>
    <v>       0.33546562       0.83287057       0.44634693 </v>
    <v>       0.33461195       0.83379240       0.94691367 </v>
    <v>       0.16871185       0.00091429       0.05424312 </v>
    <v>       0.16881161       0.99996261       0.55456553 </v>
    <v>       0.16871185       0.33241904       0.05424312 </v>
    <v>       0.16881161       0.33337073       0.55456553 </v>
    <v>       0.17027638       0.66666667       0.05456315 </v>
    <v>       0.16485107       0.66666667       0.55249993 </v>
    <v>       0.83275343       0.16666667       0.36305175 </v>
   </varray>
  </structure>
  <varray name="forces" >
   <v>      -0.16004912       0.20345630       0.09235380 </v>
   <v>      -0.00171925       0.06503827      -0.00033692 </v>
   <v>       0.16004912       0.20345630       0.09235380 </v>
   <v>       0.00171925       0.06503827      -0.00033692 </v>
   <v>       0.00000000       0.05556098       0.05676948 </v>
   <v>       0.00000000       0.07584775      -0.01363973 </v>
   <v>       0.00000000      -0.07862092      -0.03121886 </v>
   <v>       0.07316486      -0.00413169       0.24354724 </v>
   <v>       0.00725956      -0.06632730      -0.03231179 </v>
   <v>      -0.07316486      -0.00413169       0.24354724 </v>
   <v>      -0.00725956      -0.06632730      -0.03231179 </v>
   <v>       0.00000000      -0.05304311      -0.08400139 </v>
   <v>       0.00000000      -0.04293865       0.04715515 </v>
   <v>       0.01391235      -0.02293880       0.03469221 </v>
   <v>       0.00642637      -0.02168411      -0.02013583 </v>
   <v>      -0.01391235      -0.02293880       0.03469221 </v>
   <v>      -0.00642637      -0.02168411      -0.02013583 </v>
   <v>      -0.04255377      -0.04721042      -0.08288546 </v>
   <v>       0.02535568       0.06300102      -0.08189370 </v>
   <v>       0.04255377      -0.04721042      -0.08288546 </v>
   <v>      -0.02535568       0.06300102      -0.08189370 </v>
   <v>       0.00000000       0.02804746      -0.01982738 </v>
   <v>       0.00000000       0.08446293      -0.02554119 </v>
   <v>       0.00000000       0.06529352      -0.07739448 </v>
   <v>       0.00000000       0.10810866       0.11845109 </v>
   <v>      -0.02972202       0.04323727      -0.04748812 </v>
   <v>      -0.03064574       0.11124785       0.10819285 </v>
   <v>       0.02972202       0.04323727      -0.04748812 </v>
   <v>       0.03064574       0.11124785       0.10819285 </v>
   <v>      -0.00733073      -0.15788937       0.00111231 </v>
   <v>       0.00149438      -0.07991797       0.00364898 </v>
   <v>       0.00733073      -0.15788937       0.00111231 </v>
   <v>      -0.00149438      -0.07991797       0.00364898 </v>
   <v>       0.00000000      -0.09434098      -0.01909141 </v>
   <v>       0.00000000      -0.06687553       0.02113653 </v>
   <v>      -0.36241436       0.37121084      -0.11848925 </v>
   <v>      -0.00565883      -0.00076650       0.00906766 </v>
   <v>       0.36241436       0.37121084      -0.11848925 </v>
   <v>       0.00565883      -0.00076650       0.00906766 </v>
   <v>       0.00000000       0.14614146      -0.06706948 </v>
   <v>       0.00000000      -0.00697318       0.03498486 </v>
   <v>       0.00000000      -0.01924588      -0.02637974 </v>
   <v>       0.00000000      -0.00444270      -0.00134625 </v>
   <v>       0.04393733      -0.00752798      -0.03018531 </v>
   <v>      -0.01101736       0.00078404       0.01567305 </v>
   <v>      -0.04393733      -0.00752798      -0.03018531 </v>
   <v>       0.01101736       0.00078404       0.01567305 </v>
   <v>       0.00000000      -0.16834224       0.28447967 </v>
   <v>       0.00000000      -0.32527138       0.03394524 </v>
   <v>       0.01133876      -0.20648032       0.12153167 </v>
   <v>      -0.04114540      -0.26148469       0.10168528 </v>
   <v>      -0.01133876      -0.20648032       0.12153167 </v>
   <v>       0.04114540      -0.26148469       0.10168528 </v>
   <v>       0.04491809       0.24892824      -0.17147664 </v>
   <v>      -0.01140500       0.20198443      -0.11923420 </v>
   <v>      -0.04491809       0.24892824      -0.17147664 </v>
   <v>       0.01140500       0.20198443      -0.11923420 </v>
   <v>       0.00000000       0.22896052      -0.13749257 </v>
   <v>       0.00000000       0.20780924      -0.14646478 </v>
   <v>       0.00000000       0.41177536      -0.47904680 </v>
   <v>       0.00000000      -0.04260806      -0.13743578 </v>
   <v>       0.01216275      -0.06445723      -0.10261319 </v>
   <v>      -0.02560287      -0.06062289      -0.09367681 </v>
   <v>      -0.01216275      -0.06445723      -0.10261319 </v>
   <v>       0.02560287      -0.06062289      -0.09367681 </v>
   <v>      -0.31417586      -0.04291828       0.24304403 </v>
   <v>      -0.01053771       0.08471140       0.14512599 </v>
   <v>       0.31417586      -0.04291828       0.24304403 </v>
   <v>       0.01053771       0.08471140       0.14512599 </v>
   <v>       0.00000000       0.05834758       0.05068217 </v>
   <v>       0.00000000       0.02545489       0.15744715 </v>
   <v>       0.52389104       0.40058031       0.12159631 </v>
   <v>       0.01700507       0.43094462      -0.04305203 </v>
   <v>      -0.52389104       0.40058031       0.12159631 </v>
   <v>      -0.01700507       0.43094462      -0.04305203 </v>
   <v>       0.00000000       0.37838540      -0.08727384 </v>
   <v>       0.00000000       0.46221161      -0.06068664 </v>
   <v>       0.00000000      -0.42501150       0.08161048 </v>
   <v>       0.00000000      -0.42507335       0.11620768 </v>
   <v>      -0.04043624      -0.42375805       0.04953684 </v>
   <v>       0.02158608      -0.44715966       0.08075779 </v>
   <v>       0.04043624      -0.42375805       0.04953684 </v>
   <v>      -0.02158608      -0.44715966       0.08075779 </v>
   <v>       0.00685534      -0.16592505       0.15638923 </v>
   <v>       0.00365427      -0.15047258       0.11725107 </v>
   <v>      -0.00685534      -0.16592505       0.15638923 </v>
   <v>      -0.00365427      -0.15047258       0.11725107 </v>
   <v>       0.00000000      -0.16469063       0.12765596 </v>
   <v>       0.00000000      -0.17154287       0.11026306 </v>
   <v>       0.00000000       0.17473807      -0.13447253 </v>
   <v>       0.10352895      -0.04397518      -0.01717584 </v>
   <v>      -0.00628776       0.16231222      -0.14603396 </v>
   <v>      -0.10352895      -0.04397518      -0.01717584 </v>
   <v>       0.00628776       0.16231222      -0.14603396 </v>
   <v>       0.03334042       0.11305867       0.02252425 </v>
   <v>       0.01274173      -0.04009364      -0.15706831 </v>
   <v>      -0.03334042       0.11305867       0.02252425 </v>
   <v>      -0.01274173      -0.04009364      -0.15706831 </v>
   <v>       0.00000000      -0.03114323      -0.07953610 </v>
   <v>       0.00000000      -0.01975282      -0.16979938 </v>
   <v>       0.00000000       0.06584396       0.14315045 </v>
   <v>       0.00000000       0.02852871       0.12431582 </v>
   <v>      -0.00415559       0.06161944       0.13492392 </v>
   <v>       0.00610991       0.06647674       0.11924727 </v>
   <v>       0.00415559       0.06161944       0.13492392 </v>
   <v>      -0.00610991       0.06647674       0.11924727 </v>
   <v>       0.00000000       0.43445868      -0.08984576 </v>
   <v>       0.00000000       0.42069474      -0.09114709 </v>
   <v>       0.00829455       0.44366997      -0.08999064 </v>
   <v>      -0.01189025       0.42098165      -0.07451079 </v>
   <v>      -0.00829455       0.44366997      -0.08999064 </v>
   <v>       0.01189025       0.42098165      -0.07451079 </v>
   <v>       0.00876540      -0.41847209       0.11074064 </v>
   <v>       0.01206587      -0.40279359      -0.14654769 </v>
   <v>      -0.00876540      -0.41847209       0.11074064 </v>
   <v>      -0.01206587      -0.40279359      -0.14654769 </v>
   <v>       0.00000000      -0.43349740       0.10790345 </v>
   <v>       0.00000000      -0.41187399       0.03047019 </v>
   <v>       0.00000000      -1.18785488      -0.58298908 </v>
  </varray>
  <varray name="stress" >
   <v>     -66.99665693       0.00000000       0.00000000 </v>
   <v>       0.00000000     -53.10708516       3.55989673 </v>
   <v>       0.00000000       3.55989705     -48.46347840 </v>
  </varray>
  <energy>
   <i name="e_fr_energy">   -977.90367083 </i>
   <i name="e_wo_entrp">   -977.90367083 </i>
   <i name="e_0_energy">   -977.90367083 </i>
  </energy>
  <time name="totalsc">18000.0517998.16</time>
  <eigenvalues>
   <array>
    <dimension dim="1">band</dimension>
    <dimension dim="2">kpoint</dimension>
    <dimension dim="3">spin</dimension>
    <field>eigene</field>
    <field>occ</field>
    <set>
     <set comment="spin 1">
      <set comment="kpoint 1">
       <r>  -19.9911    1.0000 </r>
       <r>  -19.0400    1.0000 </r>
       <r>  -18.7824    1.0000 </r>
       <r>  -18.7001    1.0000 </r>
       <r>  -18.5828    1.0000 </r>
       <r>  -18.5727    1.0000 </r>
       <r>  -18.5616    1.0000 </r>
       <r>  -18.4153    1.0000 </r>
       <r>  -18.3691    1.0000 </r>
       <r>  -18.3567    1.0000 </r>
       <r>  -18.3003    1.0000 </r>
       <r>  -18.2269    1.0000 </r>
       <r>  -18.2024    1.0000 </r>
       <r>  -18.1545    1.0000 </r>
       <r>  -18.1418    1.0000 </r>
       <r>  -18.1342    1.0000 </r>
       <r>  -18.0745    1.0000 </r>
       <r>  -18.0742    1.0000 </r>
       <r>  -18.0706    1.0000 </r>
       <r>  -18.0191    1.0000 </r>
       <r>  -17.9811    1.0000 </r>
       <r>  -17.9622    1.0000 </r>
       <r>  -17.9553    1.0000 </r>
       <r>  -17.9529    1.0000 </r>
       <r>  -17.9308    1.0000 </r>
       <r>  -17.8903    1.0000 </r>
       <r>  -17.8491    1.0000 </r>
       <r>  -17.8202    1.0000 </r>
       <r>  -17.8094    1.0000 </r>
       <r>  -17.7908    1.0000 </r>
       <r>  -17.7694    1.0000 </r>
       <r>  -17.7672    1.0000 </r>
       <r>  -17.7461    1.0000 </r>
       <r>  -17.7443    1.0000 </r>
       <r>  -17.7149    1.0000 </r>
       <r>  -17.6991    1.0000 </r>
       <r>  -17.6648    1.0000 </r>
       <r>  -17.6515    1.0000 </r>
       <r>  -17.6501    1.0000 </r>
       <r>  -17.6369    1.0000 </r>
       <r>  -17.5899    1.0000 </r>
       <r>  -17.5755    1.0000 </r>
       <r>  -17.5419    1.0000 </r>
       <r>  -17.5238    1.0000 </r>
       <r>  -17.5177    1.0000 </r>
       <r>  -17.4951    1.0000 </r>
       <r>  -17.4857    1.0000 </r>
       <r>  -17.4796    1.0000 </r>
       <r>  -17.4402    1.0000 </r>
       <r>  -17.4103    1.0000 </r>
       <r>  -17.4084    1.0000 </r>
       <r>  -17.3777    1.0000 </r>
       <r>  -17.3722    1.0000 </r>
       <r>  -17.3659    1.0000 </r>
       <r>  -17.3565    1.0000 </r>
       <r>  -17.3462    1.0000 </r>
       <r>  -17.3462    1.0000 </r>
       <r>  -17.3331    1.0000 </r>
       <r>  -17.3250    1.0000 </r>
       <r>  -17.2939    1.0000 </r>
       <r>  -17.2817    1.0000 </r>
       <r>  -17.2776    1.0000 </r>
       <r>  -17.2693    1.0000 </r>
       <r>  -17.2589    1.0000 </r>
       <r>  -17.2238    1.0000 </r>
       <r>  -17.1979    1.0000 </r>
       <r>  -17.1579    1.0000 </r>
       <r>  -17.1337    1.0000 </r>
       <r>  -17.0385    1.0000 </r>
       <r>  -16.9286    1.0000 </r>
       <r>  -16.9212    1.0000 </r>
       <r>  -13.7601    1.0000 </r>
       <r>  -13.6629    1.0000 </r>
       <r>  -13.6342    1.0000 </r>
       <r>  -13.6280    1.0000 </r>
       <r>  -13.6061    1.0000 </r>
       <r>  -13.5978    1.0000 </r>
       <r>  -13.5841    1.0000 </r>
       <r>  -13.5696    1.0000 </r>
       <r>  -13.5625    1.0000 </r>
       <r>  -13.5424    1.0000 </r>
       <r>  -13.5370    1.0000 </r>
       <r>  -13.5267    1.0000 </r>
       <r>  -13.5016    1.0000 </r>
       <r>  -13.4961    1.0000 </r>
       <r>  -13.4943    1.0000 </r>
       <r>  -13.4739    1.0000 </r>
       <r>  -13.4722    1.0000 </r>
       <r>  -13.4635    1.0000 </r>
       <r>  -13.4573    1.0000 </r>
       <r>  -13.4545    1.0000 </r>
       <r>  -13.4498    1.0000 </r>
       <r>  -13.4343    1.0000 </r>
       <r>  -13.4289    1.0000 </r>
       <r>  -13.4286    1.0000 </r>
       <r>  -13.4273    1.0000 </r>
       <r>  -13.4140    1.0000 </r>
       <r>  -13.4074    1.0000 </r>
       <r>  -13.4012    1.0000 </r>
       <r>  -13.3974    1.0000 </r>
       <r>  -13.3960    1.0000 </r>
       <r>  -13.3940    1.0000 </r>
       <r>  -13.3927    1.0000 </r>
       <r>  -13.3878    1.0000 </r>
       <r>  -13.3842    1.0000 </r>
       <r>  -13.3816    1.0000 </r>
       <r>  -13.3722    1.0000 </r>
       <r>  -13.3716    1.0000 </r>
       <r>  -13.3679    1.0000 </r>
       <r>  -13.3648    1.0000 </r>
       <r>  -13.3628    1.0000 </r>
       <r>  -13.3602    1.0000 </r>
       <r>  -13.3592    1.0000 </r>
       <r>  -13.3545    1.0000 </r>
       <r>  -13.3528    1.0000 </r>
       <r>  -13.3456    1.0000 </r>
       <r>  -13.3422    1.0000 </r>
       <r>  -13.3406    1.0000 </r>
       <r>  -13.3366    1.0000 </r>
       <r>  -13.3306    1.0000 </r>
       <r>  -13.3278    1.0000 </r>
       <r>  -13.3276    1.0000 </r>
       <r>  -13.3251    1.0000 </r>
       <r>  -13.3216    1.0000 </r>
       <r>  -13.3208    1.0000 </r>
       <r>  -13.3082    1.0000 </r>
       <r>  -13.3036    1.0000 </r>
       <r>  -13.3010    1.0000 </r>
       <r>  -13.2979    1.0000 </r>
       <r>  -13.2957    1.0000 </r>
       <r>  -13.2931    1.0000 </r>
       <r>  -13.2882    1.0000 </r>
       <r>  -13.2839    1.0000 </r>
       <r>  -13.2764    1.0000 </r>
       <r>  -13.2753    1.0000 </r>
       <r>  -13.2740    1.0000 </r>
       <r>  -13.2706    1.0000 </r>
       <r>  -13.2635    1.0000 </r>
       <r>  -13.2574    1.0000 </r>
       <r>  -13.2560    1.0000 </r>
       <r>  -13.2481    1.0000 </r>
       <r>  -13.2473    1.0000 </r>
       <r>  -13.2428    1.0000 </r>
       <r>  -13.2416    1.0000 </r>
       <r>  -13.2345    1.0000 </r>
       <r>  -13.2334    1.0000 </r>
       <r>  -13.2309    1.0000 </r>
       <r>  -13.2273    1.0000 </r>
       <r>  -13.2270    1.0000 </r>
       <r>  -13.2240    1.0000 </r>
       <r>  -13.2220    1.0000 </r>
       <r>  -13.2207    1.0000 </r>
       <r>  -13.2201    1.0000 </r>
       <r>  -13.2150    1.0000 </r>
       <r>  -13.2138    1.0000 </r>
       <r>  -13.2100    1.0000 </r>
       <r>  -13.2093    1.0000 </r>
       <r>  -13.2043    1.0000 </r>
       <r>  -13.2005    1.0000 </r>
       <r>  -13.1994    1.0000 </r>
       <r>  -13.1978    1.0000 </r>
       <r>  -13.1960    1.0000 </r>
       <r>  -13.1937    1.0000 </r>
       <r>  -13.1893    1.0000 </r>
       <r>  -13.1858    1.0000 </r>
       <r>  -13.1850    1.0000 </r>
       <r>  -13.1848    1.0000 </r>
       <r>  -13.1768    1.0000 </r>
       <r>  -13.1740    1.0000 </r>
       <r>  -13.1708    1.0000 </r>
       <r>  -13.1701    1.0000 </r>
       <r>  -13.1685    1.0000 </r>
       <r>  -13.1640    1.0000 </r>
       <r>  -13.1599    1.0000 </r>
       <r>  -13.1584    1.0000 </r>
       <r>  -13.1563    1.0000 </r>
       <r>  -13.1562    1.0000 </r>
       <r>  -13.1540    1.0000 </r>
       <r>  -13.1476    1.0000 </r>
       <r>  -13.1445    1.0000 </r>
       <r>  -13.1423    1.0000 </r>
       <r>  -13.1411    1.0000 </r>
       <r>  -13.1399    1.0000 </r>
       <r>  -13.1378    1.0000 </r>
       <r>  -13.1354    1.0000 </r>
       <r>  -13.1330    1.0000 </r>
       <r>  -13.1250    1.0000 </r>
       <r>  -13.1212    1.0000 </r>
       <r>  -13.1205    1.0000 </r>
       <r>  -13.1194    1.0000 </r>
       <r>  -13.1158    1.0000 </r>
       <r>  -13.1145    1.0000 </r>
       <r>  -13.1064    1.0000 </r>
       <r>  -13.1039    1.0000 </r>
       <r>  -13.1031    1.0000 </r>
       <r>  -13.0984    1.0000 </r>
       <r>  -13.0969    1.0000 </r>
       <r>  -13.0911    1.0000 </r>
       <r>  -13.0888    1.0000 </r>
       <r>  -13.0871    1.0000 </r>
       <r>  -13.0823    1.0000 </r>
       <r>  -13.0810    1.0000 </r>
       <r>  -13.0791    1.0000 </r>
       <r>  -13.0774    1.0000 </r>
       <r>  -13.0748    1.0000 </r>
       <r>  -13.0721    1.0000 </r>
       <r>  -13.0677    1.0000 </r>
       <r>  -13.0639    1.0000 </r>
       <r>  -13.0610    1.0000 </r>
       <r>  -13.0607    1.0000 </r>
       <r>  -13.0581    1.0000 </r>
       <r>  -13.0550    1.0000 </r>
       <r>  -13.0532    1.0000 </r>
       <r>  -13.0427    1.0000 </r>
       <r>  -13.0386    1.0000 </r>
       <r>  -13.0348    1.0000 </r>
       <r>  -13.0337    1.0000 </r>
       <r>  -13.0318    1.0000 </r>
       <r>  -13.0265    1.0000 </r>
       <r>  -13.0257    1.0000 </r>
       <r>  -13.0194    1.0000 </r>
       <r>  -13.0177    1.0000 </r>
       <r>  -13.0103    1.0000 </r>
       <r>  -13.0060    1.0000 </r>
       <r>  -12.9995    1.0000 </r>
       <r>  -12.9958    1.0000 </r>
       <r>  -12.9914    1.0000 </r>
       <r>  -12.9887    1.0000 </r>
       <r>  -12.9778    1.0000 </r>
       <r>  -12.9777    1.0000 </r>
       <r>  -12.9745    1.0000 </r>
       <r>  -12.9703    1.0000 </r>
       <r>  -12.9668    1.0000 </r>
       <r>  -12.9610    1.0000 </r>
       <r>  -12.9570    1.0000 </r>
       <r>  -12.9505    1.0000 </r>
       <r>  -12.9473    1.0000 </r>
       <r>  -12.9426    1.0000 </r>
       <r>  -12.9421    1.0000 </r>
       <r>  -12.9361    1.0000 </r>
       <r>  -12.9289    1.0000 </r>
       <r>  -12.9205    1.0000 </r>
       <r>  -12.9182    1.0000 </r>
       <r>  -12.9162    1.0000 </r>
       <r>  -12.9101    1.0000 </r>
       <r>  -12.9022    1.0000 </r>
       <r>  -12.8987    1.0000 </r>
       <r>  -12.8976    1.0000 </r>
       <r>  -12.8871    1.0000 </r>
       <r>  -12.8801    1.0000 </r>
       <r>  -12.8749    1.0000 </r>
       <r>  -12.8740    1.0000 </r>
       <r>  -12.8694    1.0000 </r>
       <r>  -12.8681    1.0000 </r>
       <r>  -12.8602    1.0000 </r>
[...]
       <r>   -13.4311   232.8705   189.3122 </r>
       <r>   -13.2926   514.7953   260.6129 </r>
       <r>   -13.1541   664.0178   352.5815 </r>
       <r>   -13.0156   643.9911   441.7763 </r>
       <r>   -12.8771   421.8619   500.2055 </r>
       <r>   -12.7386   254.9063   535.5108 </r>
       <r>   -12.6001   141.8999   555.1644 </r>
       <r>   -12.4616   110.6219   570.4858 </r>
       <r>   -12.3231    97.1561   583.9423 </r>
       <r>   -12.1846   102.3644   598.1200 </r>
       <r>   -12.0461    76.2397   608.6795 </r>
       <r>   -11.9076    23.3139   611.9085 </r>
       <r>   -11.7691     0.6605   612.0000 </r>
       <r>   -11.6306     0.0000   612.0000 </r>
       <r>   -11.4921     0.0000   612.0000 </r>
       <r>   -11.3536     0.0000   612.0000 </r>
       <r>   -11.2151     0.0000   612.0000 </r>
       <r>   -11.0766     0.0000   612.0000 </r>
       <r>   -10.9381     0.0000   612.0000 </r>
       <r>   -10.7996     0.0000   612.0000 </r>
       <r>   -10.6611     0.0000   612.0000 </r>
       <r>   -10.5226     0.0000   612.0000 </r>
       <r>   -10.3841     0.0000   612.0000 </r>
       <r>   -10.2456     0.0000   612.0000 </r>
       <r>   -10.1071     0.0000   612.0000 </r>
       <r>    -9.9686     0.0000   612.0000 </r>
       <r>    -9.8300     0.0000   612.0000 </r>
       <r>    -9.6915     0.0000   612.0000 </r>
       <r>    -9.5530     0.0000   612.0000 </r>
       <r>    -9.4145     0.0000   612.0000 </r>
       <r>    -9.2760     0.0000   612.0000 </r>
       <r>    -9.1375     0.0000   612.0000 </r>
       <r>    -8.9990     0.0000   612.0000 </r>
       <r>    -8.8605     0.0000   612.0000 </r>
       <r>    -8.7220     0.0000   612.0000 </r>
       <r>    -8.5835     0.0000   612.0000 </r>
       <r>    -8.4450     0.0000   612.0000 </r>
       <r>    -8.3065     0.0000   612.0000 </r>
       <r>    -8.1680     0.0000   612.0000 </r>
       <r>    -8.0295     0.0000   612.0000 </r>
       <r>    -7.8910     0.0000   612.0000 </r>
       <r>    -7.7525     0.0000   612.0000 </r>
       <r>    -7.6140     0.0000   612.0000 </r>
       <r>    -7.4755     1.6982   612.2352 </r>
       <r>    -7.3370    12.6889   613.9927 </r>
       <r>    -7.1985     0.0530   614.0000 </r>
       <r>    -7.0600     0.0000   614.0000 </r>
       <r>    -6.9215     0.0000   614.0000 </r>
       <r>    -6.7830     0.0000   614.0000 </r>
       <r>    -6.6445     0.0000   614.0000 </r>
       <r>    -6.5060     0.0000   614.0000 </r>
       <r>    -6.3675     0.0000   614.0000 </r>
       <r>    -6.2290     0.0000   614.0000 </r>
       <r>    -6.0905     0.0000   614.0000 </r>
       <r>    -5.9520     0.0000   614.0000 </r>
       <r>    -5.8135     0.0000   614.0000 </r>
       <r>    -5.6750     0.0000   614.0000 </r>
       <r>    -5.5365     0.0094   614.0013 </r>
       <r>    -5.3979     4.2600   614.5913 </r>
       <r>    -5.2594    12.9966   616.3914 </r>
       <r>    -5.1209    21.9232   619.4278 </r>
       <r>    -4.9824    28.8593   623.4249 </r>
       <r>    -4.8439    27.8412   627.2810 </r>
       <r>    -4.7054    37.8534   632.5239 </r>
       <r>    -4.5669    42.4353   638.4013 </r>
       <r>    -4.4284    46.0425   644.7783 </r>
       <r>    -4.2899    56.5333   652.6084 </r>
       <r>    -4.1514    43.5394   658.6387 </r>
       <r>    -4.0129    38.3568   663.9512 </r>
       <r>    -3.8744    50.3615   670.9265 </r>
       <r>    -3.7359    31.6809   675.3144 </r>
       <r>    -3.5974    33.3003   679.9266 </r>
       <r>    -3.4589    32.0005   684.3587 </r>
       <r>    -3.3204    40.7862   690.0078 </r>
       <r>    -3.1819    42.3219   695.8695 </r>
       <r>    -3.0434    34.4048   700.6346 </r>
       <r>    -2.9049    29.6880   704.7465 </r>
       <r>    -2.7664    41.1565   710.4468 </r>
       <r>    -2.6279    36.8784   715.5546 </r>
       <r>    -2.4894    37.1238   720.6964 </r>
       <r>    -2.3509    46.2792   727.1062 </r>
       <r>    -2.2124    40.3734   732.6980 </r>
       <r>    -2.0739    49.4740   739.5503 </r>
       <r>    -1.9354    67.4939   748.8984 </r>
       <r>    -1.7969    57.0070   756.7941 </r>
       <r>    -1.6584    59.9358   765.0954 </r>
       <r>    -1.5199    62.2595   773.7185 </r>
       <r>    -1.3814    58.0365   781.7567 </r>
       <r>    -1.2429    51.9568   788.9529 </r>
       <r>    -1.1044    61.3503   797.4501 </r>
       <r>    -0.9658    69.2499   807.0415 </r>
       <r>    -0.8273    68.8754   816.5809 </r>
       <r>    -0.6888    72.1092   826.5683 </r>
       <r>    -0.5503    64.2976   835.4737 </r>
       <r>    -0.4118    62.6185   844.1466 </r>
       <r>    -0.2733    66.7955   853.3979 </r>
       <r>    -0.1348    73.3338   863.5549 </r>
       <r>     0.0037    82.6556   875.0030 </r>
       <r>     0.1422    66.7165   884.2434 </r>
       <r>     0.2807    77.1648   894.9310 </r>
       <r>     0.4192    77.7259   905.6963 </r>
       <r>     0.5577    88.3238   917.9294 </r>
       <r>     0.6962    87.9377   930.1090 </r>
       <r>     0.8347    88.1277   942.3150 </r>
       <r>     0.9732   102.6350   956.5303 </r>
       <r>     1.1117   117.8411   972.8516 </r>
       <r>     1.2502   117.6040   989.1401 </r>
       <r>     1.3887   118.7295  1005.5845 </r>
       <r>     1.5272    93.0973  1018.4788 </r>
       <r>     1.6657    66.5522  1027.6965 </r>
       <r>     1.8042    43.7251  1033.7526 </r>
       <r>     1.9427    30.0205  1037.9105 </r>
       <r>     2.0812     0.6462  1038.0000 </r>
       <r>     2.2197     0.0000  1038.0000 </r>
       <r>     2.3582     0.0000  1038.0000 </r>
       <r>     2.4967     0.0000  1038.0000 </r>
       <r>     2.6352     0.0103  1038.0014 </r>
       <r>     2.7737     2.1843  1038.3040 </r>
       <r>     2.9122     9.4299  1039.6100 </r>
       <r>     3.0507     2.8153  1040.0000 </r>
       <r>     3.1892     0.0003  1040.0000 </r>
       <r>     3.3277     0.0000  1040.0000 </r>
       <r>     3.4663     0.0000  1040.0000 </r>
       <r>     3.6048     0.0000  1040.0000 </r>
       <r>     3.7433     0.0000  1040.0000 </r>
       <r>     3.8818     0.0000  1040.0000 </r>
       <r>     4.0203     0.0000  1040.0000 </r>
       <r>     4.1588     0.0025  1040.0003 </r>
       <r>     4.2973     3.4387  1040.4766 </r>
       <r>     4.4358    10.5171  1041.9333 </r>
       <r>     4.5743     0.4818  1042.0000 </r>
       <r>     4.7128     0.0000  1042.0000 </r>
       <r>     4.8513     0.0000  1042.0000 </r>
       <r>     4.9898     0.0000  1042.0000 </r>
       <r>     5.1283     0.0000  1042.0000 </r>
       <r>     5.2668     0.0000  1042.0000 </r>
       <r>     5.4053     0.0000  1042.0000 </r>
       <r>     5.5438     0.0000  1042.0000 </r>
       <r>     5.6823     0.0000  1042.0000 </r>
       <r>     5.8208     0.0000  1042.0000 </r>
       <r>     5.9593     0.0000  1042.0000 </r>
       <r>     6.0978     0.0000  1042.0000 </r>
       <r>     6.2363     0.0000  1042.0000 </r>
       <r>     6.3748     0.0000  1042.0000 </r>
       <r>     6.5133     0.0000  1042.0000 </r>
       <r>     6.6518     0.0000  1042.0000 </r>
       <r>     6.7903     0.0000  1042.0000 </r>
       <r>     6.9288     0.0111  1042.0015 </r>
       <r>     7.0673     1.6518  1042.2303 </r>
       <r>     7.2058     0.1421  1042.2500 </r>
       <r>     7.3443     0.0000  1042.2500 </r>
       <r>     7.4828     0.0000  1042.2500 </r>
       <r>     7.6213     0.1720  1042.2738 </r>
       <r>     7.7598     3.3346  1042.7357 </r>
       <r>     7.8984     1.8719  1042.9949 </r>
       <r>     8.0369     5.2793  1043.7261 </r>
       <r>     8.1754     1.5561  1043.9417 </r>
       <r>     8.3139     4.9758  1044.6308 </r>
       <r>     8.4524     2.4063  1044.9641 </r>
       <r>     8.5909     2.2893  1045.2812 </r>
       <r>     8.7294     5.4002  1046.0291 </r>
       <r>     8.8679     4.0130  1046.5849 </r>
       <r>     9.0064     6.5010  1047.4853 </r>
       <r>     9.1449     6.7632  1048.4221 </r>
       <r>     9.2834     5.4644  1049.1789 </r>
       <r>     9.4219    13.0664  1050.9886 </r>
       <r>     9.5604    10.8553  1052.4921 </r>
       <r>     9.6989     7.7519  1053.5658 </r>
       <r>     9.8374    15.6832  1055.7380 </r>
       <r>     9.9759     8.2922  1056.8865 </r>
       <r>    10.1144    14.4883  1058.8931 </r>
       <r>    10.2529    12.5569  1060.6323 </r>
       <r>    10.3914    18.1168  1063.1415 </r>
       <r>    10.5299    22.3831  1066.2417 </r>
       <r>    10.6684    28.8157  1070.2327 </r>
       <r>    10.8069    40.5031  1075.8425 </r>
       <r>    10.9454    32.3525  1080.3235 </r>
       <r>    11.0839    30.7205  1084.5783 </r>
       <r>    11.2224    33.7006  1089.2460 </r>
       <r>    11.3609    31.4426  1093.6009 </r>
       <r>    11.4994    30.6527  1097.8464 </r>
       <r>    11.6379    33.3665  1102.4677 </r>
       <r>    11.7764    38.0143  1107.7328 </r>
       <r>    11.9149    29.2190  1111.7797 </r>
       <r>    12.0534    40.8668  1117.4399 </r>
       <r>    12.1919    30.1269  1121.6126 </r>
       <r>    12.3305    31.4708  1125.9714 </r>
       <r>    12.4690    36.8423  1131.0742 </r>
       <r>    12.6075    44.6888  1137.2637 </r>
       <r>    12.7460    38.1374  1142.5459 </r>
       <r>    12.8845    30.4600  1146.7647 </r>
       <r>    13.0230    26.6267  1150.4526 </r>
       <r>    13.1615    29.5783  1154.5492 </r>
       <r>    13.3000    29.3752  1158.6178 </r>
       <r>    13.4385    38.8377  1163.9969 </r>
       <r>    13.5770    29.0042  1168.0141 </r>
       <r>    13.7155    29.7669  1172.1369 </r>
       <r>    13.8540    25.9759  1175.7347 </r>
       <r>    13.9925    26.1419  1179.3554 </r>
       <r>    14.1310    24.3783  1182.7319 </r>
       <r>    14.2695    26.3205  1186.3773 </r>
       <r>    14.4080    26.8914  1190.1019 </r>
       <r>    14.5465    26.3965  1193.7579 </r>
       <r>    14.6850    24.0803  1197.0931 </r>
       <r>    14.8235    21.9020  1200.1266 </r>
       <r>    14.9620    25.5452  1203.6647 </r>
       <r>    15.1005    25.2433  1207.1610 </r>
       <r>    15.2390    21.7317  1210.1709 </r>
       <r>    15.3775    19.9888  1212.9394 </r>
       <r>    15.5160    22.0140  1215.9884 </r>
       <r>    15.6545    21.9815  1219.0329 </r>
       <r>    15.7930    23.3350  1222.2649 </r>
       <r>    15.9315    21.7895  1225.2828 </r>
       <r>    16.0700    24.7939  1228.7168 </r>
       <r>    16.2085    19.2492  1231.3829 </r>
       <r>    16.3470    22.7696  1234.5365 </r>
       <r>    16.4855    20.4949  1237.3751 </r>
       <r>    16.6240    19.0503  1240.0137 </r>
       <r>    16.7626    12.1127  1241.6913 </r>
       <r>    16.9011    14.7104  1243.7288 </r>
       <r>    17.0396    13.4353  1245.5896 </r>
       <r>    17.1781     9.0083  1246.8373 </r>
       <r>    17.3166     6.1925  1247.6950 </r>
       <r>    17.4551     7.3103  1248.7075 </r>
       <r>    17.5936     4.2467  1249.2956 </r>
       <r>    17.7321     1.9428  1249.5647 </r>
       <r>    17.8706     3.1289  1249.9981 </r>
       <r>    18.0091     0.0138  1250.0000 </r>
       <r>    18.1476     0.0000  1250.0000 </r>
       <r>    18.2861     0.0000  1250.0000 </r>
       <r>    18.4246     0.0000  1250.0000 </r>
       <r>    18.5631     0.0000  1250.0000 </r>
       <r>    18.7016     0.0000  1250.0000 </r>
       <r>    18.8401     0.0000  1250.0000 </r>
       <r>    18.9786     0.0000  1250.0000 </r>
       <r>    19.1171     0.0000  1250.0000 </r>
       <r>    19.2556     0.0000  1250.0000 </r>
       <r>    19.3941     0.0000  1250.0000 </r>
       <r>    19.5326     0.0000  1250.0000 </r>
       <r>    19.6711     0.0000  1250.0000 </r>
      </set>
     </set>
    </array>
   </total>
  </dos>
 </calculation>
 <structure name="finalpos" >
  <crystal>
   <varray name="basis" >
    <v>       0.00000000      12.28047342       0.00000000 </v>
    <v>       9.14270205       0.00000000       0.00000000 </v>
    <v>       0.00000000      -2.76826177     -11.30069772 </v>
   </varray>
   <i name="volume">   1268.80515525 </i>
   <varray name="rec_basis" >
    <v>       0.00000000       0.08143009      -0.01994742 </v>
    <v>       0.10937686      -0.00000000       0.00000000 </v>
    <v>       0.00000000       0.00000000      -0.08849011 </v>
   </varray>
  </crystal>
  <varray name="positions" >
   <v>       0.66321357       0.99340610       0.15245181 </v>
   <v>       0.65955000       0.99919605       0.65876011 </v>
   <v>       0.66321357       0.33992723       0.15245181 </v>
   <v>       0.65955000       0.33413729       0.65876011 </v>
   <v>       0.66006421       0.66666667       0.15587495 </v>
   <v>       0.66087404       0.66666667       0.65533275 </v>
   <v>       0.84187901       0.16666667       0.84601587 </v>
   <v>       0.84555697       0.50093069       0.33532998 </v>
   <v>       0.84266196       0.49988791       0.84377652 </v>
   <v>       0.84555697       0.83240264       0.33532998 </v>
   <v>       0.84266196       0.83344543       0.84377652 </v>
   <v>       0.59001836       0.16666667       0.40282926 </v>
   <v>       0.59198837       0.16666667       0.89999951 </v>
   <v>       0.59270907       0.50035921       0.39743955 </v>
   <v>       0.58930135       0.50130392       0.89411166 </v>
   <v>       0.59270907       0.83297412       0.39743955 </v>
   <v>       0.58930135       0.83202941       0.89411166 </v>
   <v>       0.91220035       0.99874422       0.10364042 </v>
   <v>       0.91133059       0.00102406       0.60733915 </v>
   <v>       0.91220035       0.33458911       0.10364042 </v>
   <v>       0.91133059       0.33230927       0.60733915 </v>
   <v>       0.91223911       0.66666667       0.09961718 </v>
   <v>       0.90841506       0.66666667       0.60011346 </v>
   <v>       0.16225995       0.16666667       0.15856615 </v>
   <v>       0.16309913       0.16666667       0.65614853 </v>
   <v>       0.16163751       0.49954771       0.15836430 </v>
   <v>       0.15935447       0.49896695       0.65351962 </v>
   <v>       0.16163751       0.83378562       0.15836430 </v>
   <v>       0.15935447       0.83436638       0.65351962 </v>
   <v>       0.34108936       0.99944974       0.34385220 </v>
   <v>       0.34151516       0.99991600       0.84392570 </v>
   <v>       0.34108936       0.33388359       0.34385220 </v>
   <v>       0.34151516       0.33341734       0.84392570 </v>
   <v>       0.34213929       0.66666667       0.34411142 </v>
   <v>       0.33968096       0.66666667       0.84294240 </v>
   <v>       0.08721438       0.03119665       0.39582290 </v>
   <v>       0.09254864       0.00007140       0.89825922 </v>
   <v>       0.08721438       0.30213668       0.39582290 </v>
   <v>       0.09254864       0.33326194       0.89825922 </v>
   <v>       0.08743528       0.66666667       0.39554640 </v>
   <v>       0.09273250       0.66666667       0.89832225 </v>
   <v>       0.41295216       0.16666667       0.10396344 </v>
   <v>       0.41062371       0.16666667       0.60350137 </v>
   <v>       0.41185419       0.49923469       0.10349854 </v>
   <v>       0.40991758       0.50057387       0.60295293 </v>
   <v>       0.41185419       0.83409865       0.10349854 </v>
   <v>       0.40991758       0.83275946       0.60295293 </v>
   <v>       0.99774679       0.16666667       0.13760204 </v>
   <v>       0.99827549       0.16666667       0.62276403 </v>
   <v>       0.99963215       0.50102925       0.12531981 </v>
   <v>       0.99501257       0.49927661       0.62469466 </v>
   <v>       0.99963215       0.83230409       0.12531981 </v>
   <v>       0.99501257       0.83405672       0.62469466 </v>
   <v>       0.50553325       0.99991609       0.37202630 </v>
   <v>       0.50458761       0.00045929       0.87367445 </v>
   <v>       0.50553325       0.33341724       0.37202630 </v>
   <v>       0.50458761       0.33287404       0.87367445 </v>
   <v>       0.50556897       0.66666667       0.37321391 </v>
   <v>       0.50162285       0.66666667       0.86838905 </v>
   <v>       0.69125301       0.16666667       0.29846643 </v>
   <v>       0.67399468       0.16666667       0.78364100 </v>
   <v>       0.67558340       0.50092321       0.28170273 </v>
   <v>       0.67395078       0.50015197       0.78000216 </v>
   <v>       0.67558340       0.83241012       0.28170273 </v>
   <v>       0.67395078       0.83318136       0.78000216 </v>
   <v>       0.82407134       0.98104011       0.21095237 </v>
   <v>       0.82812081       0.00093956       0.72089423 </v>
   <v>       0.82407134       0.35229323       0.21095237 </v>
   <v>       0.82812081       0.33239377       0.72089423 </v>
   <v>       0.83014428       0.66666667       0.21602386 </v>
   <v>       0.82851175       0.66666667       0.71839289 </v>
   <v>       0.82648019       0.01693656       0.44889008 </v>
   <v>       0.83458369       0.99989590       0.94693956 </v>
   <v>       0.82648019       0.31639677       0.44889008 </v>
   <v>       0.83458369       0.33343743       0.94693956 </v>
   <v>       0.83750311       0.66666667       0.44148731 </v>
   <v>       0.83312026       0.66666667       0.94430125 </v>
   <v>       0.66840242       0.16666667       0.05824493 </v>
   <v>       0.66740092       0.16666667       0.55823143 </v>
   <v>       0.66513173       0.50447031       0.05000657 </v>
   <v>       0.67112488       0.49901778       0.55389486 </v>
   <v>       0.66513173       0.82886302       0.05000657 </v>
   <v>       0.67112488       0.83431555       0.55389486 </v>
   <v>       0.50191653       0.00050262       0.13111043 </v>
   <v>       0.49764149       0.99935834       0.62853847 </v>
   <v>       0.50191653       0.33283072       0.13111043 </v>
   <v>       0.49764149       0.33397500       0.62853847 </v>
   <v>       0.49821932       0.66666667       0.12836278 </v>
   <v>       0.49866121       0.66666667       0.62706480 </v>
   <v>       0.00421700       0.16666667       0.87222737 </v>
   <v>       0.00639894       0.48741856       0.37466479 </v>
   <v>       0.00473898       0.49999153       0.87118102 </v>
   <v>       0.00639894       0.84591478       0.37466479 </v>
   <v>       0.00473898       0.83334180       0.87118102 </v>
   <v>       0.17507225       0.99890453       0.27961065 </v>
   <v>       0.17363170       0.00039468       0.78101917 </v>
   <v>       0.17507225       0.33442880       0.27961065 </v>
   <v>       0.17363170       0.33293865       0.78101917 </v>
   <v>       0.17304752       0.66666667       0.28136279 </v>
   <v>       0.17247054       0.66666667       0.77935407 </v>
   <v>       0.33114916       0.16666667       0.22009209 </v>
   <v>       0.33024942       0.16666667       0.72131374 </v>
   <v>       0.33021702       0.50056226       0.22008038 </v>
   <v>       0.32797323       0.50018808       0.71950792 </v>
   <v>       0.33021702       0.83277108       0.22008038 </v>
   <v>       0.32797323       0.83314526       0.71950792 </v>
   <v>       0.33609632       0.16666667       0.44658815 </v>
   <v>       0.33558376       0.16666667       0.94759254 </v>
   <v>       0.33546562       0.50046277       0.44634693 </v>
   <v>       0.33461195       0.49954093       0.94691367 </v>
   <v>       0.33546562       0.83287057       0.44634693 </v>
   <v>       0.33461195       0.83379240       0.94691367 </v>
   <v>       0.16871185       0.00091429       0.05424312 </v>
   <v>       0.16881161       0.99996261       0.55456553 </v>
   <v>       0.16871185       0.33241904       0.05424312 </v>
   <v>       0.16881161       0.33337073       0.55456553 </v>
   <v>       0.17027638       0.66666667       0.05456315 </v>
   <v>       0.16485107       0.66666667       0.55249993 </v>
   <v>       0.83275343       0.16666667       0.36305175 </v>
  </varray>
 </structure>
</modeling>
