 running    4 mpi-ranks, on    1 nodes
 distrk:  each k-point on    1 cores,    4 groups
 distr:  one band on    1 cores,    1 groups
 OpenACC runtime initialized ...    4 GPUs detected
 vasp.6.4.2 20Jul23 (build Nov 12 2023 22:16:35) complex                         
 POSCAR found type information on POSCAR GaO 
 POSCAR found :  2 types and     119 ions
 scaLAPACK will be used selectively (only on CPU)
 LDA part: xc-table for Pade appr. of Perdew
 POSCAR, INCAR and KPOINTS ok, starting setup
 FFT: planning ... GRIDC
 FFT: planning ... GRID_SOFT
 FFT: planning ... GRID
 WAVECAR not read
 initial charge from wavefunction
 entering main loop
       N       E                     dE             d eps       ncg     rms          ort
DAV:   1    -0.181909209273E+05   -0.18191E+05   -0.54686E+05  5008   0.750E+03
DAV:   2    -0.625962056808E+05   -0.44405E+05   -0.42860E+05  5008   0.124E+03
DAV:   3    -0.677041793787E+05   -0.51080E+04   -0.46373E+04  5008   0.380E+02
DAV:   4    -0.684993887511E+05   -0.79521E+03   -0.69412E+03  5008   0.122E+02
DAV:   5    -0.390260243963E+05    0.29473E+05   -0.72780E+02  5008   0.563E+01
 gam= 0.000 g(H,U,f)=  0.798E+05 0.268E+05 0.109E+00 ort(H,U,f) = 0.000E+00 0.000E+00 0.000E+00
SDA:   6     0.306899013772E+05    0.69716E+05   -0.72780E+02  5008   0.107E+06 0.000E+00
 gam= 0.000 trial= 0.400  step= 0.457 mean= 0.400
 gam= 0.782 g(H,U,f)=  0.272E+05 0.345E+05 0.217E+05 ort(H,U,f) =-0.101E+05-0.221E+05-0.140E+05
CGA:   7     0.788344726902E+04   -0.22806E+05   -0.24361E+05  5008   0.834E+05-0.463E+05
 gam= 0.782 trial= 0.403  step= 0.209 mean= 0.403
 gam= 0.380 g(H,U,f)=  0.198E+05 0.113E+05 0.572E+03 ort(H,U,f) = 0.511E+04 0.557E+04 0.509E+03
CGA:   8     0.668358184463E+04   -0.11999E+04   -0.49210E+04  5008   0.317E+05 0.112E+05
 gam= 0.380 trial= 0.393  step= 0.217 mean= 0.393
 gam= 0.608 g(H,U,f)=  0.145E+05 0.470E+04 0.457E+02 ort(H,U,f) = 0.147E+04-0.308E+04-0.890E+02
CGA:   9     0.396122124523E+04   -0.27224E+04   -0.38891E+04  5008   0.193E+05-0.170E+04
 gam= 0.608 trial= 0.384  step= 0.263 mean= 0.384
 gam= 0.326 g(H,U,f)=  0.563E+04 0.609E+03 0.347E+02 ort(H,U,f) = 0.842E+03 0.326E+03-0.254E+02
CGA:  10     0.186756828688E+04   -0.20937E+04   -0.23952E+04  5008   0.628E+04 0.114E+04
 gam= 0.326 trial= 0.378  step= 0.390 mean= 0.378
 gam= 0.443 g(H,U,f)=  0.251E+04 0.261E+03 0.863E+01 ort(H,U,f) = 0.721E+03 0.749E+02-0.177E+02
CGA:  11     0.562871185467E+03   -0.13047E+04   -0.12961E+04  5008   0.278E+04 0.778E+03
 gam= 0.443 trial= 0.379  step= 0.462 mean= 0.379
 gam= 0.435 g(H,U,f)=  0.105E+04 0.161E+03 0.420E+00 ort(H,U,f) = 0.141E+03 0.118E+03 0.180E+00
CGA:  12    -0.178674254573E+03   -0.74155E+03   -0.72299E+03  5008   0.121E+04 0.259E+03
 gam= 0.435 trial= 0.383  step= 0.563 mean= 0.383
 gam= 0.498 g(H,U,f)=  0.521E+03 0.818E+02 0.859E+00 ort(H,U,f) =-0.972E+02 0.125E+03 0.351E+00
CGA:  13    -0.556575076318E+03   -0.37790E+03   -0.37249E+03  5008   0.604E+03 0.279E+02
 gam= 0.498 trial= 0.392  step= 0.670 mean= 0.392
 gam= 0.700 g(H,U,f)=  0.373E+03 0.501E+02 0.189E-01 ort(H,U,f) =-0.162E+03 0.701E+02 0.234E+00
CGA:  14    -0.746889484551E+03   -0.19031E+03   -0.20691E+03  5008   0.423E+03-0.912E+02
 gam= 0.700 trial= 0.406  step= 0.436 mean= 0.406
 gam= 0.537 g(H,U,f)=  0.198E+03 0.272E+02 0.145E+01 ort(H,U,f) =-0.595E+01-0.156E+02 0.225E+01
CGA:  15    -0.824756771960E+03   -0.77867E+02   -0.78295E+02  5008   0.227E+03-0.192E+02
 gam= 0.537 trial= 0.407  step= 0.395 mean= 0.407
 gam= 0.540 g(H,U,f)=  0.969E+02 0.249E+02 0.808E+00 ort(H,U,f) = 0.155E+02-0.215E+02 0.187E+00
CGA:  16    -0.867688851428E+03   -0.42932E+02   -0.42868E+02  5008   0.123E+03-0.588E+01
 gam= 0.540 trial= 0.407  step= 0.435 mean= 0.407
 gam= 0.599 g(H,U,f)=  0.549E+02 0.186E+02 0.122E+00 ort(H,U,f) = 0.108E+01-0.238E+01-0.140E+00
CGA:  17    -0.893611304787E+03   -0.25922E+02   -0.25971E+02  5008   0.735E+02-0.144E+01
 gam= 0.599 trial= 0.408  step= 0.438 mean= 0.408
 gam= 0.608 g(H,U,f)=  0.321E+02 0.125E+02 0.850E-01 ort(H,U,f) =-0.667E+01 0.799E+01-0.730E-01
CGA:  18    -0.909545656001E+03   -0.15934E+02   -0.15910E+02  5008   0.447E+02 0.124E+01
 gam= 0.608 trial= 0.410  step= 0.471 mean= 0.410
 gam= 0.711 g(H,U,f)=  0.237E+02 0.796E+01 0.788E-01 ort(H,U,f) =-0.773E+01 0.760E+01 0.195E-01
CGA:  19    -0.920244468789E+03   -0.10699E+02   -0.10709E+02  5008   0.318E+02-0.109E+00
 gam= 0.711 trial= 0.413  step= 0.367 mean= 0.413
 gam= 0.806 g(H,U,f)=  0.165E+02 0.891E+01 0.225E+00 ort(H,U,f) =-0.172E+01 0.392E+00-0.831E+00
CGA:  20    -0.926207291091E+03   -0.59628E+01   -0.58207E+01  5008   0.256E+02-0.216E+01
 gam= 0.806 trial= 0.410  step= 0.267 mean= 0.410
 gam= 1.003 g(H,U,f)=  0.122E+02 0.110E+02 0.245E+01 ort(H,U,f) = 0.633E+00 0.658E-01-0.107E+01
CGA:  21    -0.929205883212E+03   -0.29986E+01   -0.31861E+01  5008   0.257E+02-0.369E+00
 gam= 1.003 trial= 0.403  step= 0.171 mean= 0.403
 gam= 0.508 g(H,U,f)=  0.851E+01 0.431E+01 0.216E+00 ort(H,U,f) =-0.182E+01 0.271E+01 0.253E+00
CGA:  22    -0.931590830989E+03   -0.23849E+01   -0.21693E+01  5008   0.130E+02 0.114E+01
 gam= 0.508 trial= 0.392  step= 0.184 mean= 0.392
 gam= 1.129 g(H,U,f)=  0.685E+01 0.726E+01 0.605E+00 ort(H,U,f) = 0.188E+01-0.233E+01-0.660E+00
CGA:  23    -0.932735003814E+03   -0.11442E+01   -0.12508E+01  5008   0.147E+02-0.111E+01
 gam= 1.129 trial= 0.381  step= 0.224 mean= 0.381
 gam= 0.828 g(H,U,f)=  0.475E+01 0.636E+01 0.106E+01 ort(H,U,f) =-0.433E+00 0.636E+00-0.101E+00
CGA:  24    -0.934235065616E+03   -0.15001E+01   -0.15067E+01  5008   0.122E+02 0.103E+00
 gam= 0.828 trial= 0.373  step= 0.134 mean= 0.373
 gam= 0.491 g(H,U,f)=  0.381E+01 0.201E+01 0.155E+00 ort(H,U,f) =-0.324E+00-0.109E+01-0.119E+00
CGA:  25    -0.934907212088E+03   -0.67215E+00   -0.82222E+00  5008   0.598E+01-0.153E+01
 gam= 0.491 trial= 0.361  step= 0.247 mean= 0.361
 gam= 1.003 g(H,U,f)=  0.303E+01 0.278E+01 0.190E+00 ort(H,U,f) = 0.735E+00-0.596E+00-0.858E-01
CGA:  26    -0.935543988945E+03   -0.63678E+00   -0.64453E+00  5008   0.600E+01 0.524E-01
 gam= 1.003 trial= 0.356  step= 0.217 mean= 0.356
 gam= 0.909 g(H,U,f)=  0.238E+01 0.284E+01 0.236E+00 ort(H,U,f) = 0.297E+00-0.537E-01-0.176E+00
CGA:  27    -0.936216802428E+03   -0.67281E+00   -0.65719E+00  5008   0.545E+01 0.674E-01
 gam= 0.909 trial= 0.349  step= 0.114 mean= 0.349
 gam= 0.554 g(H,U,f)=  0.192E+01 0.104E+01 0.605E-01 ort(H,U,f) = 0.579E+00 0.695E+00-0.754E-01
CGA:  28    -0.936623828905E+03   -0.40703E+00   -0.31561E+00  5008   0.302E+01 0.120E+01
 gam= 0.554 trial= 0.337  step= 0.173 mean= 0.337
 gam= 1.624 g(H,U,f)=  0.146E+01 0.295E+01 0.494E+00 ort(H,U,f) = 0.632E+00-0.558E+00-0.110E+00
CGA:  29    -0.936937170277E+03   -0.31334E+00   -0.31820E+00  5008   0.490E+01-0.361E-01
 gam= 1.624 trial= 0.329  step= 0.119 mean= 0.329
 gam= 0.642 g(H,U,f)=  0.118E+01 0.171E+01 0.252E+00 ort(H,U,f) =-0.774E+00 0.918E+00 0.935E-01
CGA:  30    -0.937246147021E+03   -0.30898E+00   -0.28705E+00  5008   0.315E+01 0.238E+00
 gam= 0.642 trial= 0.318  step= 0.118 mean= 0.318
 gam= 0.864 g(H,U,f)=  0.107E+01 0.139E+01 0.256E+00 ort(H,U,f) =-0.735E+00 0.435E+00-0.215E+00
CGA:  31    -0.937403492720E+03   -0.15735E+00   -0.19455E+00  5008   0.272E+01-0.516E+00
 gam= 0.864 trial= 0.308  step= 0.079 mean= 0.308
 gam= 0.731 g(H,U,f)=  0.917E+00 0.985E+00 0.836E-01 ort(H,U,f) =-0.200E+00 0.621E+00-0.932E-01
CGA:  32    -0.937509968051E+03   -0.10648E+00   -0.89499E-01  5008   0.199E+01 0.327E+00
 gam= 0.731 trial= 0.297  step= 0.121 mean= 0.297
 gam= 1.211 g(H,U,f)=  0.715E+00 0.146E+01 0.228E+00 ort(H,U,f) = 0.150E+00-0.240E+00-0.742E-01
CGA:  33    -0.937630594471E+03   -0.12063E+00   -0.13450E+00  5008   0.240E+01-0.165E+00
 gam= 1.211 trial= 0.288  step= 0.111 mean= 0.288
 gam= 0.907 g(H,U,f)=  0.537E+00 0.160E+01 0.487E-01 ort(H,U,f) =-0.212E-01 0.957E-02 0.102E-01
CGA:  34    -0.937753420079E+03   -0.12283E+00   -0.12290E+00  5008   0.218E+01-0.147E-02
 gam= 0.907 trial= 0.279  step= 0.073 mean= 0.279
 gam= 0.440 g(H,U,f)=  0.430E+00 0.496E+00 0.319E-01 ort(H,U,f) =-0.659E-01 0.288E+00-0.107E+00
CGA:  35    -0.937838485000E+03   -0.85065E-01   -0.79458E-01  5008   0.959E+00 0.115E+00
 gam= 0.440 trial= 0.269  step= 0.088 mean= 0.269
 gam= 0.884 g(H,U,f)=  0.374E+00 0.430E+00 0.440E-01 ort(H,U,f) = 0.222E+00-0.207E+00-0.475E-01
CGA:  36    -0.937881042202E+03   -0.42557E-01   -0.44220E-01  5008   0.847E+00-0.330E-01
 gam= 0.884 trial= 0.260  step= 0.167 mean= 0.260
 gam= 0.000 g(H,U,f)=  0.299E+00 0.109E+01 0.707E-01 ort(H,U,f) = 0.240E+00-0.194E+00-0.482E-01
SDA:  37    -0.937946517815E+03   -0.65476E-01   -0.68146E-01  5008   0.146E+01-0.221E-02
 gam= 0.000 trial= 0.255  step= 0.127 mean= 0.255
 gam= 0.246 g(H,U,f)=  0.186E+00 0.166E+00 0.616E-02 ort(H,U,f) = 0.194E+00-0.225E+00-0.963E-02
CGA:  38    -0.938034508028E+03   -0.87990E-01   -0.92386E-01  5008   0.358E+00-0.398E-01
 gam= 0.246 trial= 0.249  step= 0.941 mean= 0.249
 gam= 0.711 g(H,U,f)=  0.825E-01 0.166E+00 0.626E-02 ort(H,U,f) = 0.224E-01-0.169E-01-0.113E-02
CGA:  39    -0.938200158306E+03   -0.16565E+00   -0.16387E+00  5008   0.255E+00 0.432E-02
 gam= 0.711 trial= 0.283  step= 0.317 mean= 0.283
 gam= 1.041 g(H,U,f)=  0.493E-01 0.214E+00 0.167E-02 ort(H,U,f) = 0.403E-01-0.374E-01 0.111E-02
CGA:  40    -0.938241165922E+03   -0.41008E-01   -0.40896E-01  5008   0.265E+00 0.398E-02
 gam= 1.041 trial= 0.285  step= 0.237 mean= 0.285
 gam= 0.252 g(H,U,f)=  0.251E-01 0.388E-01 0.284E-02 ort(H,U,f) = 0.273E-01-0.291E-01-0.818E-03
CGA:  41    -0.938273234077E+03   -0.32068E-01   -0.31848E-01  5008   0.667E-01-0.253E-02
 gam= 0.252 trial= 0.283  step= 0.413 mean= 0.283
 gam= 0.919 g(H,U,f)=  0.137E-01 0.460E-01 0.167E-02 ort(H,U,f) = 0.143E-01-0.139E-01-0.825E-03
CGA:  42    -0.938286842497E+03   -0.13608E-01   -0.13649E-01  5008   0.614E-01-0.488E-03
 gam= 0.919 trial= 0.289  step= 0.297 mean= 0.289
 gam= 0.341 g(H,U,f)=  0.671E-02 0.142E-01 0.735E-04 ort(H,U,f) = 0.851E-02-0.746E-02-0.581E-04
CGA:  43    -0.938295903799E+03   -0.90613E-02   -0.90541E-02  5008   0.209E-01 0.992E-03
 gam= 0.341 trial= 0.290  step= 0.237 mean= 0.290
 gam= 0.607 g(H,U,f)=  0.451E-02 0.794E-02 0.264E-03 ort(H,U,f) = 0.577E-02-0.558E-02 0.758E-04
CGA:  44    -0.938298405818E+03   -0.25020E-02   -0.25236E-02  5008   0.127E-01 0.271E-03
 gam= 0.607 trial= 0.287  step= 0.393 mean= 0.287
 gam= 0.784 g(H,U,f)=  0.241E-02 0.745E-02 0.113E-03 ort(H,U,f) = 0.326E-02-0.299E-02-0.135E-03
CGA:  45    -0.938300942620E+03   -0.25368E-02   -0.25285E-02  5008   0.997E-02 0.136E-03
 gam= 0.784 trial= 0.292  step= 0.387 mean= 0.292
 gam= 0.706 g(H,U,f)=  0.173E-02 0.528E-02 0.368E-04 ort(H,U,f) = 0.128E-02-0.124E-02 0.428E-04
CGA:  46    -0.938302895862E+03   -0.19532E-02   -0.19487E-02  5008   0.704E-02 0.850E-04
 gam= 0.706 trial= 0.297  step= 0.218 mean= 0.297
 gam= 0.462 g(H,U,f)=  0.133E-02 0.190E-02 0.194E-04 ort(H,U,f) = 0.136E-02-0.129E-02-0.312E-04
CGA:  47    -0.938303665660E+03   -0.76980E-03   -0.77464E-03  5008   0.325E-02 0.381E-04
 gam= 0.462 trial= 0.293  step= 0.768 mean= 0.293
 gam= 1.247 g(H,U,f)=  0.781E-03 0.320E-02 0.744E-04 ort(H,U,f) = 0.681E-04-0.838E-04 0.384E-04
CGA:  48    -0.938304927268E+03   -0.12616E-02   -0.12556E-02  5008   0.406E-02 0.226E-04
 gam= 1.247 trial= 0.317  step= 0.201 mean= 0.317
 gam= 0.426 g(H,U,f)=  0.839E-03 0.884E-03 0.474E-05 ort(H,U,f) = 0.179E-03-0.155E-03-0.133E-04
CGA:  49    -0.938305335568E+03   -0.40830E-03   -0.41121E-03  5008   0.173E-02 0.109E-04
 gam= 0.426 trial= 0.311  step= 0.708 mean= 0.311
 gam= 1.415 g(H,U,f)=  0.480E-03 0.191E-02 0.574E-04 ort(H,U,f) =-0.700E-04 0.595E-04-0.124E-04
CGA:  50    -0.938305945176E+03   -0.60961E-03   -0.61363E-03  5008   0.244E-02-0.229E-04
 gam= 1.415 trial= 0.331  step= 0.248 mean= 0.331
 gam= 0.504 g(H,U,f)=  0.564E-03 0.666E-03 0.162E-05 ort(H,U,f) =-0.204E-03 0.227E-03-0.947E-05
CGA:  51    -0.938306242779E+03   -0.29760E-03   -0.29904E-03  5008   0.123E-02 0.132E-04
 gam= 0.504 trial= 0.327  step= 0.552 mean= 0.327
 gam= 1.751 g(H,U,f)=  0.361E-03 0.169E-02 0.106E-03 ort(H,U,f) =-0.646E-04 0.606E-04-0.375E-05
CGA:  52    -0.938306583252E+03   -0.34047E-03   -0.34153E-03  5008   0.216E-02-0.777E-05
 gam= 1.751 trial= 0.338  step= 0.354 mean= 0.338
 gam= 0.645 g(H,U,f)=  0.586E-03 0.800E-03 0.474E-05 ort(H,U,f) =-0.608E-03 0.659E-03-0.192E-04
CGA:  53    -0.938306963521E+03   -0.38027E-03   -0.37983E-03  5008   0.139E-02 0.313E-04
 gam= 0.645 trial= 0.339  step= 0.795 mean= 0.339
 gam= 4.172 g(H,U,f)=  0.796E-03 0.497E-02 0.341E-04 ort(H,U,f) =-0.458E-03 0.347E-03 0.185E-04
CGA:  54    -0.938307504823E+03   -0.54130E-03   -0.56072E-03  5008   0.580E-02-0.926E-04
 gam= 4.172 trial= 0.362  step= 0.473 mean= 0.362
 gam= 1.070 g(H,U,f)=  0.326E-02 0.284E-02 0.114E-03 ort(H,U,f) =-0.586E-02 0.525E-02 0.632E-03
CGA:  55    -0.938308786986E+03   -0.12822E-02   -0.12802E-02  5008   0.621E-02 0.179E-04
 gam= 1.070 trial= 0.367  step= 0.712 mean= 0.367
 gam= 2.399 g(H,U,f)=  0.645E-02 0.816E-02 0.285E-03 ort(H,U,f) =-0.758E-02 0.321E-02 0.138E-02
CGA:  56    -0.938310486763E+03   -0.16998E-02   -0.22179E-02  5008   0.149E-01-0.300E-02
 gam= 2.399 trial= 0.384  step= 0.060 mean= 0.384
 gam= 1.130 g(H,U,f)=  0.690E-02 0.961E-02 0.323E-03 ort(H,U,f) =-0.135E-01 0.124E-01 0.367E-02
CGA:  57    -0.938310798231E+03   -0.31147E-03   -0.23221E-03  5008   0.168E-01 0.259E-02
 gam= 1.130 trial= 0.368  step= 0.119 mean= 0.368
 gam= 1.242 g(H,U,f)=  0.676E-02 0.138E-01 0.378E-03 ort(H,U,f) =-0.129E-01 0.126E-01 0.427E-02
CGA:  58    -0.938312263975E+03   -0.14657E-02   -0.11776E-02  5008   0.209E-01 0.399E-02
 gam= 1.242 trial= 0.356  step= 0.102 mean= 0.356
 gam= 1.128 g(H,U,f)=  0.671E-02 0.165E-01 0.316E-03 ort(H,U,f) =-0.158E-01 0.145E-01 0.431E-02
CGA:  59    -0.938313742341E+03   -0.14784E-02   -0.13201E-02  5008   0.236E-01 0.303E-02
 gam= 1.128 trial= 0.343  step= 0.090 mean= 0.343
 gam= 0.856 g(H,U,f)=  0.707E-02 0.129E-01 0.187E-03 ort(H,U,f) =-0.183E-01 0.151E-01 0.312E-02
CGA:  60    -0.938314898020E+03   -0.11557E-02   -0.12174E-02  5008   0.202E-01-0.154E-03
 gam= 0.856 trial= 0.330  step= 0.092 mean= 0.330
 gam= 0.812 g(H,U,f)=  0.736E-02 0.895E-02 0.849E-04 ort(H,U,f) =-0.136E-01 0.104E-01 0.147E-02
CGA:  61    -0.938315666859E+03   -0.76884E-03   -0.92438E-03  5008   0.164E-01-0.176E-02
 gam= 0.812 trial= 0.319  step= 0.115 mean= 0.319
 gam= 1.025 g(H,U,f)=  0.729E-02 0.949E-02 0.273E-04 ort(H,U,f) =-0.750E-02 0.609E-02 0.519E-03
CGA:  62    -0.938316391921E+03   -0.72506E-03   -0.85725E-03  5008   0.168E-01-0.891E-03
 gam= 1.025 trial= 0.308  step= 0.141 mean= 0.308
 gam= 0.948 g(H,U,f)=  0.689E-02 0.903E-02 0.420E-05 ort(H,U,f) =-0.530E-02 0.509E-02 0.126E-03
CGA:  63    -0.938317406241E+03   -0.10143E-02   -0.11201E-02  5008   0.159E-01-0.847E-04
 gam= 0.948 trial= 0.300  step= 0.143 mean= 0.300
 gam= 0.799 g(H,U,f)=  0.648E-02 0.624E-02 0.223E-06 ort(H,U,f) =-0.282E-02 0.292E-02 0.433E-05
CGA:  64    -0.938318459914E+03   -0.10537E-02   -0.11344E-02  5008   0.127E-01 0.105E-03
 gam= 0.799 trial= 0.292  step= 0.175 mean= 0.292
 gam= 0.992 g(H,U,f)=  0.616E-02 0.646E-02 0.606E-06 ort(H,U,f) = 0.267E-03 0.101E-03-0.119E-04
CGA:  65    -0.938319526886E+03   -0.10670E-02   -0.11231E-02  5008   0.126E-01 0.357E-03
 gam= 0.992 trial= 0.286  step= 0.199 mean= 0.286
 gam= 0.925 g(H,U,f)=  0.591E-02 0.576E-02 0.747E-06 ort(H,U,f) = 0.152E-02-0.104E-02-0.562E-05
CGA:  66    -0.938320773270E+03   -0.12464E-02   -0.12892E-02  5008   0.117E-01 0.476E-03
 gam= 0.925 trial= 0.282  step= 0.221 mean= 0.282
 gam= 0.967 g(H,U,f)=  0.561E-02 0.568E-02 0.366E-06 ort(H,U,f) = 0.217E-02-0.164E-02-0.135E-05
CGA:  67    -0.938322080178E+03   -0.13069E-02   -0.13386E-02  5008   0.113E-01 0.531E-03
 gam= 0.967 trial= 0.279  step= 0.261 mean= 0.279
 gam= 0.000 g(H,U,f)=  0.514E-02 0.490E-02 0.140E-06 ort(H,U,f) = 0.155E-02-0.959E-03-0.258E-06
SDA:  68    -0.938323610140E+03   -0.15300E-02   -0.15377E-02  5008   0.100E-01 0.588E-03
 gam= 0.000 trial= 0.278  step= 1.177 mean= 0.278
 gam= 3.450 g(H,U,f)=  0.492E-02 0.297E-01 0.430E-06 ort(H,U,f) = 0.513E-03-0.172E-02 0.109E-05
CGA:  69    -0.938329112145E+03   -0.55020E-02   -0.59091E-02  5008   0.346E-01-0.120E-02
 gam= 3.450 trial= 0.323  step= 0.320 mean= 0.323
 gam= 0.475 g(H,U,f)=  0.945E-02 0.701E-02 0.295E-06 ort(H,U,f) =-0.513E-02 0.361E-02-0.130E-04
CGA:  70    -0.938333994694E+03   -0.48825E-02   -0.48779E-02  5008   0.165E-01-0.153E-02
 gam= 0.475 trial= 0.323  step= 0.660 mean= 0.323
 gam= 1.386 g(H,U,f)=  0.517E-02 0.176E-01 0.342E-04 ort(H,U,f) = 0.117E-02-0.136E-02-0.196E-03
CGA:  71    -0.938339118449E+03   -0.51238E-02   -0.51859E-02  5008   0.228E-01-0.387E-03
 gam= 1.386 trial= 0.340  step= 0.186 mean= 0.340
 gam= 0.388 g(H,U,f)=  0.372E-02 0.499E-02 0.129E-03 ort(H,U,f) = 0.264E-02-0.108E-02-0.646E-03
CGA:  72    -0.938341374865E+03   -0.22564E-02   -0.20668E-02  5008   0.884E-02 0.913E-03
 gam= 0.388 trial= 0.332  step= 0.309 mean= 0.332
 gam= 0.991 g(H,U,f)=  0.234E-02 0.625E-02 0.170E-03 ort(H,U,f) = 0.231E-02-0.217E-02-0.153E-03
CGA:  73    -0.938342794657E+03   -0.14198E-02   -0.14195E-02  5008   0.876E-02-0.111E-04
 gam= 0.991 trial= 0.331  step= 0.346 mean= 0.331
 gam= 1.086 g(H,U,f)=  0.212E-02 0.724E-02 0.149E-03 ort(H,U,f) = 0.112E-02-0.893E-03 0.228E-04
CGA:  74    -0.938344312302E+03   -0.15176E-02   -0.15141E-02  5008   0.951E-02 0.250E-03
 gam= 1.086 trial= 0.332  step= 0.248 mean= 0.332
 gam= 0.711 g(H,U,f)=  0.234E-02 0.430E-02 0.124E-03 ort(H,U,f) = 0.728E-03-0.873E-03 0.149E-03
CGA:  75    -0.938345523337E+03   -0.12110E-02   -0.12106E-02  5008   0.676E-02 0.404E-05
 gam= 0.711 trial= 0.327  step= 0.454 mean= 0.327
 gam= 1.196 g(H,U,f)=  0.231E-02 0.574E-02 0.432E-04 ort(H,U,f) = 0.151E-03-0.460E-03 0.104E-03
CGA:  76    -0.938347041619E+03   -0.15183E-02   -0.15347E-02  5008   0.809E-02-0.206E-03
 gam= 1.196 trial= 0.334  step= 0.246 mean= 0.334
 gam= 0.803 g(H,U,f)=  0.233E-02 0.416E-02 0.937E-05 ort(H,U,f) = 0.424E-03-0.388E-03 0.596E-04
CGA:  77    -0.938347982497E+03   -0.94088E-03   -0.96534E-03  5008   0.650E-02 0.952E-04
 gam= 0.803 trial= 0.329  step= 0.485 mean= 0.329
 gam= 0.544 g(H,U,f)=  0.193E-02 0.160E-02 0.873E-07 ort(H,U,f) =-0.504E-03 0.695E-03-0.315E-05
CGA:  78    -0.938349596667E+03   -0.16142E-02   -0.15946E-02  5008   0.353E-02 0.188E-03
 gam= 0.544 trial= 0.337  step= 0.313 mean= 0.337
 gam= 1.188 g(H,U,f)=  0.144E-02 0.276E-02 0.410E-06 ort(H,U,f) = 0.920E-03-0.913E-03-0.291E-05
CGA:  79    -0.938350165145E+03   -0.56848E-03   -0.56859E-03  5008   0.420E-02 0.385E-05
 gam= 1.188 trial= 0.336  step= 0.516 mean= 0.336
 gam= 0.759 g(H,U,f)=  0.142E-02 0.176E-02 0.886E-06 ort(H,U,f) =-0.187E-03 0.436E-03-0.312E-05
CGA:  80    -0.938351275677E+03   -0.11105E-02   -0.10835E-02  5008   0.319E-02 0.246E-03
 gam= 0.759 trial= 0.345  step= 0.310 mean= 0.345
 gam= 0.779 g(H,U,f)=  0.118E-02 0.130E-02 0.759E-06 ort(H,U,f) = 0.320E-03-0.312E-03-0.127E-05
CGA:  81    -0.938351798125E+03   -0.52245E-03   -0.52285E-03  5008   0.248E-02 0.691E-05
 gam= 0.779 trial= 0.343  step= 0.483 mean= 0.343
 gam= 1.360 g(H,U,f)=  0.857E-03 0.252E-02 0.427E-06 ort(H,U,f) =-0.522E-04-0.596E-04-0.208E-06
CGA:  82    -0.938352389176E+03   -0.59105E-03   -0.60075E-03  5008   0.337E-02-0.112E-03
 gam= 1.360 trial= 0.350  step= 0.337 mean= 0.350
 gam= 0.570 g(H,U,f)=  0.131E-02 0.607E-03 0.379E-06 ort(H,U,f) =-0.745E-03 0.797E-03 0.117E-06
CGA:  83    -0.938352930681E+03   -0.54150E-03   -0.54231E-03  5008   0.192E-02 0.522E-04
 gam= 0.570 trial= 0.349  step= 0.516 mean= 0.349
 gam= 1.931 g(H,U,f)=  0.895E-03 0.281E-02 0.421E-06 ort(H,U,f) =-0.126E-04 0.851E-04 0.490E-06
CGA:  84    -0.938353441518E+03   -0.51084E-03   -0.50341E-03  5008   0.371E-02 0.729E-04
 gam= 1.931 trial= 0.358  step= 0.350 mean= 0.358
 gam= 0.570 g(H,U,f)=  0.160E-02 0.513E-03 0.154E-07 ort(H,U,f) =-0.155E-02 0.136E-02 0.284E-06
CGA:  85    -0.938354117772E+03   -0.67625E-03   -0.67478E-03  5008   0.211E-02-0.195E-03
 gam= 0.570 trial= 0.357  step= 0.932 mean= 0.357
 gam= 2.913 g(H,U,f)=  0.181E-02 0.435E-02 0.115E-05 ort(H,U,f) =-0.990E-03 0.682E-03-0.160E-05
CGA:  86    -0.938354981331E+03   -0.86356E-03   -0.93298E-03  5008   0.616E-02-0.310E-03
 gam= 2.913 trial= 0.386  step= 0.296 mean= 0.386
 gam= 0.840 g(H,U,f)=  0.339E-02 0.178E-02 0.275E-05 ort(H,U,f) =-0.412E-02 0.425E-02-0.366E-05
CGA:  87    -0.938355738749E+03   -0.75742E-03   -0.77612E-03  5008   0.517E-02 0.133E-03
 gam= 0.840 trial= 0.382  step= 0.551 mean= 0.382
 gam= 1.232 g(H,U,f)=  0.350E-02 0.287E-02 0.363E-05 ort(H,U,f) =-0.335E-02 0.330E-02 0.286E-05
CGA:  88    -0.938357207678E+03   -0.14689E-02   -0.14546E-02  5008   0.637E-02-0.449E-04
 gam= 1.232 trial= 0.390  step= 0.269 mean= 0.390
 gam= 1.512 g(H,U,f)=  0.368E-02 0.595E-02 0.281E-05 ort(H,U,f) =-0.271E-02 0.266E-02 0.675E-05
CGA:  89    -0.938358164632E+03   -0.95695E-03   -0.84822E-03  5008   0.963E-02-0.484E-04
 gam= 1.512 trial= 0.384  step= 0.151 mean= 0.384
 gam= 1.346 g(H,U,f)=  0.380E-02 0.917E-02 0.114E-05 ort(H,U,f) =-0.307E-02 0.408E-02 0.757E-05
CGA:  90    -0.938358990447E+03   -0.82582E-03   -0.72014E-03  5008   0.130E-01 0.101E-02
 gam= 1.346 trial= 0.372  step= 0.143 mean= 0.372
 gam= 0.979 g(H,U,f)=  0.408E-02 0.861E-02 0.913E-07 ort(H,U,f) =-0.516E-02 0.530E-02 0.244E-05
CGA:  91    -0.938360004328E+03   -0.10139E-02   -0.10214E-02  5008   0.127E-01 0.144E-03
 gam= 0.979 trial= 0.361  step= 0.148 mean= 0.361
 gam= 0.722 g(H,U,f)=  0.434E-02 0.483E-02 0.493E-07 ort(H,U,f) =-0.596E-02 0.521E-02-0.943E-06
CGA:  92    -0.938360841860E+03   -0.83753E-03   -0.95132E-03  5008   0.917E-02-0.753E-03
 gam= 0.722 trial= 0.350  step= 0.174 mean= 0.350
 gam= 0.744 g(H,U,f)=  0.402E-02 0.281E-02 0.126E-06 ort(H,U,f) =-0.325E-02 0.300E-02-0.913E-06
CGA:  93    -0.938361533964E+03   -0.69210E-03   -0.74914E-03  5008   0.683E-02-0.249E-03
 gam= 0.744 trial= 0.341  step= 0.228 mean= 0.341
 gam= 0.869 g(H,U,f)=  0.333E-02 0.260E-02 0.144E-06 ort(H,U,f) =-0.124E-02 0.127E-02-0.525E-06
CGA:  94    -0.938362281954E+03   -0.74799E-03   -0.75549E-03  5008   0.593E-02 0.268E-04
 gam= 0.869 trial= 0.336  step= 0.224 mean= 0.336
 gam= 0.834 g(H,U,f)=  0.292E-02 0.203E-02 0.140E-06 ort(H,U,f) =-0.193E-03 0.209E-03-0.304E-06
CGA:  95    -0.938362952837E+03   -0.67088E-03   -0.66798E-03  5008   0.495E-02 0.159E-04
 gam= 0.834 trial= 0.330  step= 0.250 mean= 0.330
 gam= 1.090 g(H,U,f)=  0.269E-02 0.270E-02 0.136E-06 ort(H,U,f) = 0.571E-03-0.558E-03-0.120E-06
CGA:  96    -0.938363571791E+03   -0.61895E-03   -0.61941E-03  5008   0.539E-02 0.130E-04
 gam= 1.090 trial= 0.326  step= 0.259 mean= 0.326
 gam= 0.965 g(H,U,f)=  0.268E-02 0.253E-02 0.138E-06 ort(H,U,f) = 0.322E-03-0.287E-03-0.392E-08
CGA:  97    -0.938364268366E+03   -0.69657E-03   -0.69964E-03  5008   0.520E-02 0.350E-04
 gam= 0.965 trial= 0.323  step= 0.219 mean= 0.323
 gam= 0.747 g(H,U,f)=  0.262E-02 0.126E-02 0.156E-06 ort(H,U,f) = 0.562E-03-0.547E-03 0.153E-06
CGA:  98    -0.938364840588E+03   -0.57222E-03   -0.57356E-03  5008   0.389E-02 0.153E-04
 gam= 0.747 trial= 0.318  step= 0.256 mean= 0.318
 gam= 0.000 g(H,U,f)=  0.220E-02 0.207E-02 0.184E-06 ort(H,U,f) = 0.117E-02-0.117E-02 0.358E-06
SDA:  99    -0.938365342039E+03   -0.50145E-03   -0.49991E-03  5008   0.427E-02-0.535E-05
 gam= 0.000 trial= 0.314  step= 0.554 mean= 0.314
 gam= 1.260 g(H,U,f)=  0.112E-02 0.426E-02 0.132E-06 ort(H,U,f) = 0.101E-02-0.103E-02 0.190E-06
CGA: 100    -0.938366523852E+03   -0.11818E-02   -0.11842E-02  5008   0.538E-02-0.189E-04
 gam= 1.260 trial= 0.326  step= 0.533 mean= 0.326
 gam= 0.683 g(H,U,f)=  0.157E-02 0.211E-02 0.113E-06 ort(H,U,f) = 0.539E-04-0.176E-03 0.497E-06
CGA: 101    -0.938367938624E+03   -0.14148E-02   -0.14287E-02  5008   0.368E-02-0.121E-03
 gam= 0.683 trial= 0.337  step= 0.681 mean= 0.337
 gam= 1.570 g(H,U,f)=  0.139E-02 0.439E-02 0.355E-08 ort(H,U,f) = 0.574E-03-0.709E-03-0.232E-07
CGA: 102    -0.938369140621E+03   -0.12020E-02   -0.12248E-02  5008   0.577E-02-0.135E-03
 gam= 1.570 trial= 0.354  step= 0.365 mean= 0.354
 gam= 0.461 g(H,U,f)=  0.114E-02 0.153E-02 0.628E-06 ort(H,U,f) = 0.553E-03-0.710E-03-0.363E-05
CGA: 103    -0.938370154617E+03   -0.10140E-02   -0.10157E-02  5008   0.266E-02-0.161E-03
 gam= 0.461 trial= 0.355  step= 0.573 mean= 0.355
 gam= 0.533 g(H,U,f)=  0.653E-03 0.766E-03 0.999E-06 ort(H,U,f) = 0.462E-03-0.470E-03-0.155E-05
CGA: 104    -0.938370895576E+03   -0.74096E-03   -0.74213E-03  5008   0.142E-02-0.951E-05
 gam= 0.533 trial= 0.366  step= 0.647 mean= 0.366
 gam= 0.957 g(H,U,f)=  0.404E-03 0.955E-03 0.623E-06 ort(H,U,f) = 0.336E-03-0.329E-03 0.149E-06
CGA: 105    -0.938371354360E+03   -0.45878E-03   -0.45768E-03  5008   0.136E-02 0.727E-05
 gam= 0.957 trial= 0.380  step= 0.281 mean= 0.380
 gam= 0.587 g(H,U,f)=  0.359E-03 0.439E-03 0.522E-06 ort(H,U,f) = 0.447E-03-0.448E-03 0.676E-06
CGA: 106    -0.938371546085E+03   -0.19173E-03   -0.19189E-03  5008   0.799E-03-0.489E-06
 gam= 0.587 trial= 0.375  step= 0.973 mean= 0.375
 gam= 0.605 g(H,U,f)=  0.335E-03 0.148E-03 0.299E-07 ort(H,U,f) = 0.590E-04-0.602E-04 0.171E-06
CGA: 107    -0.938371933960E+03   -0.38787E-03   -0.38825E-03  5008   0.484E-03-0.101E-05
 gam= 0.605 trial= 0.405  step= 0.649 mean= 0.405
 gam= 1.376 g(H,U,f)=  0.203E-03 0.462E-03 0.111E-07 ort(H,U,f) = 0.176E-03-0.174E-03-0.676E-07
CGA: 108    -0.938372091071E+03   -0.15711E-03   -0.15671E-03  5008   0.665E-03 0.283E-05
 gam= 1.376 trial= 0.417  step= 0.457 mean= 0.417
 gam= 0.597 g(H,U,f)=  0.236E-03 0.161E-03 0.149E-07 ort(H,U,f) = 0.138E-03-0.133E-03-0.915E-07
CGA: 109    -0.938372244213E+03   -0.15314E-03   -0.15299E-03  5008   0.397E-03 0.457E-05
 gam= 0.597 trial= 0.419  step= 0.610 mean= 0.419
 gam= 1.178 g(H,U,f)=  0.149E-03 0.319E-03 0.310E-07 ort(H,U,f) = 0.104E-03-0.102E-03-0.534E-07
CGA: 110    -0.938372366423E+03   -0.12221E-03   -0.12201E-03  5008   0.468E-03 0.185E-05
 gam= 1.178 trial= 0.428  step= 0.367 mean= 0.428
 gam= 0.613 g(H,U,f)=  0.157E-03 0.130E-03 0.645E-07 ort(H,U,f) = 0.105E-03-0.103E-03-0.465E-07
CGA: 111    -0.938372452624E+03   -0.86200E-04   -0.86270E-04  5008   0.287E-03 0.124E-05
 gam= 0.613 trial= 0.425  step= 0.731 mean= 0.425
 gam= 0.608 g(H,U,f)=  0.105E-03 0.691E-04 0.346E-07 ort(H,U,f) = 0.339E-04-0.330E-04 0.272E-07
CGA: 112    -0.938372557869E+03   -0.10525E-03   -0.10510E-03  5008   0.174E-03 0.934E-06
 gam= 0.608 trial= 0.441  step= 0.942 mean= 0.441
 gam= 0.847 g(H,U,f)=  0.833E-04 0.645E-04 0.741E-08 ort(H,U,f) = 0.127E-04-0.139E-04 0.257E-07
CGA: 113    -0.938372639965E+03   -0.82096E-04   -0.82398E-04  5008   0.148E-03-0.127E-05
 gam= 0.847 trial= 0.466  step= 0.533 mean= 0.466
 gam= 1.190 g(H,U,f)=  0.567E-04 0.119E-03 0.158E-08 ort(H,U,f) = 0.373E-04-0.373E-04 0.132E-07
CGA: 114    -0.938372679076E+03   -0.39111E-04   -0.39118E-04  5008   0.176E-03-0.505E-07
 gam= 1.190 trial= 0.469  step= 0.393 mean= 0.469
 gam= 0.525 g(H,U,f)=  0.504E-04 0.419E-04 0.427E-08 ort(H,U,f) = 0.252E-04-0.253E-04-0.317E-07
CGA: 115    -0.938372713660E+03   -0.34584E-04   -0.34560E-04  5008   0.923E-04-0.132E-06
 gam= 0.525 trial= 0.465  step= 0.580 mean= 0.465
 gam= 0.945 g(H,U,f)=  0.327E-04 0.545E-04 0.167E-07 ort(H,U,f) = 0.208E-04-0.211E-04-0.256E-07
CGA: 116    -0.938372740374E+03   -0.26714E-04   -0.26735E-04  5008   0.872E-04-0.305E-06
 gam= 0.945 trial= 0.471  step= 0.400 mean= 0.471
 gam= 0.577 g(H,U,f)=  0.270E-04 0.233E-04 0.100E-07 ort(H,U,f) = 0.178E-04-0.180E-04-0.576E-08
CGA: 117    -0.938372757762E+03   -0.17388E-04   -0.17382E-04  5008   0.503E-04-0.138E-06
 gam= 0.577 trial= 0.467  step= 0.771 mean= 0.467
 gam= 0.586 g(H,U,f)=  0.232E-04 0.624E-05 0.918E-08 ort(H,U,f) = 0.342E-05-0.362E-05 0.624E-08
CGA: 118    -0.938372777095E+03   -0.19334E-04   -0.19363E-04  5008   0.295E-04-0.196E-06
 gam= 0.586 trial= 0.483  step= 0.925 mean= 0.483
 gam= 0.863 g(H,U,f)=  0.143E-04 0.111E-04 0.191E-08 ort(H,U,f) = 0.326E-05-0.339E-05 0.556E-08
CGA: 119    -0.938372790661E+03   -0.13565E-04   -0.13594E-04  5008   0.254E-04-0.129E-06
 gam= 0.863 trial= 0.505  step= 0.481 mean= 0.505
 gam= 1.217 g(H,U,f)=  0.105E-04 0.204E-04 0.218E-10 ort(H,U,f) = 0.840E-05-0.842E-05 0.437E-09
CGA: 120    -0.938372796759E+03   -0.60979E-05   -0.60979E-05  5008   0.310E-04-0.267E-07
 gam= 1.217 trial= 0.504  step= 0.426 mean= 0.504
 final diagonalization
   1 F= -.93837280E+03 E0= -.93837279E+03  d E =-.183746E-04
 writing wavefunctions
Warning: ieee_invalid is signaling
Warning: ieee_divide_by_zero is signaling
Warning: ieee_underflow is signaling
Warning: ieee_inexact is signaling
FORTRAN STOP
Warning: ieee_invalid is signaling
Warning: ieee_divide_by_zero is signaling
Warning: ieee_underflow is signaling
Warning: ieee_inexact is signaling
FORTRAN STOP
Warning: ieee_invalid is signaling
Warning: ieee_divide_by_zero is signaling
Warning: ieee_underflow is signaling
Warning: ieee_inexact is signaling
FORTRAN STOP
Warning: ieee_invalid is signaling
Warning: ieee_divide_by_zero is signaling
Warning: ieee_underflow is signaling
Warning: ieee_inexact is signaling
FORTRAN STOP
