       N       E                     dE             d eps       ncg     rms          ort
DAV:   1    -0.181909209273E+05   -0.18191E+05   -0.54686E+05  5008   0.750E+03
DAV:   2    -0.625962056808E+05   -0.44405E+05   -0.42860E+05  5008   0.124E+03
DAV:   3    -0.677041793787E+05   -0.51080E+04   -0.46373E+04  5008   0.380E+02
DAV:   4    -0.684993887511E+05   -0.79521E+03   -0.69412E+03  5008   0.122E+02
DAV:   5    -0.390260243963E+05    0.29473E+05   -0.72780E+02  5008   0.563E+01
SDA:   6     0.306899013772E+05    0.69716E+05   -0.72780E+02  5008   0.107E+06 0.000E+00
CGA:   7     0.788344726902E+04   -0.22806E+05   -0.24361E+05  5008   0.834E+05-0.463E+05
CGA:   8     0.668358184463E+04   -0.11999E+04   -0.49210E+04  5008   0.317E+05 0.112E+05
CGA:   9     0.396122124523E+04   -0.27224E+04   -0.38891E+04  5008   0.193E+05-0.170E+04
CGA:  10     0.186756828688E+04   -0.20937E+04   -0.23952E+04  5008   0.628E+04 0.114E+04
CGA:  11     0.562871185467E+03   -0.13047E+04   -0.12961E+04  5008   0.278E+04 0.778E+03
CGA:  12    -0.178674254573E+03   -0.74155E+03   -0.72299E+03  5008   0.121E+04 0.259E+03
CGA:  13    -0.556575076318E+03   -0.37790E+03   -0.37249E+03  5008   0.604E+03 0.279E+02
CGA:  14    -0.746889484551E+03   -0.19031E+03   -0.20691E+03  5008   0.423E+03-0.912E+02
CGA:  15    -0.824756771960E+03   -0.77867E+02   -0.78295E+02  5008   0.227E+03-0.192E+02
CGA:  16    -0.867688851428E+03   -0.42932E+02   -0.42868E+02  5008   0.123E+03-0.588E+01
CGA:  17    -0.893611304787E+03   -0.25922E+02   -0.25971E+02  5008   0.735E+02-0.144E+01
CGA:  18    -0.909545656001E+03   -0.15934E+02   -0.15910E+02  5008   0.447E+02 0.124E+01
CGA:  19    -0.920244468789E+03   -0.10699E+02   -0.10709E+02  5008   0.318E+02-0.109E+00
CGA:  20    -0.926207291091E+03   -0.59628E+01   -0.58207E+01  5008   0.256E+02-0.216E+01
CGA:  21    -0.929205883212E+03   -0.29986E+01   -0.31861E+01  5008   0.257E+02-0.369E+00
CGA:  22    -0.931590830989E+03   -0.23849E+01   -0.21693E+01  5008   0.130E+02 0.114E+01
CGA:  23    -0.932735003814E+03   -0.11442E+01   -0.12508E+01  5008   0.147E+02-0.111E+01
CGA:  24    -0.934235065616E+03   -0.15001E+01   -0.15067E+01  5008   0.122E+02 0.103E+00
CGA:  25    -0.934907212088E+03   -0.67215E+00   -0.82222E+00  5008   0.598E+01-0.153E+01
CGA:  26    -0.935543988945E+03   -0.63678E+00   -0.64453E+00  5008   0.600E+01 0.524E-01
CGA:  27    -0.936216802428E+03   -0.67281E+00   -0.65719E+00  5008   0.545E+01 0.674E-01
CGA:  28    -0.936623828905E+03   -0.40703E+00   -0.31561E+00  5008   0.302E+01 0.120E+01
CGA:  29    -0.936937170277E+03   -0.31334E+00   -0.31820E+00  5008   0.490E+01-0.361E-01
CGA:  30    -0.937246147021E+03   -0.30898E+00   -0.28705E+00  5008   0.315E+01 0.238E+00
CGA:  31    -0.937403492720E+03   -0.15735E+00   -0.19455E+00  5008   0.272E+01-0.516E+00
CGA:  32    -0.937509968051E+03   -0.10648E+00   -0.89499E-01  5008   0.199E+01 0.327E+00
CGA:  33    -0.937630594471E+03   -0.12063E+00   -0.13450E+00  5008   0.240E+01-0.165E+00
CGA:  34    -0.937753420079E+03   -0.12283E+00   -0.12290E+00  5008   0.218E+01-0.147E-02
CGA:  35    -0.937838485000E+03   -0.85065E-01   -0.79458E-01  5008   0.959E+00 0.115E+00
CGA:  36    -0.937881042202E+03   -0.42557E-01   -0.44220E-01  5008   0.847E+00-0.330E-01
SDA:  37    -0.937946517815E+03   -0.65476E-01   -0.68146E-01  5008   0.146E+01-0.221E-02
CGA:  38    -0.938034508028E+03   -0.87990E-01   -0.92386E-01  5008   0.358E+00-0.398E-01
CGA:  39    -0.938200158306E+03   -0.16565E+00   -0.16387E+00  5008   0.255E+00 0.432E-02
CGA:  40    -0.938241165922E+03   -0.41008E-01   -0.40896E-01  5008   0.265E+00 0.398E-02
CGA:  41    -0.938273234077E+03   -0.32068E-01   -0.31848E-01  5008   0.667E-01-0.253E-02
CGA:  42    -0.938286842497E+03   -0.13608E-01   -0.13649E-01  5008   0.614E-01-0.488E-03
CGA:  43    -0.938295903799E+03   -0.90613E-02   -0.90541E-02  5008   0.209E-01 0.992E-03
CGA:  44    -0.938298405818E+03   -0.25020E-02   -0.25236E-02  5008   0.127E-01 0.271E-03
CGA:  45    -0.938300942620E+03   -0.25368E-02   -0.25285E-02  5008   0.997E-02 0.136E-03
CGA:  46    -0.938302895862E+03   -0.19532E-02   -0.19487E-02  5008   0.704E-02 0.850E-04
CGA:  47    -0.938303665660E+03   -0.76980E-03   -0.77464E-03  5008   0.325E-02 0.381E-04
CGA:  48    -0.938304927268E+03   -0.12616E-02   -0.12556E-02  5008   0.406E-02 0.226E-04
CGA:  49    -0.938305335568E+03   -0.40830E-03   -0.41121E-03  5008   0.173E-02 0.109E-04
CGA:  50    -0.938305945176E+03   -0.60961E-03   -0.61363E-03  5008   0.244E-02-0.229E-04
CGA:  51    -0.938306242779E+03   -0.29760E-03   -0.29904E-03  5008   0.123E-02 0.132E-04
CGA:  52    -0.938306583252E+03   -0.34047E-03   -0.34153E-03  5008   0.216E-02-0.777E-05
CGA:  53    -0.938306963521E+03   -0.38027E-03   -0.37983E-03  5008   0.139E-02 0.313E-04
CGA:  54    -0.938307504823E+03   -0.54130E-03   -0.56072E-03  5008   0.580E-02-0.926E-04
CGA:  55    -0.938308786986E+03   -0.12822E-02   -0.12802E-02  5008   0.621E-02 0.179E-04
CGA:  56    -0.938310486763E+03   -0.16998E-02   -0.22179E-02  5008   0.149E-01-0.300E-02
CGA:  57    -0.938310798231E+03   -0.31147E-03   -0.23221E-03  5008   0.168E-01 0.259E-02
CGA:  58    -0.938312263975E+03   -0.14657E-02   -0.11776E-02  5008   0.209E-01 0.399E-02
CGA:  59    -0.938313742341E+03   -0.14784E-02   -0.13201E-02  5008   0.236E-01 0.303E-02
CGA:  60    -0.938314898020E+03   -0.11557E-02   -0.12174E-02  5008   0.202E-01-0.154E-03
CGA:  61    -0.938315666859E+03   -0.76884E-03   -0.92438E-03  5008   0.164E-01-0.176E-02
CGA:  62    -0.938316391921E+03   -0.72506E-03   -0.85725E-03  5008   0.168E-01-0.891E-03
CGA:  63    -0.938317406241E+03   -0.10143E-02   -0.11201E-02  5008   0.159E-01-0.847E-04
CGA:  64    -0.938318459914E+03   -0.10537E-02   -0.11344E-02  5008   0.127E-01 0.105E-03
CGA:  65    -0.938319526886E+03   -0.10670E-02   -0.11231E-02  5008   0.126E-01 0.357E-03
CGA:  66    -0.938320773270E+03   -0.12464E-02   -0.12892E-02  5008   0.117E-01 0.476E-03
CGA:  67    -0.938322080178E+03   -0.13069E-02   -0.13386E-02  5008   0.113E-01 0.531E-03
SDA:  68    -0.938323610140E+03   -0.15300E-02   -0.15377E-02  5008   0.100E-01 0.588E-03
CGA:  69    -0.938329112145E+03   -0.55020E-02   -0.59091E-02  5008   0.346E-01-0.120E-02
CGA:  70    -0.938333994694E+03   -0.48825E-02   -0.48779E-02  5008   0.165E-01-0.153E-02
CGA:  71    -0.938339118449E+03   -0.51238E-02   -0.51859E-02  5008   0.228E-01-0.387E-03
CGA:  72    -0.938341374865E+03   -0.22564E-02   -0.20668E-02  5008   0.884E-02 0.913E-03
CGA:  73    -0.938342794657E+03   -0.14198E-02   -0.14195E-02  5008   0.876E-02-0.111E-04
CGA:  74    -0.938344312302E+03   -0.15176E-02   -0.15141E-02  5008   0.951E-02 0.250E-03
CGA:  75    -0.938345523337E+03   -0.12110E-02   -0.12106E-02  5008   0.676E-02 0.404E-05
CGA:  76    -0.938347041619E+03   -0.15183E-02   -0.15347E-02  5008   0.809E-02-0.206E-03
CGA:  77    -0.938347982497E+03   -0.94088E-03   -0.96534E-03  5008   0.650E-02 0.952E-04
CGA:  78    -0.938349596667E+03   -0.16142E-02   -0.15946E-02  5008   0.353E-02 0.188E-03
CGA:  79    -0.938350165145E+03   -0.56848E-03   -0.56859E-03  5008   0.420E-02 0.385E-05
CGA:  80    -0.938351275677E+03   -0.11105E-02   -0.10835E-02  5008   0.319E-02 0.246E-03
CGA:  81    -0.938351798125E+03   -0.52245E-03   -0.52285E-03  5008   0.248E-02 0.691E-05
CGA:  82    -0.938352389176E+03   -0.59105E-03   -0.60075E-03  5008   0.337E-02-0.112E-03
CGA:  83    -0.938352930681E+03   -0.54150E-03   -0.54231E-03  5008   0.192E-02 0.522E-04
CGA:  84    -0.938353441518E+03   -0.51084E-03   -0.50341E-03  5008   0.371E-02 0.729E-04
CGA:  85    -0.938354117772E+03   -0.67625E-03   -0.67478E-03  5008   0.211E-02-0.195E-03
CGA:  86    -0.938354981331E+03   -0.86356E-03   -0.93298E-03  5008   0.616E-02-0.310E-03
CGA:  87    -0.938355738749E+03   -0.75742E-03   -0.77612E-03  5008   0.517E-02 0.133E-03
CGA:  88    -0.938357207678E+03   -0.14689E-02   -0.14546E-02  5008   0.637E-02-0.449E-04
CGA:  89    -0.938358164632E+03   -0.95695E-03   -0.84822E-03  5008   0.963E-02-0.484E-04
CGA:  90    -0.938358990447E+03   -0.82582E-03   -0.72014E-03  5008   0.130E-01 0.101E-02
CGA:  91    -0.938360004328E+03   -0.10139E-02   -0.10214E-02  5008   0.127E-01 0.144E-03
CGA:  92    -0.938360841860E+03   -0.83753E-03   -0.95132E-03  5008   0.917E-02-0.753E-03
CGA:  93    -0.938361533964E+03   -0.69210E-03   -0.74914E-03  5008   0.683E-02-0.249E-03
CGA:  94    -0.938362281954E+03   -0.74799E-03   -0.75549E-03  5008   0.593E-02 0.268E-04
CGA:  95    -0.938362952837E+03   -0.67088E-03   -0.66798E-03  5008   0.495E-02 0.159E-04
CGA:  96    -0.938363571791E+03   -0.61895E-03   -0.61941E-03  5008   0.539E-02 0.130E-04
CGA:  97    -0.938364268366E+03   -0.69657E-03   -0.69964E-03  5008   0.520E-02 0.350E-04
CGA:  98    -0.938364840588E+03   -0.57222E-03   -0.57356E-03  5008   0.389E-02 0.153E-04
SDA:  99    -0.938365342039E+03   -0.50145E-03   -0.49991E-03  5008   0.427E-02-0.535E-05
CGA: 100    -0.938366523852E+03   -0.11818E-02   -0.11842E-02  5008   0.538E-02-0.189E-04
CGA: 101    -0.938367938624E+03   -0.14148E-02   -0.14287E-02  5008   0.368E-02-0.121E-03
CGA: 102    -0.938369140621E+03   -0.12020E-02   -0.12248E-02  5008   0.577E-02-0.135E-03
CGA: 103    -0.938370154617E+03   -0.10140E-02   -0.10157E-02  5008   0.266E-02-0.161E-03
CGA: 104    -0.938370895576E+03   -0.74096E-03   -0.74213E-03  5008   0.142E-02-0.951E-05
CGA: 105    -0.938371354360E+03   -0.45878E-03   -0.45768E-03  5008   0.136E-02 0.727E-05
CGA: 106    -0.938371546085E+03   -0.19173E-03   -0.19189E-03  5008   0.799E-03-0.489E-06
CGA: 107    -0.938371933960E+03   -0.38787E-03   -0.38825E-03  5008   0.484E-03-0.101E-05
CGA: 108    -0.938372091071E+03   -0.15711E-03   -0.15671E-03  5008   0.665E-03 0.283E-05
CGA: 109    -0.938372244213E+03   -0.15314E-03   -0.15299E-03  5008   0.397E-03 0.457E-05
CGA: 110    -0.938372366423E+03   -0.12221E-03   -0.12201E-03  5008   0.468E-03 0.185E-05
CGA: 111    -0.938372452624E+03   -0.86200E-04   -0.86270E-04  5008   0.287E-03 0.124E-05
CGA: 112    -0.938372557869E+03   -0.10525E-03   -0.10510E-03  5008   0.174E-03 0.934E-06
CGA: 113    -0.938372639965E+03   -0.82096E-04   -0.82398E-04  5008   0.148E-03-0.127E-05
CGA: 114    -0.938372679076E+03   -0.39111E-04   -0.39118E-04  5008   0.176E-03-0.505E-07
CGA: 115    -0.938372713660E+03   -0.34584E-04   -0.34560E-04  5008   0.923E-04-0.132E-06
CGA: 116    -0.938372740374E+03   -0.26714E-04   -0.26735E-04  5008   0.872E-04-0.305E-06
CGA: 117    -0.938372757762E+03   -0.17388E-04   -0.17382E-04  5008   0.503E-04-0.138E-06
CGA: 118    -0.938372777095E+03   -0.19334E-04   -0.19363E-04  5008   0.295E-04-0.196E-06
CGA: 119    -0.938372790661E+03   -0.13565E-04   -0.13594E-04  5008   0.254E-04-0.129E-06
CGA: 120    -0.938372796759E+03   -0.60979E-05   -0.60979E-05  5008   0.310E-04-0.267E-07
   1 F= -.93837280E+03 E0= -.93837279E+03  d E =-.183746E-04
