<?xml version="1.0" encoding="ISO-8859-1"?>
<modeling>
 <generator>
  <i name="program" type="string">vasp </i>
  <i name="version" type="string">6.4.2  </i>
  <i name="subversion" type="string">20Jul23 (build Nov 12 2023 22:16:35) complex                          parallel </i>
  <i name="platform" type="string">LinuxNV </i>
  <i name="date" type="string">2025 03 15 </i>
  <i name="time" type="string">16:25:48 </i>
 </generator>
 <incar>
  <i type="int" name="ISTART">     0</i>
  <i type="string" name="PREC">Normal</i>
  <i type="string" name="ALGO">All</i>
  <i type="int" name="ISPIN">     1</i>
  <i type="int" name="ICHARG">     0</i>
  <i type="int" name="NELM">   500</i>
  <i type="int" name="IBRION">    -1</i>
  <i name="EDIFF">      0.00001000</i>
  <i name="EDIFFG">     -0.00500000</i>
  <i type="int" name="NSW">     0</i>
  <i type="int" name="ISIF">     2</i>
  <i name="ENCUT">    450.00000000</i>
  <i name="NELECT">   1044.00000000</i>
  <i type="string" name="LREAL">Auto</i>
  <i type="logical" name="LPLANE"> T  </i>
  <i name="TIME">      0.40000000</i>
  <i type="int" name="ISMEAR">     0</i>
  <i name="SIGMA">      0.05000000</i>
  <i type="logical" name="LWAVE"> T  </i>
  <i type="logical" name="LCHARG"> T  </i>
  <i name="HFSCREEN">      0.20000000</i>
  <i type="logical" name="LHFCALC"> T  </i>
  <i type="int" name="LMAXFOCK">     4</i>
  <i name="AEXX">      0.32000000</i>
  <i type="string" name="PRECFOCK">Fast</i>
 </incar>
 <primitive_cell>
  <structure name="primitive_cell" >
   <crystal>
    <varray name="basis" >
     <v>       0.00000000      12.28047342       0.00000000 </v>
     <v>       9.14270205       0.00000000       0.00000000 </v>
     <v>       0.00000000      -2.76826177     -11.30069772 </v>
    </varray>
    <i name="volume">   1268.80515525 </i>
    <varray name="rec_basis" >
     <v>       0.00000000       0.08143009      -0.01994742 </v>
     <v>       0.10937686      -0.00000000       0.00000000 </v>
     <v>       0.00000000       0.00000000      -0.08849011 </v>
    </varray>
   </crystal>
   <varray name="positions" >
    <v>       0.66106064       0.00014496       0.15792727 </v>
    <v>       0.65780911       0.00033104       0.65530227 </v>
    <v>       0.66139285       0.33333333       0.15835032 </v>
    <v>       0.65753506       0.33333333       0.65474435 </v>
    <v>       0.66106064       0.66652171       0.15792727 </v>
    <v>       0.65780911       0.66633563       0.65530227 </v>
    <v>       0.84400221       0.16720356       0.34430784 </v>
    <v>       0.84016243       0.16728388       0.84263428 </v>
    <v>       0.84400221       0.49946311       0.34430784 </v>
    <v>       0.84016243       0.49938278       0.84263428 </v>
    <v>       0.84274028       0.83333333       0.34419898 </v>
    <v>       0.83970340       0.83333333       0.84234858 </v>
    <v>       0.58917661       0.17049772       0.39594255 </v>
    <v>       0.59198990       0.16653105       0.89804501 </v>
    <v>       0.58917661       0.49616894       0.39594255 </v>
    <v>       0.59198990       0.50013562       0.89804501 </v>
    <v>       0.59019907       0.83333333       0.39708674 </v>
    <v>       0.59282826       0.83333333       0.89886798 </v>
    <v>       0.90898537       0.00036336       0.10139402 </v>
    <v>       0.90931858       0.00021994       0.60284234 </v>
    <v>       0.91165537       0.33333333       0.10276699 </v>
    <v>       0.90981968       0.33333333       0.60264193 </v>
    <v>       0.90898537       0.66630331       0.10139402 </v>
    <v>       0.90931858       0.66644673       0.60284234 </v>
    <v>       0.16334554       0.16983287       0.16103173 </v>
    <v>       0.15997964       0.16691500       0.65799252 </v>
    <v>       0.16334554       0.49683379       0.16103173 </v>
    <v>       0.15997964       0.49975167       0.65799252 </v>
    <v>       0.15849881       0.83333333       0.15754770 </v>
    <v>       0.15946400       0.83333333       0.65981580 </v>
    <v>       0.34017290       0.00465905       0.34095672 </v>
    <v>       0.34266917       0.00021753       0.84410653 </v>
    <v>       0.34207606       0.33333333       0.84386168 </v>
    <v>       0.34017290       0.66200762       0.34095672 </v>
    <v>       0.34266917       0.66644913       0.84410653 </v>
    <v>       0.09259965       0.00061433       0.39799703 </v>
    <v>       0.08973131       0.00014783       0.89792252 </v>
    <v>       0.09984758       0.33333333       0.39707825 </v>
    <v>       0.09095286       0.33333333       0.89846679 </v>
    <v>       0.09259965       0.66605233       0.39799703 </v>
    <v>       0.08973131       0.66651884       0.89792252 </v>
    <v>       0.40973884       0.16576507       0.10515408 </v>
    <v>       0.40534914       0.16628162       0.59757983 </v>
    <v>       0.40973884       0.50090160       0.10515408 </v>
    <v>       0.40534914       0.50038505       0.59757983 </v>
    <v>       0.41011897       0.83333333       0.10416689 </v>
    <v>       0.40842110       0.83333333       0.60011924 </v>
    <v>       0.99666796       0.16557408       0.12369633 </v>
    <v>       0.99694281       0.16656207       0.62909754 </v>
    <v>       0.99666796       0.50109259       0.12369633 </v>
    <v>       0.99694281       0.50010460       0.62909754 </v>
    <v>       0.99456713       0.83333333       0.12523552 </v>
    <v>       0.99633545       0.83333333       0.62964302 </v>
    <v>       0.50428018       0.00100172       0.37364341 </v>
    <v>       0.50534893       0.99957322       0.87327762 </v>
    <v>       0.50130842       0.33333333       0.37198046 </v>
    <v>       0.50498153       0.33333333       0.87240744 </v>
    <v>       0.50428018       0.66566495       0.37364341 </v>
    <v>       0.50534893       0.66709345       0.87327762 </v>
    <v>       0.67468159       0.16630265       0.28080924 </v>
    <v>       0.67187307       0.16773374       0.77960248 </v>
    <v>       0.67468159       0.50036402       0.28080924 </v>
    <v>       0.67187307       0.49893293       0.77960248 </v>
    <v>       0.67422018       0.83333333       0.28159523 </v>
    <v>       0.67222610       0.83333333       0.77987259 </v>
    <v>       0.82921678       0.00039633       0.22026208 </v>
    <v>       0.82648211       0.00039614       0.71878378 </v>
    <v>       0.82977768       0.33333333       0.22005732 </v>
    <v>       0.82673255       0.33333333       0.71862395 </v>
    <v>       0.82921678       0.66627034       0.22026208 </v>
    <v>       0.82648211       0.66627053       0.71878378 </v>
    <v>       0.83360436       0.00026996       0.44628990 </v>
    <v>       0.83074181       0.00030946       0.94469815 </v>
    <v>       0.83269271       0.33333333       0.44642629 </v>
    <v>       0.83204595       0.33333333       0.94588556 </v>
    <v>       0.83360436       0.66639671       0.44628990 </v>
    <v>       0.83074181       0.66635720       0.94469815 </v>
    <v>       0.66897164       0.16725090       0.05456597 </v>
    <v>       0.66755995       0.16651434       0.55353014 </v>
    <v>       0.66897164       0.49941577       0.05456597 </v>
    <v>       0.66755995       0.50015233       0.55353014 </v>
    <v>       0.67112043       0.83333333       0.05502043 </v>
    <v>       0.66769858       0.83333333       0.55379414 </v>
    <v>       0.49936336       0.99924116       0.12661441 </v>
    <v>       0.49614328       0.00067252       0.62814147 </v>
    <v>       0.49775941       0.33333333       0.13127217 </v>
    <v>       0.49334760       0.33333333       0.62153965 </v>
    <v>       0.49936336       0.66742551       0.12661441 </v>
    <v>       0.49614328       0.66599415       0.62814147 </v>
    <v>       0.00626994       0.16824421       0.37583598 </v>
    <v>       0.00255270       0.16712700       0.87092667 </v>
    <v>       0.00626994       0.49842245       0.37583598 </v>
    <v>       0.00255270       0.49953967       0.87092667 </v>
    <v>       0.00452825       0.83333333       0.37506687 </v>
    <v>       0.00193660       0.83333333       0.87081596 </v>
    <v>       0.16898915       0.99654573       0.27838235 </v>
    <v>       0.17342622       0.00003045       0.78248843 </v>
    <v>       0.16128695       0.33333333       0.26951784 </v>
    <v>       0.17331414       0.33333333       0.78190944 </v>
    <v>       0.16898915       0.67012094       0.27838235 </v>
    <v>       0.17342622       0.66663621       0.78248843 </v>
    <v>       0.32491306       0.14767608       0.21324985 </v>
    <v>       0.32848512       0.16675046       0.72056413 </v>
    <v>       0.32491306       0.51899059       0.21324985 </v>
    <v>       0.32848512       0.49991621       0.72056413 </v>
    <v>       0.32776775       0.83333333       0.21921249 </v>
    <v>       0.32827741       0.83333333       0.71972782 </v>
    <v>       0.31382624       0.14768110       0.45091537 </v>
    <v>       0.33620986       0.16689767       0.94669934 </v>
    <v>       0.31382624       0.51898557       0.45091537 </v>
    <v>       0.33620986       0.49976900       0.94669934 </v>
    <v>       0.33252991       0.83333333       0.44378357 </v>
    <v>       0.33459420       0.83333333       0.94652481 </v>
    <v>       0.16477637       0.99945294       0.05349721 </v>
    <v>       0.16547826       0.99869723       0.55655381 </v>
    <v>       0.17103634       0.33333333       0.05228316 </v>
    <v>       0.16770798       0.33333333       0.55658284 </v>
    <v>       0.16477637       0.66721373       0.05349721 </v>
    <v>       0.16547826       0.66796944       0.55655381 </v>
   </varray>
  </structure>
  <varray name="primitive_index" >
   <v type="int" >        1 </v>
   <v type="int" >        2 </v>
   <v type="int" >        3 </v>
   <v type="int" >        4 </v>
   <v type="int" >        5 </v>
   <v type="int" >        6 </v>
   <v type="int" >        7 </v>
   <v type="int" >        8 </v>
   <v type="int" >        9 </v>
   <v type="int" >       10 </v>
   <v type="int" >       11 </v>
   <v type="int" >       12 </v>
   <v type="int" >       13 </v>
   <v type="int" >       14 </v>
   <v type="int" >       15 </v>
   <v type="int" >       16 </v>
   <v type="int" >       17 </v>
   <v type="int" >       18 </v>
   <v type="int" >       19 </v>
   <v type="int" >       20 </v>
   <v type="int" >       21 </v>
   <v type="int" >       22 </v>
   <v type="int" >       23 </v>
   <v type="int" >       24 </v>
   <v type="int" >       25 </v>
   <v type="int" >       26 </v>
   <v type="int" >       27 </v>
   <v type="int" >       28 </v>
   <v type="int" >       29 </v>
   <v type="int" >       30 </v>
   <v type="int" >       31 </v>
   <v type="int" >       32 </v>
   <v type="int" >       33 </v>
   <v type="int" >       34 </v>
   <v type="int" >       35 </v>
   <v type="int" >       36 </v>
   <v type="int" >       37 </v>
   <v type="int" >       38 </v>
   <v type="int" >       39 </v>
   <v type="int" >       40 </v>
   <v type="int" >       41 </v>
   <v type="int" >       42 </v>
   <v type="int" >       43 </v>
   <v type="int" >       44 </v>
   <v type="int" >       45 </v>
   <v type="int" >       46 </v>
   <v type="int" >       47 </v>
   <v type="int" >       48 </v>
   <v type="int" >       49 </v>
   <v type="int" >       50 </v>
   <v type="int" >       51 </v>
   <v type="int" >       52 </v>
   <v type="int" >       53 </v>
   <v type="int" >       54 </v>
   <v type="int" >       55 </v>
   <v type="int" >       56 </v>
   <v type="int" >       57 </v>
   <v type="int" >       58 </v>
   <v type="int" >       59 </v>
   <v type="int" >       60 </v>
   <v type="int" >       61 </v>
   <v type="int" >       62 </v>
   <v type="int" >       63 </v>
   <v type="int" >       64 </v>
   <v type="int" >       65 </v>
   <v type="int" >       66 </v>
   <v type="int" >       67 </v>
   <v type="int" >       68 </v>
   <v type="int" >       69 </v>
   <v type="int" >       70 </v>
   <v type="int" >       71 </v>
   <v type="int" >       72 </v>
   <v type="int" >       73 </v>
   <v type="int" >       74 </v>
   <v type="int" >       75 </v>
   <v type="int" >       76 </v>
   <v type="int" >       77 </v>
   <v type="int" >       78 </v>
   <v type="int" >       79 </v>
   <v type="int" >       80 </v>
   <v type="int" >       81 </v>
   <v type="int" >       82 </v>
   <v type="int" >       83 </v>
   <v type="int" >       84 </v>
   <v type="int" >       85 </v>
   <v type="int" >       86 </v>
   <v type="int" >       87 </v>
   <v type="int" >       88 </v>
   <v type="int" >       89 </v>
   <v type="int" >       90 </v>
   <v type="int" >       91 </v>
   <v type="int" >       92 </v>
   <v type="int" >       93 </v>
   <v type="int" >       94 </v>
   <v type="int" >       95 </v>
   <v type="int" >       96 </v>
   <v type="int" >       97 </v>
   <v type="int" >       98 </v>
   <v type="int" >       99 </v>
   <v type="int" >      100 </v>
   <v type="int" >      101 </v>
   <v type="int" >      102 </v>
   <v type="int" >      103 </v>
   <v type="int" >      104 </v>
   <v type="int" >      105 </v>
   <v type="int" >      106 </v>
   <v type="int" >      107 </v>
   <v type="int" >      108 </v>
   <v type="int" >      109 </v>
   <v type="int" >      110 </v>
   <v type="int" >      111 </v>
   <v type="int" >      112 </v>
   <v type="int" >      113 </v>
   <v type="int" >      114 </v>
   <v type="int" >      115 </v>
   <v type="int" >      116 </v>
   <v type="int" >      117 </v>
   <v type="int" >      118 </v>
   <v type="int" >      119 </v>
  </varray>
 </primitive_cell>
 <kpoints>
  <generation param="Gamma">
   <v type="int" name="divisions">       2        2        2 </v>
   <v name="usershift">      0.00000000       0.00000000       0.00000000 </v>
   <v name="genvec1">      0.50000000       0.00000000       0.00000000 </v>
   <v name="genvec2">      0.00000000       0.50000000       0.00000000 </v>
   <v name="genvec3">      0.00000000       0.00000000       0.50000000 </v>
   <v name="shift">      0.00000000       0.00000000       0.00000000 </v>
  </generation>
  <varray name="kpointlist" >
   <v>       0.00000000       0.00000000       0.00000000 </v>
   <v>       0.50000000       0.00000000       0.00000000 </v>
   <v>       0.00000000       0.50000000       0.00000000 </v>
   <v>       0.50000000       0.50000000       0.00000000 </v>
   <v>       0.00000000       0.00000000       0.50000000 </v>
   <v>       0.50000000       0.00000000       0.50000000 </v>
   <v>       0.00000000       0.50000000       0.50000000 </v>
   <v>       0.50000000       0.50000000       0.50000000 </v>
  </varray>
  <varray name="weights" >
   <v>       0.12500000 </v>
   <v>       0.12500000 </v>
   <v>       0.12500000 </v>
   <v>       0.12500000 </v>
   <v>       0.12500000 </v>
   <v>       0.12500000 </v>
   <v>       0.12500000 </v>
   <v>       0.12500000 </v>
  </varray>
 </kpoints>
 <parameters>
  <separator name="general" >
   <i type="string" name="SYSTEM">unknown system</i>
   <i type="logical" name="LCOMPAT"> F  </i>
  </separator>
  <separator name="electronic" >
   <i type="string" name="PREC">normal</i>
   <i name="ENMAX">    450.00000000</i>
   <i name="ENAUG">    605.39200000</i>
   <i name="EDIFF">      0.00001000</i>
   <i type="int" name="IALGO">    58</i>
   <i type="int" name="IWAVPR">    10</i>
   <i type="int" name="NBANDS">   626</i>
   <i type="int" name="NBANDSLOW">    -1</i>
   <i type="int" name="NBANDSHIGH">    -1</i>
   <i name="NELECT">   1044.00000000</i>
   <i type="int" name="TURBO">     0</i>
   <i type="int" name="IRESTART">     0</i>
   <i type="int" name="NREBOOT">     0</i>
   <i type="int" name="NMIN">     0</i>
   <i name="EREF">      0.00000000</i>
   <separator name="electronic smearing" >
    <i type="int" name="ISMEAR">     0</i>
    <i name="SIGMA">      0.05000000</i>
    <i name="KSPACING">      0.50000000</i>
    <i type="logical" name="KGAMMA"> T  </i>
    <i type="logical" name="KBLOWUP"> T  </i>
   </separator>
   <separator name="electronic projectors" >
    <i type="logical" name="LREAL"> T  </i>
    <v name="ROPT">     -0.00050000     -0.00050000</v>
    <i type="int" name="LMAXPAW">  -100</i>
    <i type="int" name="LMAXMIX">     2</i>
    <i type="logical" name="NLSPLINE"> F  </i>
   </separator>
   <separator name="electronic startup" >
    <i type="int" name="ISTART">     0</i>
    <i type="int" name="ICHARG">     0</i>
    <i type="int" name="INIWAV">     1</i>
   </separator>
   <separator name="electronic spin" >
    <i type="int" name="ISPIN">     1</i>
    <i type="logical" name="LNONCOLLINEAR"> F  </i>
    <v name="MAGMOM">      1.00000000      1.00000000      1.00000000      1.00000000      1.00000000      1.00000000      1.00000000      1.00000000      1.00000000      1.00000000      1.00000000      1.00000000      1.00000000      1.00000000      1.00000000      1.00000000      1.00000000      1.00000000      1.00000000      1.00000000
      1.00000000      1.00000000      1.00000000      1.00000000      1.00000000      1.00000000      1.00000000      1.00000000      1.00000000      1.00000000      1.00000000      1.00000000      1.00000000      1.00000000      1.00000000      1.00000000      1.00000000      1.00000000      1.00000000      1.00000000
      1.00000000      1.00000000      1.00000000      1.00000000      1.00000000      1.00000000      1.00000000      1.00000000      1.00000000      1.00000000      1.00000000      1.00000000      1.00000000      1.00000000      1.00000000      1.00000000      1.00000000      1.00000000      1.00000000      1.00000000
      1.00000000      1.00000000      1.00000000      1.00000000      1.00000000      1.00000000      1.00000000      1.00000000      1.00000000      1.00000000      1.00000000      1.00000000      1.00000000      1.00000000      1.00000000      1.00000000      1.00000000      1.00000000      1.00000000      1.00000000
      1.00000000      1.00000000      1.00000000      1.00000000      1.00000000      1.00000000      1.00000000      1.00000000      1.00000000      1.00000000      1.00000000      1.00000000      1.00000000      1.00000000      1.00000000      1.00000000      1.00000000      1.00000000      1.00000000      1.00000000
      1.00000000      1.00000000      1.00000000      1.00000000      1.00000000      1.00000000      1.00000000      1.00000000      1.00000000      1.00000000      1.00000000      1.00000000      1.00000000      1.00000000      1.00000000      1.00000000      1.00000000      1.00000000      1.00000000</v>
    <i name="NUPDOWN">     -1.00000000</i>
    <i type="logical" name="LSORBIT"> F  </i>
    <v name="SAXIS">      0.00000000      0.00000000      1.00000000</v>
    <i type="logical" name="LSPIRAL"> F  </i>
    <v name="QSPIRAL">      0.00000000      0.00000000      0.00000000</v>
    <i type="logical" name="LZEROZ"> F  </i>
   </separator>
   <separator name="electronic exchange-correlation" >
    <i type="logical" name="LASPH"> F  </i>
    <i type="logical" name="LMETAGGA"> F  </i>
   </separator>
   <separator name="electronic convergence" >
    <i type="int" name="NELM">   500</i>
    <i type="int" name="NELMDL">    -5</i>
    <i type="int" name="NELMIN">     2</i>
    <i name="ENINI">    450.00000000</i>
    <separator name="electronic convergence detail" >
     <i type="logical" name="LDIAG"> T  </i>
     <i type="logical" name="LSUBROT"> F  </i>
     <i name="WEIMIN">      0.00000000</i>
     <i name="EBREAK">      0.00000000</i>
     <i name="DEPER">      0.30000000</i>
     <i type="int" name="NRMM">     4</i>
     <i name="TIME">      0.40000000</i>
    </separator>
   </separator>
   <separator name="electronic mixer" >
    <i name="AMIX">      0.40000000</i>
    <i name="BMIX">      1.00000000</i>
    <i name="AMIN">      0.10000000</i>
    <i name="AMIX_MAG">      1.60000000</i>
    <i name="BMIX_MAG">      1.00000000</i>
    <separator name="electronic mixer details" >
     <i type="int" name="IMIX">     4</i>
     <i type="logical" name="MIXFIRST"> F  </i>
     <i type="int" name="MAXMIX">   -45</i>
     <i name="WC">    100.00000000</i>
     <i type="int" name="INIMIX">     1</i>
     <i type="int" name="MIXPRE">     1</i>
     <i type="int" name="MREMOVE">     5</i>
    </separator>
   </separator>
   <separator name="electronic dipolcorrection" >
    <i type="logical" name="LDIPOL"> F  </i>
    <i type="logical" name="LMONO"> F  </i>
    <i type="int" name="IDIPOL">     0</i>
    <i name="EPSILON">      1.00000000</i>
    <v name="DIPOL">   -100.00000000   -100.00000000   -100.00000000</v>
    <i name="EFIELD">      0.00000000</i>
   </separator>
  </separator>
  <separator name="grids" >
   <i type="int" name="NGX">    64</i>
   <i type="int" name="NGY">    48</i>
   <i type="int" name="NGZ">    60</i>
   <i type="int" name="NGXF">   128</i>
   <i type="int" name="NGYF">    96</i>
   <i type="int" name="NGZF">   120</i>
   <i type="logical" name="ADDGRID"> F  </i>
  </separator>
  <separator name="ionic" >
   <i type="int" name="NSW">     0</i>
   <i type="int" name="IBRION">    -1</i>
   <i type="int" name="MDALGO">     0</i>
   <i type="int" name="ISIF">     2</i>
   <i name="PSTRESS">      0.00000000</i>
   <i name="EDIFFG">     -0.00500000</i>
   <i type="int" name="NFREE">     0</i>
   <i name="POTIM">      0.50000000</i>
   <i name="SMASS">     -3.00000000</i>
   <i name="SCALEE">      1.00000000</i>
  </separator>
  <separator name="ionic md" >
   <i name="TEBEG">      0.00010000</i>
   <i name="TEEND">      0.00010000</i>
   <i type="int" name="NBLOCK">     1</i>
   <i type="int" name="KBLOCK">     1</i>
   <i type="int" name="NPACO">   256</i>
   <i name="APACO">     10.00000000</i>
  </separator>
  <separator name="symmetry" >
   <i type="int" name="ISYM">     3</i>
   <i name="SYMPREC">      0.00001000</i>
  </separator>
  <separator name="dos" >
   <i type="int" name="LORBIT">     0</i>
   <v name="RWIGS">     -1.00000000     -1.00000000</v>
   <i type="int" name="NEDOS">   301</i>
   <i name="EMIN">     10.00000000</i>
   <i name="EMAX">    -10.00000000</i>
   <i name="EFERMI">      0.00000000</i>
  </separator>
  <separator name="writing" >
   <i type="int" name="NWRITE">     2</i>
   <i type="logical" name="LWAVE"> T  </i>
   <i type="logical" name="LDOWNSAMPLE"> F  </i>
   <i type="logical" name="LCHARG"> T  </i>
   <i type="logical" name="LPARD"> F  </i>
   <i type="logical" name="LVTOT"> F  </i>
   <i type="logical" name="LVHAR"> F  </i>
   <i type="logical" name="LELF"> F  </i>
   <i type="logical" name="LOPTICS"> F  </i>
   <v name="STM">      0.00000000      0.00000000      0.00000000      0.00000000      0.00000000      0.00000000      0.00000000</v>
  </separator>
  <separator name="performance" >
   <i type="int" name="NPAR">     1</i>
   <i type="int" name="NSIM">     4</i>
   <i type="int" name="NBLK">    -1</i>
   <i type="logical" name="LPLANE"> T  </i>
   <i type="logical" name="LSCALAPACK"> T  </i>
   <i type="logical" name="LSCAAWARE"> F  </i>
   <i type="logical" name="LSCALU"> F  </i>
   <i type="logical" name="LASYNC"> F  </i>
   <i type="logical" name="LORBITALREAL"> F  </i>
  </separator>
  <separator name="miscellaneous" >
   <i type="int" name="IDIOT">     3</i>
   <i type="int" name="PHON_NSTRUCT">    -1</i>
   <i type="logical" name="LMUSIC"> F  </i>
   <v name="POMASS">     69.72300000     16.00000000</v>
   <v name="DARWINR">      0.00000000      0.00000000</v>
   <v name="DARWINV">      1.00000000      1.00000000</v>
   <i type="logical" name="LCORR"> T  </i>
  </separator>
  <i type="logical" name="GGA_COMPAT"> T  </i>
  <i type="logical" name="LBERRY"> F  </i>
  <i type="int" name="ICORELEVEL">     0</i>
  <i type="logical" name="LDAU"> F  </i>
  <i type="int" name="I_CONSTRAINED_M">     0</i>
  <separator name="electronic exchange-correlation" >
   <i type="string" name="GGA">--</i>
   <i type="int" name="VOSKOWN">     0</i>
   <i type="logical" name="LHFCALC"> T  </i>
   <i type="string" name="PRECFOCK">fast</i>
   <i type="logical" name="LSYMGRAD"> F  </i>
   <i type="logical" name="LHFONE"> F  </i>
   <i type="logical" name="LRHFCALC"> F  </i>
   <i type="logical" name="LTHOMAS"> F  </i>
   <i type="logical" name="LMODELHF"> F  </i>
   <i type="logical" name="LFOCKACE"> T  </i>
   <i name="ENCUT4O">     -1.00000000</i>
   <i type="int" name="EXXOEP">     0</i>
   <i type="int" name="FOURORBIT">     0</i>
   <i name="AEXX">      0.32000000</i>
   <i name="HFALPHA">     -1.00000000</i>
   <i name="MCALPHA">      0.00000000</i>
   <i name="ALDAX">      0.68000000</i>
   <i name="AGGAX">      0.68000000</i>
   <i name="ALDAC">      1.00000000</i>
   <i name="AGGAC">      1.00000000</i>
   <i type="int" name="NKREDX">     1</i>
   <i type="int" name="NKREDY">     1</i>
   <i type="int" name="NKREDZ">     1</i>
   <i type="logical" name="SHIFTRED"> F  </i>
   <i type="logical" name="ODDONLY"> F  </i>
   <i type="logical" name="EVENONLY"> F  </i>
   <i type="int" name="LMAXFOCK">     4</i>
   <i type="int" name="NMAXFOCKAE">     1</i>
   <i type="logical" name="LFOCKAEDFT"> F  </i>
   <i name="HFSCREEN">      0.20000000</i>
   <i name="HFSCREENC">      0.20000000</i>
   <i type="int" name="NBANDSGWLOW">     1</i>
  </separator>
  <separator name="vdW DFT" >
   <i type="logical" name="LUSE_VDW"> F  </i>
   <i type="int" name="IVDW_NL">     1</i>
   <i type="logical" name="LSPIN_VDW"> F  </i>
   <i name="Zab_VDW">     -0.84910000</i>
   <i name="PARAM1">      0.12340000</i>
   <i name="PARAM2">      1.00000000</i>
   <i name="PARAM3">      0.00000000</i>
  </separator>
  <separator name="model GW" >
   <i type="int" name="MODEL_GW">     0</i>
   <i name="MODEL_EPS0">      6.39733692</i>
   <i name="MODEL_ALPHA">      1.00000000</i>
  </separator>
  <separator name="linear response parameters" >
   <i type="logical" name="LEPSILON"> F  </i>
   <i type="logical" name="LRPA"> F  </i>
   <i type="logical" name="LNABLA"> F  </i>
   <i type="logical" name="LVEL"> F  </i>
   <i name="CSHIFT">      0.10000000</i>
   <i name="OMEGAMAX">     -1.00000000</i>
   <i name="DEG_THRESHOLD">      0.00200000</i>
   <i name="RTIME">     -0.10000000</i>
   <i name="WPLASMAI">      0.00000000</i>
   <v name="DFIELD">      0.00000000      0.00000000      0.00000000</v>
   <v name="WPLASMA">      0.00000000      0.00000000      0.00000000      0.00000000      0.00000000      0.00000000      0.00000000      0.00000000      0.00000000</v>
  </separator>
  <separator name="orbital magnetization" >
   <i type="logical" name="NUCIND"> F  </i>
   <v name="MAGPOS">      0.00000000      0.00000000      0.00000000</v>
   <i type="logical" name="LNICSALL"> T  </i>
   <i type="logical" name="ORBITALMAG"> F  </i>
   <i type="logical" name="LMAGBLOCH"> F  </i>
   <i type="logical" name="LCHIMAG"> F  </i>
   <i type="logical" name="LGAUGE"> T  </i>
   <i type="int" name="MAGATOM">     0</i>
   <v name="MAGDIPOL">      0.00000000      0.00000000      0.00000000</v>
   <v name="AVECCONST">      0.00000000      0.00000000      0.00000000</v>
  </separator>
  <separator name="response functions" >
   <i type="logical" name="LALL_IN_ONE"> F  </i>
   <i type="int" name="IALL_IN_ONE">    -1</i>
   <i type="int" name="NBANDS_WAVE">    -1</i>
   <i type="logical" name="LFINITE_TEMPERATURE"> F  </i>
   <i type="logical" name="LADDER"> F  </i>
   <i type="logical" name="LRPAFORCE"> F  </i>
   <i type="logical" name="LFXC"> F  </i>
   <i type="logical" name="LHARTREE"> T  </i>
   <i type="int" name="IBSE">     0</i>
   <v type="int" name="KPOINT">    -1     0     0     0</v>
   <i type="logical" name="LTCTC"> F  </i>
   <i type="logical" name="LTCTE"> F  </i>
   <i type="logical" name="LTETE"> F  </i>
   <i type="logical" name="LTRIPLET"> F  </i>
   <i type="logical" name="LFXCEPS"> F  </i>
   <i type="logical" name="LFXHEG"> F  </i>
   <i type="int" name="NATURALO">     2</i>
   <i type="logical" name="LHOLEGF"> F  </i>
   <i type="logical" name="L2ORDER"> F  </i>
   <i type="logical" name="LDMP1"> F  </i>
   <i type="logical" name="LMP2LT"> F  </i>
   <i type="logical" name="LSMP2LT"> F  </i>
   <i type="logical" name="LGWLF"> F  </i>
   <i name="ENCUTGW">     -1.60000002</i>
   <i name="ENCUTGWSOFT">     -1.60000002</i>
   <i name="ENCUTLF">     -1.00000000</i>
   <i type="logical" name="LESF_SPLINES"> F  </i>
   <i type="int" name="LMAXMP2">    -1</i>
   <i name="SCISSOR">      0.00000000</i>
   <i type="int" name="NOMEGA">     0</i>
   <i type="int" name="NOMEGAR">     0</i>
   <i type="int" name="NBANDSGW">    -1</i>
   <i type="int" name="NBANDSO">    -1</i>
   <i type="int" name="NBANDSV">    -1</i>
   <i type="int" name="NELMGW">     1</i>
   <i type="int" name="NELMHF">     1</i>
   <i type="int" name="DIM">     3</i>
   <i type="int" name="IESPILON">     4</i>
   <i type="int" name="ANTIRES">     0</i>
   <i name="OMEGAMAX">    -30.00000000</i>
   <i name="OMEGAMIN">    -30.00000000</i>
   <i name="OMEGATL">   -200.00000000</i>
   <i type="int" name="OMEGAGRID">     0</i>
   <i name="CSHIFT">     -0.10000000</i>
   <i type="logical" name="LSELFENERGY"> F  </i>
   <i type="logical" name="LSPECTRAL"> F  </i>
   <i type="logical" name="LSPECTRALGW"> F  </i>
   <i type="logical" name="LSINGLES"> F  </i>
   <i type="logical" name="LFERMIGW"> F  </i>
   <i type="logical" name="ODDONLYGW"> F  </i>
   <i type="logical" name="EVENONLYGW"> F  </i>
   <i type="int" name="NKREDLFX">     1</i>
   <i type="int" name="NKREDLFY">     1</i>
   <i type="int" name="NKREDLFZ">     1</i>
   <i type="int" name="MAXMEM">  2800</i>
   <i type="int" name="TELESCOPE">     0</i>
   <i type="int" name="NTAUPAR">    -1</i>
   <i type="int" name="NOMEGAPAR">    -1</i>
   <i name="DAMP_NEWTON">      0.80000001</i>
   <i name="LAMBDA">      1.00000000</i>
  </separator>
  <separator name="External order field" >
   <i name="OFIELD_KAPPA">      0.00000000</i>
   <v name="OFIELD_K">      0.00000000      0.00000000      0.00000000</v>
   <i name="OFIELD_Q6_NEAR">      0.00000000</i>
   <i name="OFIELD_Q6_FAR">      0.00000000</i>
   <i name="OFIELD_A">      0.00000000</i>
  </separator>
  <separator name="optional k-points parameters" >
   <i type="int" name="KPOINTS_OPT_MODE">     1</i>
   <i type="logical" name="LKPOINTS_OPT"> F  </i>
  </separator>
 </parameters>
 <atominfo>
  <atoms>     119 </atoms>
  <types>       2 </types>
  <array name="atoms" >
   <dimension dim="1">ion</dimension>
   <field type="string">element</field>
   <field type="int">atomtype</field>
   <set>
    <rc><c>Ga</c><c>   1</c></rc>
    <rc><c>Ga</c><c>   1</c></rc>
    <rc><c>Ga</c><c>   1</c></rc>
    <rc><c>Ga</c><c>   1</c></rc>
    <rc><c>Ga</c><c>   1</c></rc>
    <rc><c>Ga</c><c>   1</c></rc>
    <rc><c>Ga</c><c>   1</c></rc>
    <rc><c>Ga</c><c>   1</c></rc>
    <rc><c>Ga</c><c>   1</c></rc>
    <rc><c>Ga</c><c>   1</c></rc>
    <rc><c>Ga</c><c>   1</c></rc>
    <rc><c>Ga</c><c>   1</c></rc>
    <rc><c>Ga</c><c>   1</c></rc>
    <rc><c>Ga</c><c>   1</c></rc>
    <rc><c>Ga</c><c>   1</c></rc>
    <rc><c>Ga</c><c>   1</c></rc>
    <rc><c>Ga</c><c>   1</c></rc>
    <rc><c>Ga</c><c>   1</c></rc>
    <rc><c>Ga</c><c>   1</c></rc>
    <rc><c>Ga</c><c>   1</c></rc>
    <rc><c>Ga</c><c>   1</c></rc>
    <rc><c>Ga</c><c>   1</c></rc>
    <rc><c>Ga</c><c>   1</c></rc>
    <rc><c>Ga</c><c>   1</c></rc>
    <rc><c>Ga</c><c>   1</c></rc>
    <rc><c>Ga</c><c>   1</c></rc>
    <rc><c>Ga</c><c>   1</c></rc>
    <rc><c>Ga</c><c>   1</c></rc>
    <rc><c>Ga</c><c>   1</c></rc>
    <rc><c>Ga</c><c>   1</c></rc>
    <rc><c>Ga</c><c>   1</c></rc>
    <rc><c>Ga</c><c>   1</c></rc>
    <rc><c>Ga</c><c>   1</c></rc>
    <rc><c>Ga</c><c>   1</c></rc>
    <rc><c>Ga</c><c>   1</c></rc>
    <rc><c>Ga</c><c>   1</c></rc>
    <rc><c>Ga</c><c>   1</c></rc>
    <rc><c>Ga</c><c>   1</c></rc>
    <rc><c>Ga</c><c>   1</c></rc>
    <rc><c>Ga</c><c>   1</c></rc>
    <rc><c>Ga</c><c>   1</c></rc>
    <rc><c>Ga</c><c>   1</c></rc>
    <rc><c>Ga</c><c>   1</c></rc>
    <rc><c>Ga</c><c>   1</c></rc>
    <rc><c>Ga</c><c>   1</c></rc>
    <rc><c>Ga</c><c>   1</c></rc>
    <rc><c>Ga</c><c>   1</c></rc>
    <rc><c>O </c><c>   2</c></rc>
    <rc><c>O </c><c>   2</c></rc>
    <rc><c>O </c><c>   2</c></rc>
    <rc><c>O </c><c>   2</c></rc>
    <rc><c>O </c><c>   2</c></rc>
    <rc><c>O </c><c>   2</c></rc>
    <rc><c>O </c><c>   2</c></rc>
    <rc><c>O </c><c>   2</c></rc>
    <rc><c>O </c><c>   2</c></rc>
    <rc><c>O </c><c>   2</c></rc>
    <rc><c>O </c><c>   2</c></rc>
    <rc><c>O </c><c>   2</c></rc>
    <rc><c>O </c><c>   2</c></rc>
    <rc><c>O </c><c>   2</c></rc>
    <rc><c>O </c><c>   2</c></rc>
    <rc><c>O </c><c>   2</c></rc>
    <rc><c>O </c><c>   2</c></rc>
    <rc><c>O </c><c>   2</c></rc>
    <rc><c>O </c><c>   2</c></rc>
    <rc><c>O </c><c>   2</c></rc>
    <rc><c>O </c><c>   2</c></rc>
    <rc><c>O </c><c>   2</c></rc>
    <rc><c>O </c><c>   2</c></rc>
    <rc><c>O </c><c>   2</c></rc>
    <rc><c>O </c><c>   2</c></rc>
    <rc><c>O </c><c>   2</c></rc>
    <rc><c>O </c><c>   2</c></rc>
    <rc><c>O </c><c>   2</c></rc>
    <rc><c>O </c><c>   2</c></rc>
    <rc><c>O </c><c>   2</c></rc>
    <rc><c>O </c><c>   2</c></rc>
    <rc><c>O </c><c>   2</c></rc>
    <rc><c>O </c><c>   2</c></rc>
    <rc><c>O </c><c>   2</c></rc>
    <rc><c>O </c><c>   2</c></rc>
    <rc><c>O </c><c>   2</c></rc>
    <rc><c>O </c><c>   2</c></rc>
    <rc><c>O </c><c>   2</c></rc>
    <rc><c>O </c><c>   2</c></rc>
    <rc><c>O </c><c>   2</c></rc>
    <rc><c>O </c><c>   2</c></rc>
    <rc><c>O </c><c>   2</c></rc>
    <rc><c>O </c><c>   2</c></rc>
    <rc><c>O </c><c>   2</c></rc>
    <rc><c>O </c><c>   2</c></rc>
    <rc><c>O </c><c>   2</c></rc>
    <rc><c>O </c><c>   2</c></rc>
    <rc><c>O </c><c>   2</c></rc>
    <rc><c>O </c><c>   2</c></rc>
    <rc><c>O </c><c>   2</c></rc>
    <rc><c>O </c><c>   2</c></rc>
    <rc><c>O </c><c>   2</c></rc>
    <rc><c>O </c><c>   2</c></rc>
    <rc><c>O </c><c>   2</c></rc>
    <rc><c>O </c><c>   2</c></rc>
    <rc><c>O </c><c>   2</c></rc>
    <rc><c>O </c><c>   2</c></rc>
    <rc><c>O </c><c>   2</c></rc>
    <rc><c>O </c><c>   2</c></rc>
    <rc><c>O </c><c>   2</c></rc>
    <rc><c>O </c><c>   2</c></rc>
    <rc><c>O </c><c>   2</c></rc>
    <rc><c>O </c><c>   2</c></rc>
    <rc><c>O </c><c>   2</c></rc>
    <rc><c>O </c><c>   2</c></rc>
    <rc><c>O </c><c>   2</c></rc>
    <rc><c>O </c><c>   2</c></rc>
    <rc><c>O </c><c>   2</c></rc>
    <rc><c>O </c><c>   2</c></rc>
    <rc><c>O </c><c>   2</c></rc>
    <rc><c>O </c><c>   2</c></rc>
    <rc><c>O </c><c>   2</c></rc>
   </set>
  </array>
  <array name="atomtypes" >
   <dimension dim="1">type</dimension>
   <field type="int">atomspertype</field>
   <field type="string">element</field>
   <field>mass</field>
   <field>valence</field>
   <field type="string">pseudopotential</field>
   <set>
    <rc><c>  47</c><c>Ga</c><c>     69.72300000</c><c>     13.00000000</c><c>  PAW_PBE Ga_d 06Jul2010                </c></rc>
    <rc><c>  72</c><c>O </c><c>     16.00000000</c><c>      6.00000000</c><c>  PAW_PBE O 08Apr2002                   </c></rc>
   </set>
  </array>
 </atominfo>
 <structure name="initialpos" >
  <crystal>
   <varray name="basis" >
    <v>       0.00000000      12.28047342       0.00000000 </v>
    <v>       9.14270205       0.00000000       0.00000000 </v>
    <v>       0.00000000      -2.76826177     -11.30069772 </v>
   </varray>
   <i name="volume">   1268.80515525 </i>
   <varray name="rec_basis" >
    <v>       0.00000000       0.08143009      -0.01994742 </v>
    <v>       0.10937686      -0.00000000       0.00000000 </v>
    <v>       0.00000000       0.00000000      -0.08849011 </v>
   </varray>
  </crystal>
  <varray name="positions" >
   <v>       0.66106064       0.00014496       0.15792727 </v>
   <v>       0.65780911       0.00033104       0.65530227 </v>
   <v>       0.66139285       0.33333333       0.15835032 </v>
   <v>       0.65753506       0.33333333       0.65474435 </v>
   <v>       0.66106064       0.66652171       0.15792727 </v>
   <v>       0.65780911       0.66633563       0.65530227 </v>
   <v>       0.84400221       0.16720356       0.34430784 </v>
   <v>       0.84016243       0.16728388       0.84263428 </v>
   <v>       0.84400221       0.49946311       0.34430784 </v>
   <v>       0.84016243       0.49938278       0.84263428 </v>
   <v>       0.84274028       0.83333333       0.34419898 </v>
   <v>       0.83970340       0.83333333       0.84234858 </v>
   <v>       0.58917661       0.17049772       0.39594255 </v>
   <v>       0.59198990       0.16653105       0.89804501 </v>
   <v>       0.58917661       0.49616894       0.39594255 </v>
   <v>       0.59198990       0.50013562       0.89804501 </v>
   <v>       0.59019907       0.83333333       0.39708674 </v>
   <v>       0.59282826       0.83333333       0.89886798 </v>
   <v>       0.90898537       0.00036336       0.10139402 </v>
   <v>       0.90931858       0.00021994       0.60284234 </v>
   <v>       0.91165537       0.33333333       0.10276699 </v>
   <v>       0.90981968       0.33333333       0.60264193 </v>
   <v>       0.90898537       0.66630331       0.10139402 </v>
   <v>       0.90931858       0.66644673       0.60284234 </v>
   <v>       0.16334554       0.16983287       0.16103173 </v>
   <v>       0.15997964       0.16691500       0.65799252 </v>
   <v>       0.16334554       0.49683379       0.16103173 </v>
   <v>       0.15997964       0.49975167       0.65799252 </v>
   <v>       0.15849881       0.83333333       0.15754770 </v>
   <v>       0.15946400       0.83333333       0.65981580 </v>
   <v>       0.34017290       0.00465905       0.34095672 </v>
   <v>       0.34266917       0.00021753       0.84410653 </v>
   <v>       0.34207606       0.33333333       0.84386168 </v>
   <v>       0.34017290       0.66200762       0.34095672 </v>
   <v>       0.34266917       0.66644913       0.84410653 </v>
   <v>       0.09259965       0.00061433       0.39799703 </v>
   <v>       0.08973131       0.00014783       0.89792252 </v>
   <v>       0.09984758       0.33333333       0.39707825 </v>
   <v>       0.09095286       0.33333333       0.89846679 </v>
   <v>       0.09259965       0.66605233       0.39799703 </v>
   <v>       0.08973131       0.66651884       0.89792252 </v>
   <v>       0.40973884       0.16576507       0.10515408 </v>
   <v>       0.40534914       0.16628162       0.59757983 </v>
   <v>       0.40973884       0.50090160       0.10515408 </v>
   <v>       0.40534914       0.50038505       0.59757983 </v>
   <v>       0.41011897       0.83333333       0.10416689 </v>
   <v>       0.40842110       0.83333333       0.60011924 </v>
   <v>       0.99666796       0.16557408       0.12369633 </v>
   <v>       0.99694281       0.16656207       0.62909754 </v>
   <v>       0.99666796       0.50109259       0.12369633 </v>
   <v>       0.99694281       0.50010460       0.62909754 </v>
   <v>       0.99456713       0.83333333       0.12523552 </v>
   <v>       0.99633545       0.83333333       0.62964302 </v>
   <v>       0.50428018       0.00100172       0.37364341 </v>
   <v>       0.50534893       0.99957322       0.87327762 </v>
   <v>       0.50130842       0.33333333       0.37198046 </v>
   <v>       0.50498153       0.33333333       0.87240744 </v>
   <v>       0.50428018       0.66566495       0.37364341 </v>
   <v>       0.50534893       0.66709345       0.87327762 </v>
   <v>       0.67468159       0.16630265       0.28080924 </v>
   <v>       0.67187307       0.16773374       0.77960248 </v>
   <v>       0.67468159       0.50036402       0.28080924 </v>
   <v>       0.67187307       0.49893293       0.77960248 </v>
   <v>       0.67422018       0.83333333       0.28159523 </v>
   <v>       0.67222610       0.83333333       0.77987259 </v>
   <v>       0.82921678       0.00039633       0.22026208 </v>
   <v>       0.82648211       0.00039614       0.71878378 </v>
   <v>       0.82977768       0.33333333       0.22005732 </v>
   <v>       0.82673255       0.33333333       0.71862395 </v>
   <v>       0.82921678       0.66627034       0.22026208 </v>
   <v>       0.82648211       0.66627053       0.71878378 </v>
   <v>       0.83360436       0.00026996       0.44628990 </v>
   <v>       0.83074181       0.00030946       0.94469815 </v>
   <v>       0.83269271       0.33333333       0.44642629 </v>
   <v>       0.83204595       0.33333333       0.94588556 </v>
   <v>       0.83360436       0.66639671       0.44628990 </v>
   <v>       0.83074181       0.66635720       0.94469815 </v>
   <v>       0.66897164       0.16725090       0.05456597 </v>
   <v>       0.66755995       0.16651434       0.55353014 </v>
   <v>       0.66897164       0.49941577       0.05456597 </v>
   <v>       0.66755995       0.50015233       0.55353014 </v>
   <v>       0.67112043       0.83333333       0.05502043 </v>
   <v>       0.66769858       0.83333333       0.55379414 </v>
   <v>       0.49936336       0.99924116       0.12661441 </v>
   <v>       0.49614328       0.00067252       0.62814147 </v>
   <v>       0.49775941       0.33333333       0.13127217 </v>
   <v>       0.49334760       0.33333333       0.62153965 </v>
   <v>       0.49936336       0.66742551       0.12661441 </v>
   <v>       0.49614328       0.66599415       0.62814147 </v>
   <v>       0.00626994       0.16824421       0.37583598 </v>
   <v>       0.00255270       0.16712700       0.87092667 </v>
   <v>       0.00626994       0.49842245       0.37583598 </v>
   <v>       0.00255270       0.49953967       0.87092667 </v>
   <v>       0.00452825       0.83333333       0.37506687 </v>
   <v>       0.00193660       0.83333333       0.87081596 </v>
   <v>       0.16898915       0.99654573       0.27838235 </v>
   <v>       0.17342622       0.00003045       0.78248843 </v>
   <v>       0.16128695       0.33333333       0.26951784 </v>
   <v>       0.17331414       0.33333333       0.78190944 </v>
   <v>       0.16898915       0.67012094       0.27838235 </v>
   <v>       0.17342622       0.66663621       0.78248843 </v>
   <v>       0.32491306       0.14767608       0.21324985 </v>
   <v>       0.32848512       0.16675046       0.72056413 </v>
   <v>       0.32491306       0.51899059       0.21324985 </v>
   <v>       0.32848512       0.49991621       0.72056413 </v>
   <v>       0.32776775       0.83333333       0.21921249 </v>
   <v>       0.32827741       0.83333333       0.71972782 </v>
   <v>       0.31382624       0.14768110       0.45091537 </v>
   <v>       0.33620986       0.16689767       0.94669934 </v>
   <v>       0.31382624       0.51898557       0.45091537 </v>
   <v>       0.33620986       0.49976900       0.94669934 </v>
   <v>       0.33252991       0.83333333       0.44378357 </v>
   <v>       0.33459420       0.83333333       0.94652481 </v>
   <v>       0.16477637       0.99945294       0.05349721 </v>
   <v>       0.16547826       0.99869723       0.55655381 </v>
   <v>       0.17103634       0.33333333       0.05228316 </v>
   <v>       0.16770798       0.33333333       0.55658284 </v>
   <v>       0.16477637       0.66721373       0.05349721 </v>
   <v>       0.16547826       0.66796944       0.55655381 </v>
  </varray>
 </structure>
 <calculation>
  <scstep>
   <time name="total">    3.93    3.94</time>
   <energy>
    <i name="alphaZ">   5383.97153279 </i>
    <i name="ewald"> -86594.47826338 </i>
    <i name="hartreedc">  -2064.40049882 </i>
    <i name="XCdc">   2770.72451716 </i>
    <i name="pawpsdc">  54439.57402276 </i>
    <i name="pawaedc"> -83064.81186260 </i>
    <i name="eentropy">     -0.00743677 </i>
    <i name="bandstr"> -40816.17018985 </i>
    <i name="atom"> 131754.67725141 </i>
    <i name="e_fr_energy"> -18190.92092729 </i>
    <i name="e_wo_entrp"> -18190.91349052 </i>
    <i name="e_0_energy"> -18190.91720891 </i>
   </energy>
  </scstep>
  <scstep>
   <time name="total">    3.08    3.08</time>
   <energy>
    <i name="e_fr_energy"> -62596.20568083 </i>
    <i name="e_wo_entrp"> -62596.18929530 </i>
    <i name="e_0_energy"> -62596.19748807 </i>
   </energy>
  </scstep>
  <scstep>
   <time name="total">    3.31    3.31</time>
   <energy>
    <i name="e_fr_energy"> -67704.17937874 </i>
    <i name="e_wo_entrp"> -67704.15216446 </i>
    <i name="e_0_energy"> -67704.16577160 </i>
   </energy>
  </scstep>
  <scstep>
   <time name="total">    3.90    3.90</time>
   <energy>
    <i name="e_fr_energy"> -68499.38875108 </i>
    <i name="e_wo_entrp"> -68499.35070910 </i>
    <i name="e_0_energy"> -68499.36973009 </i>
   </energy>
  </scstep>
  <scstep>
   <time name="total">  231.47  231.44</time>
   <energy>
    <i name="e_fr_energy"> -39026.02439626 </i>
    <i name="e_wo_entrp"> -39026.02439616 </i>
    <i name="e_0_energy"> -39026.02439621 </i>
   </energy>
  </scstep>
  <scstep>
   <time name="total">  459.43  459.43</time>
   <energy>
    <i name="e_fr_energy">  30689.90137719 </i>
    <i name="e_wo_entrp">  30689.96651974 </i>
    <i name="e_0_energy">  30689.93394846 </i>
   </energy>
  </scstep>
  <scstep>
   <time name="total">  461.66  461.60</time>
   <energy>
    <i name="e_fr_energy">   7883.44726902 </i>
    <i name="e_wo_entrp">   7883.48007277 </i>
    <i name="e_0_energy">   7883.46367089 </i>
   </energy>
  </scstep>
  <scstep>
   <time name="total">  460.29  460.22</time>
   <energy>
    <i name="e_fr_energy">   6683.58184463 </i>
    <i name="e_wo_entrp">   6683.61168843 </i>
    <i name="e_0_energy">   6683.59676653 </i>
   </energy>
  </scstep>
  <scstep>
   <time name="total">  459.43  459.39</time>
   <energy>
    <i name="e_fr_energy">   3961.22124523 </i>
    <i name="e_wo_entrp">   3961.22915255 </i>
    <i name="e_0_energy">   3961.22519889 </i>
   </energy>
  </scstep>
  <scstep>
   <time name="total">  459.65  459.59</time>
   <energy>
    <i name="e_fr_energy">   1867.56828688 </i>
    <i name="e_wo_entrp">   1867.57832852 </i>
    <i name="e_0_energy">   1867.57330770 </i>
   </energy>
  </scstep>
  <scstep>
   <time name="total">  459.47  459.41</time>
   <energy>
    <i name="e_fr_energy">    562.87118547 </i>
    <i name="e_wo_entrp">    562.87471187 </i>
    <i name="e_0_energy">    562.87294867 </i>
   </energy>
  </scstep>
  <scstep>
   <time name="total">  459.15  459.09</time>
   <energy>
    <i name="e_fr_energy">   -178.67425457 </i>
    <i name="e_wo_entrp">   -178.66364409 </i>
    <i name="e_0_energy">   -178.66894933 </i>
   </energy>
  </scstep>
  <scstep>
   <time name="total">  458.74  458.69</time>
   <energy>
    <i name="e_fr_energy">   -556.57507632 </i>
    <i name="e_wo_entrp">   -556.56916182 </i>
    <i name="e_0_energy">   -556.57211907 </i>
   </energy>
  </scstep>
  <scstep>
   <time name="total">  458.88  458.81</time>
   <energy>
    <i name="e_fr_energy">   -746.88948455 </i>
    <i name="e_wo_entrp">   -746.87996923 </i>
    <i name="e_0_energy">   -746.88472689 </i>
   </energy>
  </scstep>
  <scstep>
   <time name="total">  458.70  458.63</time>
   <energy>
    <i name="e_fr_energy">   -824.75677196 </i>
    <i name="e_wo_entrp">   -824.74854533 </i>
    <i name="e_0_energy">   -824.75265864 </i>
   </energy>
  </scstep>
  <scstep>
   <time name="total">  458.70  458.64</time>
   <energy>
    <i name="e_fr_energy">   -867.68885143 </i>
    <i name="e_wo_entrp">   -867.68340596 </i>
    <i name="e_0_energy">   -867.68612869 </i>
   </energy>
  </scstep>
  <scstep>
   <time name="total">  458.83  458.76</time>
   <energy>
    <i name="e_fr_energy">   -893.61130479 </i>
    <i name="e_wo_entrp">   -893.60622309 </i>
    <i name="e_0_energy">   -893.60876394 </i>
   </energy>
  </scstep>
  <scstep>
   <time name="total">  458.66  458.60</time>
   <energy>
    <i name="e_fr_energy">   -909.54565600 </i>
    <i name="e_wo_entrp">   -909.53792067 </i>
    <i name="e_0_energy">   -909.54178834 </i>
   </energy>
  </scstep>
  <scstep>
   <time name="total">  459.24  459.17</time>
   <energy>
    <i name="e_fr_energy">   -920.24446879 </i>
    <i name="e_wo_entrp">   -920.22015125 </i>
    <i name="e_0_energy">   -920.23231002 </i>
   </energy>
  </scstep>
  <scstep>
   <time name="total">  459.23  459.19</time>
   <energy>
    <i name="e_fr_energy">   -926.20729109 </i>
    <i name="e_wo_entrp">   -926.17352489 </i>
    <i name="e_0_energy">   -926.19040799 </i>
   </energy>
  </scstep>
  <scstep>
   <time name="total">  459.15  459.08</time>
   <energy>
    <i name="e_fr_energy">   -929.20588321 </i>
    <i name="e_wo_entrp">   -929.17768399 </i>
    <i name="e_0_energy">   -929.19178360 </i>
   </energy>
  </scstep>
  <scstep>
   <time name="total">  459.10  459.05</time>
   <energy>
    <i name="e_fr_energy">   -931.59083099 </i>
    <i name="e_wo_entrp">   -931.57017478 </i>
    <i name="e_0_energy">   -931.58050288 </i>
   </energy>
  </scstep>
  <scstep>
   <time name="total">  459.33  459.26</time>
   <energy>
    <i name="e_fr_energy">   -932.73500381 </i>
    <i name="e_wo_entrp">   -932.71528101 </i>
    <i name="e_0_energy">   -932.72514241 </i>
   </energy>
  </scstep>
  <scstep>
   <time name="total">  459.32  459.27</time>
   <energy>
    <i name="e_fr_energy">   -934.23506562 </i>
    <i name="e_wo_entrp">   -934.21247657 </i>
    <i name="e_0_energy">   -934.22377110 </i>
   </energy>
  </scstep>
  <scstep>
   <time name="total">  459.54  459.48</time>
   <energy>
    <i name="e_fr_energy">   -934.90721209 </i>
    <i name="e_wo_entrp">   -934.88413901 </i>
    <i name="e_0_energy">   -934.89567555 </i>
   </energy>
  </scstep>
  <scstep>
   <time name="total">  459.13  459.07</time>
   <energy>
    <i name="e_fr_energy">   -935.54398894 </i>
    <i name="e_wo_entrp">   -935.52176417 </i>
    <i name="e_0_energy">   -935.53287656 </i>
   </energy>
  </scstep>
  <scstep>
   <time name="total">  459.12  459.06</time>
   <energy>
    <i name="e_fr_energy">   -936.21680243 </i>
    <i name="e_wo_entrp">   -936.19389291 </i>
    <i name="e_0_energy">   -936.20534767 </i>
   </energy>
  </scstep>
  <scstep>
   <time name="total">  459.07  459.02</time>
   <energy>
    <i name="e_fr_energy">   -936.62382891 </i>
    <i name="e_wo_entrp">   -936.60224867 </i>
    <i name="e_0_energy">   -936.61303879 </i>
   </energy>
  </scstep>
  <scstep>
   <time name="total">  459.51  459.44</time>
   <energy>
    <i name="e_fr_energy">   -936.93717028 </i>
    <i name="e_wo_entrp">   -936.91493816 </i>
    <i name="e_0_energy">   -936.92605422 </i>
   </energy>
  </scstep>
  <scstep>
   <time name="total">  459.43  459.39</time>
   <energy>
    <i name="e_fr_energy">   -937.24614702 </i>
    <i name="e_wo_entrp">   -937.22120515 </i>
    <i name="e_0_energy">   -937.23367609 </i>
   </energy>
  </scstep>
  <scstep>
   <time name="total">  459.23  459.16</time>
   <energy>
    <i name="e_fr_energy">   -937.40349272 </i>
    <i name="e_wo_entrp">   -937.37751689 </i>
    <i name="e_0_energy">   -937.39050481 </i>
   </energy>
  </scstep>
  <scstep>
   <time name="total">  459.15  459.09</time>
   <energy>
    <i name="e_fr_energy">   -937.50996805 </i>
    <i name="e_wo_entrp">   -937.48429683 </i>
    <i name="e_0_energy">   -937.49713244 </i>
   </energy>
  </scstep>
  <scstep>
   <time name="total">  459.27  459.20</time>
   <energy>
    <i name="e_fr_energy">   -937.63059447 </i>
    <i name="e_wo_entrp">   -937.60673044 </i>
    <i name="e_0_energy">   -937.61866246 </i>
   </energy>
  </scstep>
  <scstep>
   <time name="total">  459.43  459.37</time>
   <energy>
    <i name="e_fr_energy">   -937.75342008 </i>
    <i name="e_wo_entrp">   -937.73134858 </i>
    <i name="e_0_energy">   -937.74238433 </i>
   </energy>
  </scstep>
  <scstep>
   <time name="total">  459.28  459.21</time>
   <energy>
    <i name="e_fr_energy">   -937.83848500 </i>
    <i name="e_wo_entrp">   -937.81777017 </i>
    <i name="e_0_energy">   -937.82812758 </i>
   </energy>
  </scstep>
  <scstep>
   <time name="total">  459.30  459.23</time>
   <energy>
    <i name="e_fr_energy">   -937.88104220 </i>
    <i name="e_wo_entrp">   -937.86338930 </i>
    <i name="e_0_energy">   -937.87221575 </i>
   </energy>
  </scstep>
  <scstep>
   <time name="total">  459.18  459.12</time>
   <energy>
    <i name="e_fr_energy">   -937.94651781 </i>
    <i name="e_wo_entrp">   -937.92870292 </i>
    <i name="e_0_energy">   -937.93761037 </i>
   </energy>
  </scstep>
  <scstep>
   <time name="total">  459.10  459.03</time>
   <energy>
    <i name="e_fr_energy">   -938.03450803 </i>
    <i name="e_wo_entrp">   -938.01750084 </i>
    <i name="e_0_energy">   -938.02600443 </i>
   </energy>
  </scstep>
  <scstep>
   <time name="total">  459.09  459.03</time>
   <energy>
    <i name="e_fr_energy">   -938.20015831 </i>
    <i name="e_wo_entrp">   -938.18273732 </i>
    <i name="e_0_energy">   -938.19144781 </i>
   </energy>
  </scstep>
  <scstep>
   <time name="total">  459.40  459.34</time>
   <energy>
    <i name="e_fr_energy">   -938.24116592 </i>
    <i name="e_wo_entrp">   -938.22319610 </i>
    <i name="e_0_energy">   -938.23218101 </i>
   </energy>
  </scstep>
  <scstep>
   <time name="total">  459.15  459.10</time>
   <energy>
    <i name="e_fr_energy">   -938.27323408 </i>
    <i name="e_wo_entrp">   -938.25595592 </i>
    <i name="e_0_energy">   -938.26459500 </i>
   </energy>
  </scstep>
  <scstep>
   <time name="total">  459.31  459.26</time>
   <energy>
    <i name="e_fr_energy">   -938.28684250 </i>
    <i name="e_wo_entrp">   -938.27004355 </i>
    <i name="e_0_energy">   -938.27844302 </i>
   </energy>
  </scstep>
  <scstep>
   <time name="total">  459.28  459.21</time>
   <energy>
    <i name="e_fr_energy">   -938.29590380 </i>
    <i name="e_wo_entrp">   -938.27925643 </i>
    <i name="e_0_energy">   -938.28758011 </i>
   </energy>
  </scstep>
  <scstep>
   <time name="total">  459.36  459.29</time>
   <energy>
    <i name="e_fr_energy">   -938.29840582 </i>
    <i name="e_wo_entrp">   -938.28224738 </i>
    <i name="e_0_energy">   -938.29032660 </i>
   </energy>
  </scstep>
  <scstep>
   <time name="total">  459.23  459.16</time>
   <energy>
    <i name="e_fr_energy">   -938.30094262 </i>
    <i name="e_wo_entrp">   -938.28492372 </i>
    <i name="e_0_energy">   -938.29293317 </i>
   </energy>
  </scstep>
  <scstep>
   <time name="total">  459.10  459.03</time>
   <energy>
    <i name="e_fr_energy">   -938.30289586 </i>
    <i name="e_wo_entrp">   -938.28691629 </i>
    <i name="e_0_energy">   -938.29490608 </i>
   </energy>
  </scstep>
  <scstep>
   <time name="total">  459.34  459.27</time>
   <energy>
    <i name="e_fr_energy">   -938.30366566 </i>
    <i name="e_wo_entrp">   -938.28785504 </i>
    <i name="e_0_energy">   -938.29576035 </i>
   </energy>
  </scstep>
  <scstep>
   <time name="total">  459.29  459.22</time>
   <energy>
    <i name="e_fr_energy">   -938.30492727 </i>
    <i name="e_wo_entrp">   -938.28927653 </i>
    <i name="e_0_energy">   -938.29710190 </i>
   </energy>
  </scstep>
  <scstep>
   <time name="total">  459.21  459.14</time>
   <energy>
    <i name="e_fr_energy">   -938.30533557 </i>
    <i name="e_wo_entrp">   -938.28983994 </i>
    <i name="e_0_energy">   -938.29758775 </i>
   </energy>
  </scstep>
  <scstep>
   <time name="total">  459.11  459.04</time>
   <energy>
    <i name="e_fr_energy">   -938.30594518 </i>
    <i name="e_wo_entrp">   -938.29043881 </i>
    <i name="e_0_energy">   -938.29819199 </i>
   </energy>
  </scstep>
  <scstep>
   <time name="total">  459.52  459.46</time>
   <energy>
    <i name="e_fr_energy">   -938.30624278 </i>
    <i name="e_wo_entrp">   -938.29070225 </i>
    <i name="e_0_energy">   -938.29847252 </i>
   </energy>
  </scstep>
  <scstep>
   <time name="total">  459.32  459.26</time>
   <energy>
    <i name="e_fr_energy">   -938.30658325 </i>
    <i name="e_wo_entrp">   -938.29126071 </i>
    <i name="e_0_energy">   -938.29892198 </i>
   </energy>
  </scstep>
  <scstep>
   <time name="total">  459.01  458.95</time>
   <energy>
    <i name="e_fr_energy">   -938.30696352 </i>
    <i name="e_wo_entrp">   -938.29197642 </i>
    <i name="e_0_energy">   -938.29946997 </i>
   </energy>
  </scstep>
  <scstep>
   <time name="total">  459.34  459.31</time>
   <energy>
    <i name="e_fr_energy">   -938.30750482 </i>
    <i name="e_wo_entrp">   -938.29400449 </i>
    <i name="e_0_energy">   -938.30075466 </i>
   </energy>
  </scstep>
  <scstep>
   <time name="total">  459.30  459.24</time>
   <energy>
    <i name="e_fr_energy">   -938.30878699 </i>
    <i name="e_wo_entrp">   -938.29957977 </i>
    <i name="e_0_energy">   -938.30418338 </i>
   </energy>
  </scstep>
  <scstep>
   <time name="total">  459.29  459.24</time>
   <energy>
    <i name="e_fr_energy">   -938.31048676 </i>
    <i name="e_wo_entrp">   -938.30224961 </i>
    <i name="e_0_energy">   -938.30636819 </i>
   </energy>
  </scstep>
  <scstep>
   <time name="total">  459.33  459.29</time>
   <energy>
    <i name="e_fr_energy">   -938.31079823 </i>
    <i name="e_wo_entrp">   -938.30472860 </i>
    <i name="e_0_energy">   -938.30776342 </i>
   </energy>
  </scstep>
  <scstep>
   <time name="total">  458.96  458.92</time>
   <energy>
    <i name="e_fr_energy">   -938.31226398 </i>
    <i name="e_wo_entrp">   -938.30824190 </i>
    <i name="e_0_energy">   -938.31025294 </i>
   </energy>
  </scstep>
  <scstep>
   <time name="total">  459.14  459.09</time>
   <energy>
    <i name="e_fr_energy">   -938.31374234 </i>
    <i name="e_wo_entrp">   -938.31132761 </i>
    <i name="e_0_energy">   -938.31253498 </i>
   </energy>
  </scstep>
  <scstep>
   <time name="total">  459.44  459.39</time>
   <energy>
    <i name="e_fr_energy">   -938.31489802 </i>
    <i name="e_wo_entrp">   -938.31350129 </i>
    <i name="e_0_energy">   -938.31419966 </i>
   </energy>
  </scstep>
  <scstep>
   <time name="total">  459.17  459.11</time>
   <energy>
    <i name="e_fr_energy">   -938.31566686 </i>
    <i name="e_wo_entrp">   -938.31495444 </i>
    <i name="e_0_energy">   -938.31531065 </i>
   </energy>
  </scstep>
  <scstep>
   <time name="total">  459.68  459.62</time>
   <energy>
    <i name="e_fr_energy">   -938.31639192 </i>
    <i name="e_wo_entrp">   -938.31613933 </i>
    <i name="e_0_energy">   -938.31626563 </i>
   </energy>
  </scstep>
  <scstep>
   <time name="total">  459.52  459.46</time>
   <energy>
    <i name="e_fr_energy">   -938.31740624 </i>
    <i name="e_wo_entrp">   -938.31733068 </i>
    <i name="e_0_energy">   -938.31736846 </i>
   </energy>
  </scstep>
  <scstep>
   <time name="total">  459.26  459.19</time>
   <energy>
    <i name="e_fr_energy">   -938.31845991 </i>
    <i name="e_wo_entrp">   -938.31844082 </i>
    <i name="e_0_energy">   -938.31845036 </i>
   </energy>
  </scstep>
  <scstep>
   <time name="total">  459.24  459.18</time>
   <energy>
    <i name="e_fr_energy">   -938.31952689 </i>
    <i name="e_wo_entrp">   -938.31952333 </i>
    <i name="e_0_energy">   -938.31952511 </i>
   </energy>
  </scstep>
  <scstep>
   <time name="total">  459.30  459.24</time>
   <energy>
    <i name="e_fr_energy">   -938.32077327 </i>
    <i name="e_wo_entrp">   -938.32077257 </i>
    <i name="e_0_energy">   -938.32077292 </i>
   </energy>
  </scstep>
  <scstep>
   <time name="total">  459.04  458.98</time>
   <energy>
    <i name="e_fr_energy">   -938.32208018 </i>
    <i name="e_wo_entrp">   -938.32207999 </i>
    <i name="e_0_energy">   -938.32208008 </i>
   </energy>
  </scstep>
  <scstep>
   <time name="total">  459.16  459.09</time>
   <energy>
    <i name="e_fr_energy">   -938.32361014 </i>
    <i name="e_wo_entrp">   -938.32360674 </i>
    <i name="e_0_energy">   -938.32360844 </i>
   </energy>
  </scstep>
  <scstep>
   <time name="total">  459.45  459.38</time>
   <energy>
    <i name="e_fr_energy">   -938.32911214 </i>
    <i name="e_wo_entrp">   -938.32906323 </i>
    <i name="e_0_energy">   -938.32908769 </i>
   </energy>
  </scstep>
  <scstep>
   <time name="total">  459.11  459.03</time>
   <energy>
    <i name="e_fr_energy">   -938.33399469 </i>
    <i name="e_wo_entrp">   -938.33358527 </i>
    <i name="e_0_energy">   -938.33378998 </i>
   </energy>
  </scstep>
  <scstep>
   <time name="total">  459.53  459.45</time>
   <energy>
    <i name="e_fr_energy">   -938.33911845 </i>
    <i name="e_wo_entrp">   -938.33834456 </i>
    <i name="e_0_energy">   -938.33873150 </i>
   </energy>
  </scstep>
  <scstep>
   <time name="total">  459.30  459.24</time>
   <energy>
    <i name="e_fr_energy">   -938.34137487 </i>
    <i name="e_wo_entrp">   -938.34044184 </i>
    <i name="e_0_energy">   -938.34090835 </i>
   </energy>
  </scstep>
  <scstep>
   <time name="total">  459.08  459.02</time>
   <energy>
    <i name="e_fr_energy">   -938.34279466 </i>
    <i name="e_wo_entrp">   -938.34188912 </i>
    <i name="e_0_energy">   -938.34234189 </i>
   </energy>
  </scstep>
  <scstep>
   <time name="total">  459.25  459.20</time>
   <energy>
    <i name="e_fr_energy">   -938.34431230 </i>
    <i name="e_wo_entrp">   -938.34356226 </i>
    <i name="e_0_energy">   -938.34393728 </i>
   </energy>
  </scstep>
  <scstep>
   <time name="total">  459.24  459.16</time>
   <energy>
    <i name="e_fr_energy">   -938.34552334 </i>
    <i name="e_wo_entrp">   -938.34510050 </i>
    <i name="e_0_energy">   -938.34531192 </i>
   </energy>
  </scstep>
  <scstep>
   <time name="total">  459.32  459.24</time>
   <energy>
    <i name="e_fr_energy">   -938.34704162 </i>
    <i name="e_wo_entrp">   -938.34679633 </i>
    <i name="e_0_energy">   -938.34691898 </i>
   </energy>
  </scstep>
  <scstep>
   <time name="total">  459.29  459.22</time>
   <energy>
    <i name="e_fr_energy">   -938.34798250 </i>
    <i name="e_wo_entrp">   -938.34790391 </i>
    <i name="e_0_energy">   -938.34794321 </i>
   </energy>
  </scstep>
  <scstep>
   <time name="total">  459.63  459.56</time>
   <energy>
    <i name="e_fr_energy">   -938.34959667 </i>
    <i name="e_wo_entrp">   -938.34954465 </i>
    <i name="e_0_energy">   -938.34957066 </i>
   </energy>
  </scstep>
  <scstep>
   <time name="total">  459.12  459.04</time>
   <energy>
    <i name="e_fr_energy">   -938.35016515 </i>
    <i name="e_wo_entrp">   -938.35014080 </i>
    <i name="e_0_energy">   -938.35015297 </i>
   </energy>
  </scstep>
  <scstep>
   <time name="total">  459.20  459.12</time>
   <energy>
    <i name="e_fr_energy">   -938.35127568 </i>
    <i name="e_wo_entrp">   -938.35125634 </i>
    <i name="e_0_energy">   -938.35126601 </i>
   </energy>
  </scstep>
  <scstep>
   <time name="total">  459.68  459.61</time>
   <energy>
    <i name="e_fr_energy">   -938.35179813 </i>
    <i name="e_wo_entrp">   -938.35178003 </i>
    <i name="e_0_energy">   -938.35178908 </i>
   </energy>
  </scstep>
  <scstep>
   <time name="total">  459.19  459.12</time>
   <energy>
    <i name="e_fr_energy">   -938.35238918 </i>
    <i name="e_wo_entrp">   -938.35237026 </i>
    <i name="e_0_energy">   -938.35237972 </i>
   </energy>
  </scstep>
  <scstep>
   <time name="total">  459.06  458.99</time>
   <energy>
    <i name="e_fr_energy">   -938.35293068 </i>
    <i name="e_wo_entrp">   -938.35290773 </i>
    <i name="e_0_energy">   -938.35291920 </i>
   </energy>
  </scstep>
  <scstep>
   <time name="total">  459.25  459.18</time>
   <energy>
    <i name="e_fr_energy">   -938.35344152 </i>
    <i name="e_wo_entrp">   -938.35340942 </i>
    <i name="e_0_energy">   -938.35342547 </i>
   </energy>
  </scstep>
  <scstep>
   <time name="total">  459.29  459.23</time>
   <energy>
    <i name="e_fr_energy">   -938.35411777 </i>
    <i name="e_wo_entrp">   -938.35406598 </i>
    <i name="e_0_energy">   -938.35409188 </i>
   </energy>
  </scstep>
  <scstep>
   <time name="total">  459.13  459.07</time>
   <energy>
    <i name="e_fr_energy">   -938.35498133 </i>
    <i name="e_wo_entrp">   -938.35491508 </i>
    <i name="e_0_energy">   -938.35494821 </i>
   </energy>
  </scstep>
  <scstep>
   <time name="total">  459.18  459.11</time>
   <energy>
    <i name="e_fr_energy">   -938.35573875 </i>
    <i name="e_wo_entrp">   -938.35567596 </i>
    <i name="e_0_energy">   -938.35570736 </i>
   </energy>
  </scstep>
  <scstep>
   <time name="total">  458.90  458.85</time>
   <energy>
    <i name="e_fr_energy">   -938.35720768 </i>
    <i name="e_wo_entrp">   -938.35716012 </i>
    <i name="e_0_energy">   -938.35718390 </i>
   </energy>
  </scstep>
  <scstep>
   <time name="total">  459.15  459.09</time>
   <energy>
    <i name="e_fr_energy">   -938.35816463 </i>
    <i name="e_wo_entrp">   -938.35813217 </i>
    <i name="e_0_energy">   -938.35814840 </i>
   </energy>
  </scstep>
  <scstep>
   <time name="total">  459.30  459.24</time>
   <energy>
    <i name="e_fr_energy">   -938.35899045 </i>
    <i name="e_wo_entrp">   -938.35897311 </i>
    <i name="e_0_energy">   -938.35898178 </i>
   </energy>
  </scstep>
  <scstep>
   <time name="total">  459.05  459.00</time>
   <energy>
    <i name="e_fr_energy">   -938.36000433 </i>
    <i name="e_wo_entrp">   -938.35999607 </i>
    <i name="e_0_energy">   -938.36000020 </i>
   </energy>
  </scstep>
  <scstep>
   <time name="total">  458.88  458.82</time>
   <energy>
    <i name="e_fr_energy">   -938.36084186 </i>
    <i name="e_wo_entrp">   -938.36083758 </i>
    <i name="e_0_energy">   -938.36083972 </i>
   </energy>
  </scstep>
  <scstep>
   <time name="total">  458.87  458.80</time>
   <energy>
    <i name="e_fr_energy">   -938.36153396 </i>
    <i name="e_wo_entrp">   -938.36153160 </i>
    <i name="e_0_energy">   -938.36153278 </i>
   </energy>
  </scstep>
  <scstep>
   <time name="total">  458.84  458.77</time>
   <energy>
    <i name="e_fr_energy">   -938.36228195 </i>
    <i name="e_wo_entrp">   -938.36228037 </i>
    <i name="e_0_energy">   -938.36228116 </i>
   </energy>
  </scstep>
  <scstep>
   <time name="total">  458.83  458.75</time>
   <energy>
    <i name="e_fr_energy">   -938.36295284 </i>
    <i name="e_wo_entrp">   -938.36295153 </i>
    <i name="e_0_energy">   -938.36295218 </i>
   </energy>
  </scstep>
  <scstep>
   <time name="total">  458.98  458.92</time>
   <energy>
    <i name="e_fr_energy">   -938.36357179 </i>
    <i name="e_wo_entrp">   -938.36357048 </i>
    <i name="e_0_energy">   -938.36357114 </i>
   </energy>
  </scstep>
  <scstep>
   <time name="total">  458.95  458.89</time>
   <energy>
    <i name="e_fr_energy">   -938.36426837 </i>
    <i name="e_wo_entrp">   -938.36426679 </i>
    <i name="e_0_energy">   -938.36426758 </i>
   </energy>
  </scstep>
  <scstep>
   <time name="total">  458.78  458.73</time>
   <energy>
    <i name="e_fr_energy">   -938.36484059 </i>
    <i name="e_wo_entrp">   -938.36483829 </i>
    <i name="e_0_energy">   -938.36483944 </i>
   </energy>
  </scstep>
  <scstep>
   <time name="total">  459.08  459.02</time>
   <energy>
    <i name="e_fr_energy">   -938.36534204 </i>
    <i name="e_wo_entrp">   -938.36533859 </i>
    <i name="e_0_energy">   -938.36534031 </i>
   </energy>
  </scstep>
  <scstep>
   <time name="total">  458.84  458.76</time>
   <energy>
    <i name="e_fr_energy">   -938.36652385 </i>
    <i name="e_wo_entrp">   -938.36651663 </i>
    <i name="e_0_energy">   -938.36652024 </i>
   </energy>
  </scstep>
  <scstep>
   <time name="total">  458.90  458.82</time>
   <energy>
    <i name="e_fr_energy">   -938.36793862 </i>
    <i name="e_wo_entrp">   -938.36792224 </i>
    <i name="e_0_energy">   -938.36793043 </i>
   </energy>
  </scstep>
  <scstep>
   <time name="total">  459.07  458.99</time>
   <energy>
    <i name="e_fr_energy">   -938.36914062 </i>
    <i name="e_wo_entrp">   -938.36910879 </i>
    <i name="e_0_energy">   -938.36912470 </i>
   </energy>
  </scstep>
  <scstep>
   <time name="total">  458.85  458.78</time>
   <energy>
    <i name="e_fr_energy">   -938.37015462 </i>
    <i name="e_wo_entrp">   -938.37011178 </i>
    <i name="e_0_energy">   -938.37013320 </i>
   </energy>
  </scstep>
  <scstep>
   <time name="total">  459.18  459.12</time>
   <energy>
    <i name="e_fr_energy">   -938.37089558 </i>
    <i name="e_wo_entrp">   -938.37085440 </i>
    <i name="e_0_energy">   -938.37087499 </i>
   </energy>
  </scstep>
  <scstep>
   <time name="total">  459.43  459.37</time>
   <energy>
    <i name="e_fr_energy">   -938.37135436 </i>
    <i name="e_wo_entrp">   -938.37131685 </i>
    <i name="e_0_energy">   -938.37133561 </i>
   </energy>
  </scstep>
  <scstep>
   <time name="total">  459.00  458.95</time>
   <energy>
    <i name="e_fr_energy">   -938.37154609 </i>
    <i name="e_wo_entrp">   -938.37152207 </i>
    <i name="e_0_energy">   -938.37153408 </i>
   </energy>
  </scstep>
  <scstep>
   <time name="total">  459.14  459.08</time>
   <energy>
    <i name="e_fr_energy">   -938.37193396 </i>
    <i name="e_wo_entrp">   -938.37191496 </i>
    <i name="e_0_energy">   -938.37192446 </i>
   </energy>
  </scstep>
  <scstep>
   <time name="total">  458.96  458.89</time>
   <energy>
    <i name="e_fr_energy">   -938.37209107 </i>
    <i name="e_wo_entrp">   -938.37207558 </i>
    <i name="e_0_energy">   -938.37208333 </i>
   </energy>
  </scstep>
  <scstep>
   <time name="total">  458.84  458.78</time>
   <energy>
    <i name="e_fr_energy">   -938.37224421 </i>
    <i name="e_wo_entrp">   -938.37223047 </i>
    <i name="e_0_energy">   -938.37223734 </i>
   </energy>
  </scstep>
  <scstep>
   <time name="total">  459.03  458.96</time>
   <energy>
    <i name="e_fr_energy">   -938.37236642 </i>
    <i name="e_wo_entrp">   -938.37235326 </i>
    <i name="e_0_energy">   -938.37235984 </i>
   </energy>
  </scstep>
  <scstep>
   <time name="total">  458.86  458.79</time>
   <energy>
    <i name="e_fr_energy">   -938.37245262 </i>
    <i name="e_wo_entrp">   -938.37243854 </i>
    <i name="e_0_energy">   -938.37244558 </i>
   </energy>
  </scstep>
  <scstep>
   <time name="total">  458.76  458.71</time>
   <energy>
    <i name="e_fr_energy">   -938.37255787 </i>
    <i name="e_wo_entrp">   -938.37254131 </i>
    <i name="e_0_energy">   -938.37254959 </i>
   </energy>
  </scstep>
  <scstep>
   <time name="total">  459.02  458.96</time>
   <energy>
    <i name="e_fr_energy">   -938.37263997 </i>
    <i name="e_wo_entrp">   -938.37262159 </i>
    <i name="e_0_energy">   -938.37263078 </i>
   </energy>
  </scstep>
  <scstep>
   <time name="total">  458.96  458.91</time>
   <energy>
    <i name="e_fr_energy">   -938.37267908 </i>
    <i name="e_wo_entrp">   -938.37265880 </i>
    <i name="e_0_energy">   -938.37266894 </i>
   </energy>
  </scstep>
  <scstep>
   <time name="total">  458.97  458.92</time>
   <energy>
    <i name="e_fr_energy">   -938.37271366 </i>
    <i name="e_wo_entrp">   -938.37269220 </i>
    <i name="e_0_energy">   -938.37270293 </i>
   </energy>
  </scstep>
  <scstep>
   <time name="total">  458.87  458.82</time>
   <energy>
    <i name="e_fr_energy">   -938.37274037 </i>
    <i name="e_wo_entrp">   -938.37271867 </i>
    <i name="e_0_energy">   -938.37272952 </i>
   </energy>
  </scstep>
  <scstep>
   <time name="total">  459.06  459.04</time>
   <energy>
    <i name="e_fr_energy">   -938.37275776 </i>
    <i name="e_wo_entrp">   -938.37273658 </i>
    <i name="e_0_energy">   -938.37274717 </i>
   </energy>
  </scstep>
  <scstep>
   <time name="total">  459.14  459.08</time>
   <energy>
    <i name="e_fr_energy">   -938.37277710 </i>
    <i name="e_wo_entrp">   -938.37275718 </i>
    <i name="e_0_energy">   -938.37276714 </i>
   </energy>
  </scstep>
  <scstep>
   <time name="total">  458.93  458.88</time>
   <energy>
    <i name="e_fr_energy">   -938.37279066 </i>
    <i name="e_wo_entrp">   -938.37277150 </i>
    <i name="e_0_energy">   -938.37278108 </i>
   </energy>
  </scstep>
  <scstep>
   <time name="total">  684.52  684.42</time>
   <energy>
    <i name="alphaZ">   5383.97153279 </i>
    <i name="ewald"> -86594.47826338 </i>
    <i name="hartreedc"> -34065.89252193 </i>
    <i name="XCdc">   2888.08348582 </i>
    <i name="pawpsdc"> 119665.28510999 </i>
    <i name="pawaedc">-134917.88082751 </i>
    <i name="eentropy">     -0.00001837 </i>
    <i name="bandstr">  -8899.85722985 </i>
    <i name="atom"> 131754.67725141 </i>
    <i name="e_fr_energy">   -938.37279676 </i>
    <i name="e_wo_entrp">   -938.37277838 </i>
    <i name="e_0_energy">   -938.37278757 </i>
   </energy>
  </scstep>
  <structure>
   <crystal>
    <varray name="basis" >
     <v>       0.00000000      12.28047342       0.00000000 </v>
     <v>       9.14270205       0.00000000       0.00000000 </v>
     <v>       0.00000000      -2.76826177     -11.30069772 </v>
    </varray>
    <i name="volume">   1268.80515525 </i>
    <varray name="rec_basis" >
     <v>       0.00000000       0.08143009      -0.01994742 </v>
     <v>       0.10937686      -0.00000000       0.00000000 </v>
     <v>       0.00000000       0.00000000      -0.08849011 </v>
    </varray>
   </crystal>
   <varray name="positions" >
    <v>       0.66106064       0.00014496       0.15792727 </v>
    <v>       0.65780911       0.00033104       0.65530227 </v>
    <v>       0.66139285       0.33333333       0.15835032 </v>
    <v>       0.65753506       0.33333333       0.65474435 </v>
    <v>       0.66106064       0.66652171       0.15792727 </v>
    <v>       0.65780911       0.66633563       0.65530227 </v>
    <v>       0.84400221       0.16720356       0.34430784 </v>
    <v>       0.84016243       0.16728388       0.84263428 </v>
    <v>       0.84400221       0.49946311       0.34430784 </v>
    <v>       0.84016243       0.49938278       0.84263428 </v>
    <v>       0.84274028       0.83333333       0.34419898 </v>
    <v>       0.83970340       0.83333333       0.84234858 </v>
    <v>       0.58917661       0.17049772       0.39594255 </v>
    <v>       0.59198990       0.16653105       0.89804501 </v>
    <v>       0.58917661       0.49616894       0.39594255 </v>
    <v>       0.59198990       0.50013562       0.89804501 </v>
    <v>       0.59019907       0.83333333       0.39708674 </v>
    <v>       0.59282826       0.83333333       0.89886798 </v>
    <v>       0.90898537       0.00036336       0.10139402 </v>
    <v>       0.90931858       0.00021994       0.60284234 </v>
    <v>       0.91165537       0.33333333       0.10276699 </v>
    <v>       0.90981968       0.33333333       0.60264193 </v>
    <v>       0.90898537       0.66630331       0.10139402 </v>
    <v>       0.90931858       0.66644673       0.60284234 </v>
    <v>       0.16334554       0.16983287       0.16103173 </v>
    <v>       0.15997964       0.16691500       0.65799252 </v>
    <v>       0.16334554       0.49683379       0.16103173 </v>
    <v>       0.15997964       0.49975167       0.65799252 </v>
    <v>       0.15849881       0.83333333       0.15754770 </v>
    <v>       0.15946400       0.83333333       0.65981580 </v>
    <v>       0.34017290       0.00465905       0.34095672 </v>
    <v>       0.34266917       0.00021753       0.84410653 </v>
    <v>       0.34207606       0.33333333       0.84386168 </v>
    <v>       0.34017290       0.66200762       0.34095672 </v>
    <v>       0.34266917       0.66644913       0.84410653 </v>
    <v>       0.09259965       0.00061433       0.39799703 </v>
    <v>       0.08973131       0.00014783       0.89792252 </v>
    <v>       0.09984758       0.33333333       0.39707825 </v>
    <v>       0.09095286       0.33333333       0.89846679 </v>
    <v>       0.09259965       0.66605233       0.39799703 </v>
    <v>       0.08973131       0.66651884       0.89792252 </v>
    <v>       0.40973884       0.16576507       0.10515408 </v>
    <v>       0.40534914       0.16628162       0.59757983 </v>
    <v>       0.40973884       0.50090160       0.10515408 </v>
    <v>       0.40534914       0.50038505       0.59757983 </v>
    <v>       0.41011897       0.83333333       0.10416689 </v>
    <v>       0.40842110       0.83333333       0.60011924 </v>
    <v>       0.99666796       0.16557408       0.12369633 </v>
    <v>       0.99694281       0.16656207       0.62909754 </v>
    <v>       0.99666796       0.50109259       0.12369633 </v>
    <v>       0.99694281       0.50010460       0.62909754 </v>
    <v>       0.99456713       0.83333333       0.12523552 </v>
    <v>       0.99633545       0.83333333       0.62964302 </v>
    <v>       0.50428018       0.00100172       0.37364341 </v>
    <v>       0.50534893       0.99957322       0.87327762 </v>
    <v>       0.50130842       0.33333333       0.37198046 </v>
    <v>       0.50498153       0.33333333       0.87240744 </v>
    <v>       0.50428018       0.66566495       0.37364341 </v>
    <v>       0.50534893       0.66709345       0.87327762 </v>
    <v>       0.67468159       0.16630265       0.28080924 </v>
    <v>       0.67187307       0.16773374       0.77960248 </v>
    <v>       0.67468159       0.50036402       0.28080924 </v>
    <v>       0.67187307       0.49893293       0.77960248 </v>
    <v>       0.67422018       0.83333333       0.28159523 </v>
    <v>       0.67222610       0.83333333       0.77987259 </v>
    <v>       0.82921678       0.00039633       0.22026208 </v>
    <v>       0.82648211       0.00039614       0.71878378 </v>
    <v>       0.82977768       0.33333333       0.22005732 </v>
    <v>       0.82673255       0.33333333       0.71862395 </v>
    <v>       0.82921678       0.66627034       0.22026208 </v>
    <v>       0.82648211       0.66627053       0.71878378 </v>
    <v>       0.83360436       0.00026996       0.44628990 </v>
    <v>       0.83074181       0.00030946       0.94469815 </v>
    <v>       0.83269271       0.33333333       0.44642629 </v>
    <v>       0.83204595       0.33333333       0.94588556 </v>
    <v>       0.83360436       0.66639671       0.44628990 </v>
    <v>       0.83074181       0.66635720       0.94469815 </v>
    <v>       0.66897164       0.16725090       0.05456597 </v>
    <v>       0.66755995       0.16651434       0.55353014 </v>
    <v>       0.66897164       0.49941577       0.05456597 </v>
    <v>       0.66755995       0.50015233       0.55353014 </v>
    <v>       0.67112043       0.83333333       0.05502043 </v>
    <v>       0.66769858       0.83333333       0.55379414 </v>
    <v>       0.49936336       0.99924116       0.12661441 </v>
    <v>       0.49614328       0.00067252       0.62814147 </v>
    <v>       0.49775941       0.33333333       0.13127217 </v>
    <v>       0.49334760       0.33333333       0.62153965 </v>
    <v>       0.49936336       0.66742551       0.12661441 </v>
    <v>       0.49614328       0.66599415       0.62814147 </v>
    <v>       0.00626994       0.16824421       0.37583598 </v>
    <v>       0.00255270       0.16712700       0.87092667 </v>
    <v>       0.00626994       0.49842245       0.37583598 </v>
    <v>       0.00255270       0.49953967       0.87092667 </v>
    <v>       0.00452825       0.83333333       0.37506687 </v>
    <v>       0.00193660       0.83333333       0.87081596 </v>
    <v>       0.16898915       0.99654573       0.27838235 </v>
    <v>       0.17342622       0.00003045       0.78248843 </v>
    <v>       0.16128695       0.33333333       0.26951784 </v>
    <v>       0.17331414       0.33333333       0.78190944 </v>
    <v>       0.16898915       0.67012094       0.27838235 </v>
    <v>       0.17342622       0.66663621       0.78248843 </v>
    <v>       0.32491306       0.14767608       0.21324985 </v>
    <v>       0.32848512       0.16675046       0.72056413 </v>
    <v>       0.32491306       0.51899059       0.21324985 </v>
    <v>       0.32848512       0.49991621       0.72056413 </v>
    <v>       0.32776775       0.83333333       0.21921249 </v>
    <v>       0.32827741       0.83333333       0.71972782 </v>
[...]
       <r>   -12.7446   765.2041   462.0994 </r>
       <r>   -12.6158   275.0021   497.5268 </r>
       <r>   -12.4869   185.3268   521.4017 </r>
       <r>   -12.3581   192.2077   546.1630 </r>
       <r>   -12.2293   159.3834   566.6957 </r>
       <r>   -12.1005   105.6512   580.3063 </r>
       <r>   -11.9716   124.8640   596.3920 </r>
       <r>   -11.8428    69.8828   605.3947 </r>
       <r>   -11.7140    35.6047   609.9815 </r>
       <r>   -11.5852    26.4524   613.3893 </r>
       <r>   -11.4563     4.7395   613.9999 </r>
       <r>   -11.3275     0.0011   614.0000 </r>
       <r>   -11.1987     0.0000   614.0000 </r>
       <r>   -11.0699     0.0000   614.0000 </r>
       <r>   -10.9410     0.0000   614.0000 </r>
       <r>   -10.8122     0.0000   614.0000 </r>
       <r>   -10.6834     0.0000   614.0000 </r>
       <r>   -10.5545     0.0000   614.0000 </r>
       <r>   -10.4257     0.0000   614.0000 </r>
       <r>   -10.2969     0.0000   614.0000 </r>
       <r>   -10.1681     0.0000   614.0000 </r>
       <r>   -10.0392     0.0000   614.0000 </r>
       <r>    -9.9104     0.0000   614.0000 </r>
       <r>    -9.7816     0.0000   614.0000 </r>
       <r>    -9.6528     0.0000   614.0000 </r>
       <r>    -9.5239     0.0000   614.0000 </r>
       <r>    -9.3951     0.0000   614.0000 </r>
       <r>    -9.2663     0.0000   614.0000 </r>
       <r>    -9.1375     0.0000   614.0000 </r>
       <r>    -9.0086     0.0000   614.0000 </r>
       <r>    -8.8798     0.0000   614.0000 </r>
       <r>    -8.7510     0.0000   614.0000 </r>
       <r>    -8.6222     0.0000   614.0000 </r>
       <r>    -8.4933     0.0000   614.0000 </r>
       <r>    -8.3645     0.0000   614.0000 </r>
       <r>    -8.2357     0.0000   614.0000 </r>
       <r>    -8.1069     0.0000   614.0000 </r>
       <r>    -7.9780     0.0000   614.0000 </r>
       <r>    -7.8492     0.0000   614.0000 </r>
       <r>    -7.7204     0.0000   614.0000 </r>
       <r>    -7.5916     0.0000   614.0000 </r>
       <r>    -7.4627     0.0000   614.0000 </r>
       <r>    -7.3339     0.0000   614.0000 </r>
       <r>    -7.2051     0.0000   614.0000 </r>
       <r>    -7.0763     0.0000   614.0000 </r>
       <r>    -6.9474     0.0000   614.0000 </r>
       <r>    -6.8186     0.0000   614.0000 </r>
       <r>    -6.6898     0.0000   614.0000 </r>
       <r>    -6.5609     0.0000   614.0000 </r>
       <r>    -6.4321     0.0000   614.0000 </r>
       <r>    -6.3033     0.0000   614.0000 </r>
       <r>    -6.1745     0.0000   614.0000 </r>
       <r>    -6.0456     0.0000   614.0000 </r>
       <r>    -5.9168     0.0000   614.0000 </r>
       <r>    -5.7880     0.0000   614.0000 </r>
       <r>    -5.6592     0.0000   614.0000 </r>
       <r>    -5.5303     0.0000   614.0000 </r>
       <r>    -5.4015     0.0171   614.0022 </r>
       <r>    -5.2727     5.1721   614.6685 </r>
       <r>    -5.1439    10.5339   616.0255 </r>
       <r>    -5.0150    21.1067   618.7446 </r>
       <r>    -4.8862    28.0526   622.3585 </r>
       <r>    -4.7574    29.4243   626.1491 </r>
       <r>    -4.6286    34.9177   630.6474 </r>
       <r>    -4.4997    45.0668   636.4532 </r>
       <r>    -4.3709    44.4066   642.1739 </r>
       <r>    -4.2421    60.3006   649.9422 </r>
       <r>    -4.1133    48.0199   656.1284 </r>
       <r>    -3.9844    38.5016   661.0884 </r>
       <r>    -3.8556    49.5869   667.4765 </r>
       <r>    -3.7268    40.1565   672.6497 </r>
       <r>    -3.5980    30.3778   676.5631 </r>
       <r>    -3.4691    28.0253   680.1735 </r>
       <r>    -3.3403    30.2829   684.0747 </r>
       <r>    -3.2115    34.0537   688.4617 </r>
       <r>    -3.0826    41.2594   693.7770 </r>
       <r>    -2.9538    32.6192   697.9792 </r>
       <r>    -2.8250    33.5646   702.3032 </r>
       <r>    -2.6962    33.0654   706.5629 </r>
       <r>    -2.5673    39.9323   711.7072 </r>
       <r>    -2.4385    29.7526   715.5401 </r>
       <r>    -2.3097    56.1423   722.7727 </r>
       <r>    -2.1809    34.5731   727.2266 </r>
       <r>    -2.0520    38.0671   732.1306 </r>
       <r>    -1.9232    62.8672   740.2295 </r>
       <r>    -1.7944    75.4263   749.9464 </r>
       <r>    -1.6656    63.6329   758.1439 </r>
       <r>    -1.5367    53.9059   765.0884 </r>
       <r>    -1.4079    67.6340   773.8014 </r>
       <r>    -1.2791    50.6667   780.3286 </r>
       <r>    -1.1503    51.4333   786.9545 </r>
       <r>    -1.0214    66.3080   795.4967 </r>
       <r>    -0.8926    65.2389   803.9012 </r>
       <r>    -0.7638    68.9049   812.7779 </r>
       <r>    -0.6350    74.2764   822.3466 </r>
       <r>    -0.5061    60.7259   830.1697 </r>
       <r>    -0.3773    61.1495   838.0473 </r>
       <r>    -0.2485    75.6565   847.7938 </r>
       <r>    -0.1197    75.2671   857.4902 </r>
       <r>     0.0092    79.5361   867.7365 </r>
       <r>     0.1380    74.3601   877.3160 </r>
       <r>     0.2668    68.7859   886.1774 </r>
       <r>     0.3956    75.3165   895.8801 </r>
       <r>     0.5245    86.6425   907.0419 </r>
       <r>     0.6533    95.6660   919.3661 </r>
       <r>     0.7821    93.8058   931.4508 </r>
       <r>     0.9110    81.0827   941.8963 </r>
       <r>     1.0398   113.0952   956.4659 </r>
       <r>     1.1686   109.5798   970.5826 </r>
       <r>     1.2974   129.6112   987.2799 </r>
       <r>     1.4263   119.7226  1002.7032 </r>
       <r>     1.5551    95.9378  1015.0625 </r>
       <r>     1.6839    60.4378  1022.8484 </r>
       <r>     1.8127    64.1813  1031.1167 </r>
       <r>     1.9416    46.8883  1037.1571 </r>
       <r>     2.0704    26.5148  1040.5729 </r>
       <r>     2.1992    17.6254  1042.8435 </r>
       <r>     2.3280     8.9311  1043.9940 </r>
       <r>     2.4569     0.4263  1044.0490 </r>
       <r>     2.5857     9.6325  1045.2899 </r>
       <r>     2.7145     5.5027  1045.9988 </r>
       <r>     2.8433     0.0097  1046.0000 </r>
       <r>     2.9722     0.0000  1046.0000 </r>
       <r>     3.1010     0.0000  1046.0000 </r>
       <r>     3.2298     0.0000  1046.0000 </r>
       <r>     3.3586     0.0000  1046.0000 </r>
       <r>     3.4875     0.0000  1046.0000 </r>
       <r>     3.6163     0.0000  1046.0000 </r>
       <r>     3.7451     0.0000  1046.0000 </r>
       <r>     3.8739     0.0000  1046.0000 </r>
       <r>     4.0028     0.0000  1046.0000 </r>
       <r>     4.1316     0.0000  1046.0000 </r>
       <r>     4.2604     0.0000  1046.0000 </r>
       <r>     4.3892     0.0000  1046.0000 </r>
       <r>     4.5181     0.0000  1046.0000 </r>
       <r>     4.6469     0.0000  1046.0000 </r>
       <r>     4.7757     0.0000  1046.0000 </r>
       <r>     4.9046     0.0000  1046.0000 </r>
       <r>     5.0334     0.0000  1046.0000 </r>
       <r>     5.1622     0.0000  1046.0000 </r>
       <r>     5.2910     0.0000  1046.0000 </r>
       <r>     5.4199     0.0000  1046.0000 </r>
       <r>     5.5487     0.0000  1046.0000 </r>
       <r>     5.6775     0.0000  1046.0000 </r>
       <r>     5.8063     0.0000  1046.0000 </r>
       <r>     5.9352     0.0000  1046.0000 </r>
       <r>     6.0640     0.0000  1046.0000 </r>
       <r>     6.1928     0.0000  1046.0000 </r>
       <r>     6.3216     0.0000  1046.0000 </r>
       <r>     6.4505     0.0000  1046.0000 </r>
       <r>     6.5793     0.0414  1046.0053 </r>
       <r>     6.7081     1.7964  1046.2368 </r>
       <r>     6.8369     0.1028  1046.2500 </r>
       <r>     6.9658     0.0000  1046.2500 </r>
       <r>     7.0946     0.0000  1046.2500 </r>
       <r>     7.2234     0.0000  1046.2500 </r>
       <r>     7.3522     0.2247  1046.2790 </r>
       <r>     7.4811     3.2003  1046.6912 </r>
       <r>     7.6099     3.1625  1047.0986 </r>
       <r>     7.7387     1.4201  1047.2816 </r>
       <r>     7.8675     3.0114  1047.6695 </r>
       <r>     7.9964     4.3371  1048.2283 </r>
       <r>     8.1252     0.1686  1048.2500 </r>
       <r>     8.2540     0.0998  1048.2629 </r>
       <r>     8.3828     5.4113  1048.9600 </r>
       <r>     8.5117     7.9462  1049.9837 </r>
       <r>     8.6405     4.1124  1050.5134 </r>
       <r>     8.7693     6.5667  1051.3594 </r>
       <r>     8.8982     4.4330  1051.9305 </r>
       <r>     9.0270     3.4165  1052.3706 </r>
       <r>     9.1558     8.0642  1053.4095 </r>
       <r>     9.2846     9.4812  1054.6309 </r>
       <r>     9.4135     3.9741  1055.1429 </r>
       <r>     9.5423     1.8880  1055.3861 </r>
       <r>     9.6711    14.9565  1057.3129 </r>
       <r>     9.7999    14.3785  1059.1652 </r>
       <r>     9.9288     9.7271  1060.4183 </r>
       <r>    10.0576     4.3394  1060.9773 </r>
       <r>    10.1864    18.9130  1063.4138 </r>
       <r>    10.3152    28.3133  1067.0613 </r>
       <r>    10.4441    33.0361  1071.3172 </r>
       <r>    10.5729    36.5158  1076.0214 </r>
       <r>    10.7017    42.0017  1081.4323 </r>
       <r>    10.8305    43.7227  1087.0649 </r>
       <r>    10.9594    19.6420  1089.5953 </r>
       <r>    11.0882    25.4857  1092.8785 </r>
       <r>    11.2170    31.3539  1096.9177 </r>
       <r>    11.3458    29.4971  1100.7177 </r>
       <r>    11.4747    34.9726  1105.2230 </r>
       <r>    11.6035    41.4860  1110.5675 </r>
       <r>    11.7323    33.7298  1114.9128 </r>
       <r>    11.8611    33.5996  1119.2413 </r>
       <r>    11.9900    25.4467  1122.5195 </r>
       <r>    12.1188    33.1667  1126.7922 </r>
       <r>    12.2476    38.2333  1131.7176 </r>
       <r>    12.3765    46.9175  1137.7618 </r>
       <r>    12.5053    49.0590  1144.0819 </r>
       <r>    12.6341    28.0468  1147.6950 </r>
       <r>    12.7629    18.7484  1150.1103 </r>
       <r>    12.8918    22.3743  1152.9927 </r>
       <r>    13.0206    37.7349  1157.8539 </r>
       <r>    13.1494    45.0167  1163.6532 </r>
       <r>    13.2782    36.5905  1168.3670 </r>
       <r>    13.4071    37.7108  1173.2252 </r>
       <r>    13.5359    28.5763  1176.9065 </r>
       <r>    13.6647    36.9809  1181.6706 </r>
       <r>    13.7935    29.8393  1185.5147 </r>
       <r>    13.9224    36.3947  1190.2033 </r>
       <r>    14.0512    31.4959  1194.2607 </r>
       <r>    14.1800    30.0643  1198.1338 </r>
       <r>    14.3088    44.4417  1203.8591 </r>
       <r>    14.4377    35.5689  1208.4412 </r>
       <r>    14.5665    30.0273  1212.3095 </r>
       <r>    14.6953    31.4652  1216.3631 </r>
       <r>    14.8241    30.8509  1220.3375 </r>
       <r>    14.9530    24.0692  1223.4382 </r>
       <r>    15.0818    26.8332  1226.8950 </r>
       <r>    15.2106    30.8765  1230.8727 </r>
       <r>    15.3394    28.8932  1234.5949 </r>
       <r>    15.4683    20.2696  1237.2061 </r>
       <r>    15.5971    26.9056  1240.6723 </r>
       <r>    15.7259    23.4618  1243.6948 </r>
       <r>    15.8547    23.9631  1246.7818 </r>
       <r>    15.9836    18.0180  1249.1030 </r>
       <r>    16.1124    13.0456  1250.7836 </r>
       <r>    16.2412     6.5678  1251.6297 </r>
       <r>    16.3701     2.8543  1251.9974 </r>
       <r>    16.4989     0.0199  1252.0000 </r>
       <r>    16.6277     0.0000  1252.0000 </r>
       <r>    16.7565     0.0000  1252.0000 </r>
       <r>    16.8854     0.0000  1252.0000 </r>
       <r>    17.0142     0.0000  1252.0000 </r>
       <r>    17.1430     0.0000  1252.0000 </r>
       <r>    17.2718     0.0000  1252.0000 </r>
       <r>    17.4007     0.0000  1252.0000 </r>
       <r>    17.5295     0.0000  1252.0000 </r>
       <r>    17.6583     0.0000  1252.0000 </r>
       <r>    17.7871     0.0000  1252.0000 </r>
       <r>    17.9160     0.0000  1252.0000 </r>
       <r>    18.0448     0.0000  1252.0000 </r>
      </set>
     </set>
    </array>
   </total>
  </dos>
 </calculation>
 <structure name="finalpos" >
  <crystal>
   <varray name="basis" >
    <v>       0.00000000      12.28047342       0.00000000 </v>
    <v>       9.14270205       0.00000000       0.00000000 </v>
    <v>       0.00000000      -2.76826177     -11.30069772 </v>
   </varray>
   <i name="volume">   1268.80515525 </i>
   <varray name="rec_basis" >
    <v>       0.00000000       0.08143009      -0.01994742 </v>
    <v>       0.10937686      -0.00000000       0.00000000 </v>
    <v>       0.00000000       0.00000000      -0.08849011 </v>
   </varray>
  </crystal>
  <varray name="positions" >
   <v>       0.66106064       0.00014496       0.15792727 </v>
   <v>       0.65780911       0.00033104       0.65530227 </v>
   <v>       0.66139285       0.33333333       0.15835032 </v>
   <v>       0.65753506       0.33333333       0.65474435 </v>
   <v>       0.66106064       0.66652171       0.15792727 </v>
   <v>       0.65780911       0.66633563       0.65530227 </v>
   <v>       0.84400221       0.16720356       0.34430784 </v>
   <v>       0.84016243       0.16728388       0.84263428 </v>
   <v>       0.84400221       0.49946311       0.34430784 </v>
   <v>       0.84016243       0.49938278       0.84263428 </v>
   <v>       0.84274028       0.83333333       0.34419898 </v>
   <v>       0.83970340       0.83333333       0.84234858 </v>
   <v>       0.58917661       0.17049772       0.39594255 </v>
   <v>       0.59198990       0.16653105       0.89804501 </v>
   <v>       0.58917661       0.49616894       0.39594255 </v>
   <v>       0.59198990       0.50013562       0.89804501 </v>
   <v>       0.59019907       0.83333333       0.39708674 </v>
   <v>       0.59282826       0.83333333       0.89886798 </v>
   <v>       0.90898537       0.00036336       0.10139402 </v>
   <v>       0.90931858       0.00021994       0.60284234 </v>
   <v>       0.91165537       0.33333333       0.10276699 </v>
   <v>       0.90981968       0.33333333       0.60264193 </v>
   <v>       0.90898537       0.66630331       0.10139402 </v>
   <v>       0.90931858       0.66644673       0.60284234 </v>
   <v>       0.16334554       0.16983287       0.16103173 </v>
   <v>       0.15997964       0.16691500       0.65799252 </v>
   <v>       0.16334554       0.49683379       0.16103173 </v>
   <v>       0.15997964       0.49975167       0.65799252 </v>
   <v>       0.15849881       0.83333333       0.15754770 </v>
   <v>       0.15946400       0.83333333       0.65981580 </v>
   <v>       0.34017290       0.00465905       0.34095672 </v>
   <v>       0.34266917       0.00021753       0.84410653 </v>
   <v>       0.34207606       0.33333333       0.84386168 </v>
   <v>       0.34017290       0.66200762       0.34095672 </v>
   <v>       0.34266917       0.66644913       0.84410653 </v>
   <v>       0.09259965       0.00061433       0.39799703 </v>
   <v>       0.08973131       0.00014783       0.89792252 </v>
   <v>       0.09984758       0.33333333       0.39707825 </v>
   <v>       0.09095286       0.33333333       0.89846679 </v>
   <v>       0.09259965       0.66605233       0.39799703 </v>
   <v>       0.08973131       0.66651884       0.89792252 </v>
   <v>       0.40973884       0.16576507       0.10515408 </v>
   <v>       0.40534914       0.16628162       0.59757983 </v>
   <v>       0.40973884       0.50090160       0.10515408 </v>
   <v>       0.40534914       0.50038505       0.59757983 </v>
   <v>       0.41011897       0.83333333       0.10416689 </v>
   <v>       0.40842110       0.83333333       0.60011924 </v>
   <v>       0.99666796       0.16557408       0.12369633 </v>
   <v>       0.99694281       0.16656207       0.62909754 </v>
   <v>       0.99666796       0.50109259       0.12369633 </v>
   <v>       0.99694281       0.50010460       0.62909754 </v>
   <v>       0.99456713       0.83333333       0.12523552 </v>
   <v>       0.99633545       0.83333333       0.62964302 </v>
   <v>       0.50428018       0.00100172       0.37364341 </v>
   <v>       0.50534893       0.99957322       0.87327762 </v>
   <v>       0.50130842       0.33333333       0.37198046 </v>
   <v>       0.50498153       0.33333333       0.87240744 </v>
   <v>       0.50428018       0.66566495       0.37364341 </v>
   <v>       0.50534893       0.66709345       0.87327762 </v>
   <v>       0.67468159       0.16630265       0.28080924 </v>
   <v>       0.67187307       0.16773374       0.77960248 </v>
   <v>       0.67468159       0.50036402       0.28080924 </v>
   <v>       0.67187307       0.49893293       0.77960248 </v>
   <v>       0.67422018       0.83333333       0.28159523 </v>
   <v>       0.67222610       0.83333333       0.77987259 </v>
   <v>       0.82921678       0.00039633       0.22026208 </v>
   <v>       0.82648211       0.00039614       0.71878378 </v>
   <v>       0.82977768       0.33333333       0.22005732 </v>
   <v>       0.82673255       0.33333333       0.71862395 </v>
   <v>       0.82921678       0.66627034       0.22026208 </v>
   <v>       0.82648211       0.66627053       0.71878378 </v>
   <v>       0.83360436       0.00026996       0.44628990 </v>
   <v>       0.83074181       0.00030946       0.94469815 </v>
   <v>       0.83269271       0.33333333       0.44642629 </v>
   <v>       0.83204595       0.33333333       0.94588556 </v>
   <v>       0.83360436       0.66639671       0.44628990 </v>
   <v>       0.83074181       0.66635720       0.94469815 </v>
   <v>       0.66897164       0.16725090       0.05456597 </v>
   <v>       0.66755995       0.16651434       0.55353014 </v>
   <v>       0.66897164       0.49941577       0.05456597 </v>
   <v>       0.66755995       0.50015233       0.55353014 </v>
   <v>       0.67112043       0.83333333       0.05502043 </v>
   <v>       0.66769858       0.83333333       0.55379414 </v>
   <v>       0.49936336       0.99924116       0.12661441 </v>
   <v>       0.49614328       0.00067252       0.62814147 </v>
   <v>       0.49775941       0.33333333       0.13127217 </v>
   <v>       0.49334760       0.33333333       0.62153965 </v>
   <v>       0.49936336       0.66742551       0.12661441 </v>
   <v>       0.49614328       0.66599415       0.62814147 </v>
   <v>       0.00626994       0.16824421       0.37583598 </v>
   <v>       0.00255270       0.16712700       0.87092667 </v>
   <v>       0.00626994       0.49842245       0.37583598 </v>
   <v>       0.00255270       0.49953967       0.87092667 </v>
   <v>       0.00452825       0.83333333       0.37506687 </v>
   <v>       0.00193660       0.83333333       0.87081596 </v>
   <v>       0.16898915       0.99654573       0.27838235 </v>
   <v>       0.17342622       0.00003045       0.78248843 </v>
   <v>       0.16128695       0.33333333       0.26951784 </v>
   <v>       0.17331414       0.33333333       0.78190944 </v>
   <v>       0.16898915       0.67012094       0.27838235 </v>
   <v>       0.17342622       0.66663621       0.78248843 </v>
   <v>       0.32491306       0.14767608       0.21324985 </v>
   <v>       0.32848512       0.16675046       0.72056413 </v>
   <v>       0.32491306       0.51899059       0.21324985 </v>
   <v>       0.32848512       0.49991621       0.72056413 </v>
   <v>       0.32776775       0.83333333       0.21921249 </v>
   <v>       0.32827741       0.83333333       0.71972782 </v>
   <v>       0.31382624       0.14768110       0.45091537 </v>
   <v>       0.33620986       0.16689767       0.94669934 </v>
   <v>       0.31382624       0.51898557       0.45091537 </v>
   <v>       0.33620986       0.49976900       0.94669934 </v>
   <v>       0.33252991       0.83333333       0.44378357 </v>
   <v>       0.33459420       0.83333333       0.94652481 </v>
   <v>       0.16477637       0.99945294       0.05349721 </v>
   <v>       0.16547826       0.99869723       0.55655381 </v>
   <v>       0.17103634       0.33333333       0.05228316 </v>
   <v>       0.16770798       0.33333333       0.55658284 </v>
   <v>       0.16477637       0.66721373       0.05349721 </v>
   <v>       0.16547826       0.66796944       0.55655381 </v>
  </varray>
 </structure>
</modeling>
