 running    4 mpi-ranks, on    1 nodes
 distrk:  each k-point on    1 cores,    4 groups
 distr:  one band on    1 cores,    1 groups
 OpenACC runtime initialized ...    4 GPUs detected
 vasp.6.4.2 20Jul23 (build Nov 12 2023 22:16:35) complex                         
 POSCAR found type information on POSCAR GaO P 
 POSCAR found :  3 types and     119 ions
 scaLAPACK will be used selectively (only on CPU)
 LDA part: xc-table for Pade appr. of Perdew
 POSCAR, INCAR and KPOINTS ok, starting setup
 FFT: planning ... GRIDC
 FFT: planning ... GRID_SOFT
 FFT: planning ... GRID
 WAVECAR not read
 initial charge from wavefunction
 entering main loop
       N       E                     dE             d eps       ncg     rms          ort
DAV:   1    -0.183442074479E+05   -0.18344E+05   -0.54235E+05  5000   0.749E+03
DAV:   2    -0.628210241240E+05   -0.44477E+05   -0.42998E+05  5000   0.123E+03
DAV:   3    -0.678548679405E+05   -0.50338E+04   -0.45601E+04  5000   0.374E+02
DAV:   4    -0.685590750182E+05   -0.70421E+03   -0.62347E+03  5000   0.117E+02
DAV:   5    -0.389624422694E+05    0.29597E+05   -0.69859E+02  5000   0.565E+01
 gam= 0.000 g(H,U,f)=  0.814E+05 0.189E+05 0.708E+02 ort(H,U,f) = 0.000E+00 0.000E+00 0.000E+00
SDA:   6     0.330297097536E+05    0.71992E+05   -0.69859E+02  5000   0.100E+06 0.000E+00
 gam= 0.000 trial= 0.400  step= 0.526 mean= 0.400
 gam= 0.561 g(H,U,f)=  0.411E+05 0.150E+05 0.311E+03 ort(H,U,f) =-0.121E+05-0.113E+05-0.722E+03
CGA:   7     0.118182386358E+05   -0.21211E+05   -0.26435E+05  5000   0.563E+05-0.241E+05
 gam= 0.561 trial= 0.406  step= 0.273 mean= 0.406
 gam= 0.388 g(H,U,f)=  0.171E+05 0.422E+04 0.536E+03 ort(H,U,f) =-0.151E+04 0.123E+04-0.501E+03
CGA:   8     0.542181564372E+04   -0.63964E+04   -0.58556E+04  5000   0.218E+05-0.785E+03
 gam= 0.388 trial= 0.400  step= 0.258 mean= 0.400
 gam= 0.762 g(H,U,f)=  0.991E+04 0.658E+04 0.142E+03 ort(H,U,f) = 0.338E+04-0.143E+04-0.267E+02
CGA:   9     0.342378522167E+04   -0.19980E+04   -0.27773E+04  5000   0.166E+05 0.192E+04
 gam= 0.762 trial= 0.393  step= 0.247 mean= 0.393
 gam= 0.353 g(H,U,f)=  0.482E+04 0.104E+04 0.113E+02 ort(H,U,f) = 0.743E+03 0.354E+03-0.396E+01
CGA:  10     0.174106312888E+04   -0.16827E+04   -0.22311E+04  5000   0.587E+04 0.109E+04
 gam= 0.353 trial= 0.385  step= 0.408 mean= 0.385
 gam= 0.435 g(H,U,f)=  0.202E+04 0.502E+03 0.277E+02 ort(H,U,f) = 0.404E+03 0.268E+03 0.803E+01
CGA:  11     0.448878737312E+03   -0.12922E+04   -0.12777E+04  5000   0.255E+04 0.680E+03
 gam= 0.435 trial= 0.386  step= 0.434 mean= 0.386
 gam= 0.419 g(H,U,f)=  0.913E+03 0.156E+03 0.171E+01 ort(H,U,f) = 0.241E+03 0.212E+03-0.169E+01
CGA:  12    -0.188684480682E+03   -0.63756E+03   -0.61770E+03  5000   0.107E+04 0.452E+03
 gam= 0.419 trial= 0.389  step= 0.613 mean= 0.389
 gam= 0.545 g(H,U,f)=  0.498E+03 0.858E+02 0.814E-01 ort(H,U,f) =-0.197E+03 0.208E+03 0.346E+00
CGA:  13    -0.581134622494E+03   -0.39245E+03   -0.38615E+03  5000   0.583E+03 0.111E+02
 gam= 0.545 trial= 0.400  step= 0.671 mean= 0.400
 gam= 0.634 g(H,U,f)=  0.326E+03 0.429E+02 0.112E+01 ort(H,U,f) =-0.146E+03 0.301E+02-0.402E+00
CGA:  14    -0.764628114196E+03   -0.18349E+03   -0.19788E+03  5000   0.370E+03-0.116E+03
 gam= 0.634 trial= 0.414  step= 0.409 mean= 0.414
 gam= 0.587 g(H,U,f)=  0.176E+03 0.406E+02 0.546E-01 ort(H,U,f) = 0.387E+02-0.494E+02 0.202E-01
CGA:  15    -0.825332456375E+03   -0.60704E+02   -0.60669E+02  5000   0.217E+03-0.106E+02
 gam= 0.587 trial= 0.413  step= 0.376 mean= 0.413
 gam= 0.526 g(H,U,f)=  0.809E+02 0.325E+02 0.950E+00 ort(H,U,f) = 0.216E+02-0.186E+02 0.262E+01
CGA:  16    -0.864753944151E+03   -0.39421E+02   -0.39617E+02  5000   0.114E+03 0.559E+01
 gam= 0.526 trial= 0.411  step= 0.433 mean= 0.411
 gam= 0.643 g(H,U,f)=  0.554E+02 0.181E+02 0.113E-02 ort(H,U,f) =-0.462E+01 0.584E+01 0.101E-01
CGA:  17    -0.890146955218E+03   -0.25393E+02   -0.25385E+02  5000   0.735E+02 0.123E+01
 gam= 0.643 trial= 0.413  step= 0.471 mean= 0.413
 gam= 0.673 g(H,U,f)=  0.377E+02 0.117E+02 0.127E-01 ort(H,U,f) =-0.109E+02 0.118E+02-0.515E-02
CGA:  18    -0.907642970564E+03   -0.17496E+02   -0.17481E+02  5000   0.494E+02 0.840E+00
 gam= 0.673 trial= 0.415  step= 0.459 mean= 0.415
 gam= 0.656 g(H,U,f)=  0.261E+02 0.630E+01 0.632E-02 ort(H,U,f) =-0.103E+02 0.105E+02 0.227E-01
CGA:  19    -0.919124492497E+03   -0.11482E+02   -0.11480E+02  5000   0.324E+02 0.226E+00
 gam= 0.656 trial= 0.418  step= 0.449 mean= 0.418
 gam= 0.659 g(H,U,f)=  0.176E+02 0.372E+01 0.722E-02 ort(H,U,f) =-0.526E+01 0.535E+01-0.289E-01
CGA:  20    -0.926434070979E+03   -0.73096E+01   -0.73123E+01  5000   0.214E+02 0.536E-01
 gam= 0.659 trial= 0.419  step= 0.439 mean= 0.419
 gam= 0.607 g(H,U,f)=  0.110E+02 0.199E+01 0.130E-01 ort(H,U,f) =-0.152E+01 0.186E+01-0.150E-01
CGA:  21    -0.931136399445E+03   -0.47023E+01   -0.46989E+01  5000   0.130E+02 0.319E+00
 gam= 0.607 trial= 0.420  step= 0.425 mean= 0.420
 gam= 0.548 g(H,U,f)=  0.600E+01 0.110E+01 0.146E-02 ort(H,U,f) = 0.730E-01 0.165E+00 0.221E-03
CGA:  22    -0.933935158576E+03   -0.27988E+01   -0.27980E+01  5000   0.710E+01 0.238E+00
 gam= 0.548 trial= 0.420  step= 0.435 mean= 0.420
 gam= 0.659 g(H,U,f)=  0.379E+01 0.889E+00 0.677E-04 ort(H,U,f) = 0.813E-01 0.247E-01-0.259E-03
CGA:  23    -0.935509477698E+03   -0.15743E+01   -0.15734E+01  5000   0.468E+01 0.106E+00
 gam= 0.659 trial= 0.421  step= 0.437 mean= 0.421
 gam= 0.641 g(H,U,f)=  0.236E+01 0.640E+00 0.419E-03 ort(H,U,f) =-0.208E+00 0.250E+00 0.463E-04
CGA:  24    -0.936548915595E+03   -0.10394E+01   -0.10391E+01  5000   0.300E+01 0.420E-01
 gam= 0.641 trial= 0.422  step= 0.391 mean= 0.422
 gam= 0.568 g(H,U,f)=  0.128E+01 0.424E+00 0.834E-04 ort(H,U,f) =-0.369E+00 0.381E+00-0.379E-03
CGA:  25    -0.937139900346E+03   -0.59098E+00   -0.59110E+00  5000   0.171E+01 0.119E-01
 gam= 0.568 trial= 0.420  step= 0.453 mean= 0.420
 gam= 0.693 g(H,U,f)=  0.926E+00 0.255E+00 0.126E-02 ort(H,U,f) =-0.325E+00 0.329E+00-0.704E-03
CGA:  26    -0.937528111357E+03   -0.38821E+00   -0.38819E+00  5000   0.118E+01 0.332E-02
 gam= 0.693 trial= 0.422  step= 0.474 mean= 0.422
 gam= 0.612 g(H,U,f)=  0.606E+00 0.117E+00 0.455E-03 ort(H,U,f) =-0.187E+00 0.189E+00 0.513E-03
CGA:  27    -0.937808865536E+03   -0.28075E+00   -0.28070E+00  5000   0.724E+00 0.226E-02
 gam= 0.612 trial= 0.425  step= 0.461 mean= 0.425
 gam= 0.559 g(H,U,f)=  0.343E+00 0.611E-01 0.587E-04 ort(H,U,f) =-0.513E-01 0.533E-01-0.283E-03
CGA:  28    -0.937976086441E+03   -0.16722E+00   -0.16719E+00  5000   0.404E+00 0.164E-02
 gam= 0.559 trial= 0.426  step= 0.487 mean= 0.426
 gam= 0.684 g(H,U,f)=  0.231E+00 0.453E-01 0.284E-03 ort(H,U,f) =-0.814E-02 0.897E-02-0.216E-03
CGA:  29    -0.938074842237E+03   -0.98756E-01   -0.98738E-01  5000   0.277E+00 0.608E-03
 gam= 0.684 trial= 0.430  step= 0.469 mean= 0.430
 gam= 0.643 g(H,U,f)=  0.144E+00 0.339E-01 0.479E-04 ort(H,U,f) =-0.120E-02 0.134E-02 0.583E-04
CGA:  30    -0.938139879212E+03   -0.65037E-01   -0.65035E-01  5000   0.178E+00 0.193E-03
 gam= 0.643 trial= 0.432  step= 0.413 mean= 0.432
 gam= 0.591 g(H,U,f)=  0.794E-01 0.257E-01 0.190E-04 ort(H,U,f) =-0.722E-02 0.739E-02-0.546E-04
CGA:  31    -0.938176627439E+03   -0.36748E-01   -0.36749E-01  5000   0.105E+00 0.121E-03
 gam= 0.591 trial= 0.431  step= 0.439 mean= 0.431
 gam= 0.678 g(H,U,f)=  0.533E-01 0.180E-01 0.406E-04 ort(H,U,f) =-0.129E-01 0.131E-01-0.203E-04
CGA:  32    -0.938199740713E+03   -0.23113E-01   -0.23113E-01  5000   0.713E-01 0.163E-03
 gam= 0.678 trial= 0.431  step= 0.474 mean= 0.431
 gam= 0.659 g(H,U,f)=  0.369E-01 0.101E-01 0.130E-05 ort(H,U,f) =-0.114E-01 0.116E-01 0.459E-05
CGA:  33    -0.938216658727E+03   -0.16918E-01   -0.16913E-01  5000   0.470E-01 0.224E-03
 gam= 0.659 trial= 0.433  step= 0.466 mean= 0.433
 gam= 0.589 g(H,U,f)=  0.226E-01 0.506E-02 0.940E-05 ort(H,U,f) =-0.619E-02 0.637E-02-0.114E-04
CGA:  34    -0.938227640092E+03   -0.10981E-01   -0.10979E-01  5000   0.277E-01 0.164E-03
 gam= 0.589 trial= 0.435  step= 0.496 mean= 0.435
 gam= 0.680 g(H,U,f)=  0.161E-01 0.267E-02 0.572E-05 ort(H,U,f) =-0.194E-02 0.200E-02 0.189E-05
CGA:  35    -0.938234530281E+03   -0.68902E-02   -0.68883E-02  5000   0.188E-01 0.610E-04
 gam= 0.680 trial= 0.438  step= 0.479 mean= 0.438
 gam= 0.649 g(H,U,f)=  0.104E-01 0.183E-02 0.344E-06 ort(H,U,f) = 0.239E-04-0.308E-04-0.171E-05
CGA:  36    -0.938239043239E+03   -0.45130E-02   -0.45132E-02  5000   0.122E-01-0.862E-05
 gam= 0.649 trial= 0.440  step= 0.433 mean= 0.440
 gam= 0.000 g(H,U,f)=  0.598E-02 0.144E-02 0.355E-05 ort(H,U,f) = 0.491E-04-0.684E-04-0.255E-05
SDA:  37    -0.938241685527E+03   -0.26423E-02   -0.26422E-02  5000   0.742E-02-0.219E-04
 gam= 0.000 trial= 0.440  step= 0.827 mean= 0.440
 gam= 0.441 g(H,U,f)=  0.256E-02 0.712E-03 0.216E-05 ort(H,U,f) =-0.788E-03 0.804E-03-0.277E-05
CGA:  38    -0.938244759726E+03   -0.30742E-02   -0.30715E-02  5000   0.327E-02 0.139E-04
 gam= 0.441 trial= 0.459  step= 0.649 mean= 0.459
 gam= 0.483 g(H,U,f)=  0.136E-02 0.219E-03 0.788E-07 ort(H,U,f) =-0.624E-03 0.601E-03 0.182E-06
CGA:  39    -0.938245821587E+03   -0.10619E-02   -0.10640E-02  5000   0.158E-02-0.222E-04
 gam= 0.483 trial= 0.469  step= 0.528 mean= 0.469
 gam= 0.409 g(H,U,f)=  0.584E-03 0.621E-04 0.315E-06 ort(H,U,f) =-0.251E-03 0.231E-03-0.332E-06
CGA:  40    -0.938246235354E+03   -0.41377E-03   -0.41437E-03  5000   0.646E-03-0.202E-04
 gam= 0.409 trial= 0.471  step= 0.533 mean= 0.471
 gam= 0.340 g(H,U,f)=  0.205E-03 0.147E-04 0.843E-07 ort(H,U,f) =-0.687E-04 0.614E-04 0.929E-07
CGA:  41    -0.938246405169E+03   -0.16982E-03   -0.17004E-03  5000   0.220E-03-0.719E-05
 gam= 0.340 trial= 0.475  step= 0.545 mean= 0.475
 gam= 0.299 g(H,U,f)=  0.640E-04 0.170E-05 0.324E-07 ort(H,U,f) =-0.770E-05 0.745E-05-0.716E-07
CGA:  42    -0.938246464299E+03   -0.59130E-04   -0.59143E-04  5000   0.657E-04-0.317E-06
 gam= 0.299 trial= 0.478  step= 0.477 mean= 0.478
 gam= 0.396 g(H,U,f)=  0.251E-04 0.864E-06 0.210E-07 ort(H,U,f) =-0.159E-05 0.851E-06 0.876E-08
CGA:  43    -0.938246479959E+03   -0.15660E-04   -0.15659E-04  5000   0.260E-04-0.733E-06
 gam= 0.396 trial= 0.478  step= 0.518 mean= 0.478
 gam= 0.366 g(H,U,f)=  0.922E-05 0.294E-06 0.223E-10 ort(H,U,f) =-0.140E-05 0.102E-06-0.773E-09
CGA:  44    -0.938246486595E+03   -0.66364E-05   -0.66623E-05  5000   0.952E-05-0.130E-05
 gam= 0.366 trial= 0.480  step= 0.507 mean= 0.480
 final diagonalization
   1 F= -.93824649E+03 E0= -.93824299E+03  d E =-.699754E-02
 writing wavefunctions
Warning: ieee_invalid is signaling
Warning: ieee_divide_by_zero is signaling
Warning: ieee_underflow is signaling
Warning: ieee_inexact is signaling
FORTRAN STOP
Warning: ieee_invalid is signaling
Warning: ieee_divide_by_zero is signaling
Warning: ieee_underflow is signaling
Warning: ieee_inexact is signaling
FORTRAN STOP
Warning: ieee_invalid is signaling
Warning: ieee_divide_by_zero is signaling
Warning: ieee_underflow is signaling
Warning: ieee_inexact is signaling
FORTRAN STOP
Warning: ieee_invalid is signaling
Warning: ieee_divide_by_zero is signaling
Warning: ieee_underflow is signaling
Warning: ieee_inexact is signaling
FORTRAN STOP
