       N       E                     dE             d eps       ncg     rms          ort
DAV:   1    -0.180642057555E+05   -0.18064E+05   -0.54582E+05  5064   0.752E+03
DAV:   2    -0.645988487134E+05   -0.46535E+05   -0.44727E+05  5064   0.128E+03
DAV:   3    -0.710470655781E+05   -0.64482E+04   -0.59097E+04  5064   0.408E+02
DAV:   4    -0.720282492712E+05   -0.98118E+03   -0.91174E+03  5064   0.140E+02
DAV:   5    -0.424289072407E+05    0.29599E+05   -0.71883E+02  5064   0.602E+01
SDA:   6     0.526851642214E+05    0.95114E+05   -0.71883E+02  5064   0.113E+06 0.000E+00
CGA:   7     0.629107780428E+05    0.10226E+05    0.14208E+05  5064   0.539E+06-0.153E+05
CGA:   8     0.474412199160E+05   -0.15470E+05   -0.89857E+05  5064   0.179E+06-0.146E+05
CGA:   9     0.501087979920E+05    0.26676E+04   -0.31530E+05  5064   0.464E+06 0.263E+05
CGA:  10     0.527648726781E+05    0.26561E+04   -0.92704E+05  5064   0.312E+06-0.733E+04
CGA:  11     0.653945314361E+05    0.12630E+05   -0.51211E+05  5064   0.596E+06 0.153E+04
CGA:  12     0.633469534844E+05   -0.20476E+04   -0.98320E+05  5064   0.443E+06-0.101E+05
CGA:  13     0.785918186707E+05    0.15245E+05   -0.66837E+05  5064   0.962E+06-0.285E+05
CGA:  14     0.997172989789E+05    0.21125E+05   -0.13581E+06  5064   0.789E+06-0.304E+04
CGA:  15     0.109091778273E+06    0.93745E+04   -0.11822E+06  5064   0.119E+07-0.838E+03
CGA:  16     0.121488477308E+06    0.12397E+05   -0.17446E+06  5064   0.737E+06 0.773E+04
CGA:  17     0.126979693655E+06    0.54912E+04   -0.10744E+06  5064   0.122E+07 0.133E+05
CGA:  18     0.133116882174E+06    0.61372E+04   -0.17576E+06  5064   0.545E+06 0.321E+05
CGA:  19     0.138811529352E+06    0.56946E+04   -0.77583E+05  5064   0.104E+07 0.236E+05
CGA:  20     0.137455650524E+06   -0.13559E+04   -0.14841E+06  5064   0.410E+06 0.653E+05
CGA:  21     0.142673596523E+06    0.52179E+04   -0.56424E+05  5064   0.753E+06 0.161E+05
CGA:  22     0.160073994412E+06    0.17400E+05   -0.94292E+05  5064   0.427E+06-0.494E+05
CGA:  23     0.173940510579E+06    0.13867E+05   -0.46311E+05  5064   0.762E+06-0.934E+04
CGA:  24     0.189971792544E+06    0.16031E+05   -0.84723E+05  5064   0.376E+06-0.120E+05
CGA:  25     0.200576948495E+06    0.10605E+05   -0.40737E+05  5064   0.668E+06-0.804E+04
CGA:  26     0.218222820959E+06    0.17646E+05   -0.69107E+05  5064   0.308E+06-0.216E+05
CGA:  27     0.229042525459E+06    0.10820E+05   -0.30869E+05  5064   0.520E+06-0.869E+03
CGA:  28     0.243493667288E+06    0.14451E+05   -0.52233E+05  5064   0.263E+06 0.384E+03
CGA:  29     0.250952527116E+06    0.74589E+04   -0.26374E+05  5064   0.375E+06 0.304E+05
CGA:  30     0.261195925293E+06    0.10243E+05   -0.40001E+05  5064   0.255E+06 0.251E+05
CGA:  31     0.266474409154E+06    0.52785E+04   -0.25621E+05  5064   0.264E+06 0.498E+05
CGA:  32     0.272880334770E+06    0.64059E+04   -0.28039E+05  5064   0.233E+06 0.436E+05
CGA:  33     0.280134126598E+06    0.72538E+04   -0.22190E+05  5064   0.196E+06 0.534E+05
CGA:  34     0.277544158990E+06   -0.25900E+04   -0.20053E+05  5064   0.263E+06 0.180E+06
CGA:  35     0.176438330887E+06   -0.10111E+06    0.31886E+06  5064   0.259E+06 0.171E+06
CGA:  36     0.904502377628E+05   -0.85988E+05   -0.84987E+05  5064   0.863E+05 0.259E+05
CGA:  37     0.517960823363E+05   -0.38654E+05   -0.36834E+05  5064   0.194E+05 0.151E+05
CGA:  38     0.359138175702E+05   -0.15882E+05   -0.34571E+03  5064   0.266E+05-0.395E+04
CGA:  39     0.228458962607E+05   -0.13068E+05   -0.12313E+05  5064   0.278E+04 0.332E+04
CGA:  40     0.360387609603E+05    0.13193E+05    0.13591E+04  5064   0.194E+05 0.134E+04
CGA:  41     0.239685577235E+05   -0.12070E+05   -0.14725E+05  5064   0.479E+04 0.491E+04
CGA:  42     0.178966843654E+05   -0.60719E+04   -0.76196E+04  5064   0.477E+04-0.367E+04
CGA:  43     0.176550631389E+05   -0.24162E+03   -0.53513E+04  5064   0.251E+05-0.111E+05
CGA:  44     0.890853680558E+04   -0.87465E+04   -0.70767E+04  5064   0.365E+04 0.836E+04
CGA:  45     0.794307392181E+04   -0.96546E+03   -0.56120E+03  5064   0.192E+04 0.327E+04
CGA:  46     0.662364074287E+04   -0.13194E+04   -0.15478E+04  5064   0.496E+04-0.138E+04
CGA:  47     0.553100280773E+04   -0.10926E+04   -0.97173E+03  5064   0.803E+03 0.994E+03
CGA:  48     0.493420120242E+04   -0.59680E+03   -0.59441E+03  5064   0.185E+04-0.302E+02
CGA:  49     0.458985844323E+04   -0.34434E+03   -0.20597E+03  5064   0.194E+04 0.134E+04
CGA:  50     0.396413251401E+04   -0.62573E+03   -0.69810E+03  5064   0.780E+03-0.289E+02
CGA:  51     0.291463756664E+04   -0.10495E+04   -0.10805E+04  5064   0.446E+04-0.197E+03
CGA:  52     0.150169548786E+04   -0.14129E+04   -0.15158E+04  5064   0.309E+04 0.230E+03
CGA:  53     0.715181560858E+03   -0.78651E+03   -0.99689E+03  5064   0.479E+03 0.699E+02
CGA:  54     0.348374393571E+03   -0.36681E+03   -0.37357E+03  5064   0.723E+03-0.528E+02
CGA:  55     0.224374974253E+02   -0.32594E+03   -0.31313E+03  5064   0.594E+03-0.115E+02
CGA:  56    -0.150988706317E+03   -0.17343E+03   -0.17495E+03  5064   0.263E+03 0.380E+02
CGA:  57    -0.292484305160E+03   -0.14150E+03   -0.14325E+03  5064   0.311E+03 0.884E+01
CGA:  58    -0.469757692973E+03   -0.17727E+03   -0.17585E+03  5064   0.329E+03-0.295E+02
CGA:  59    -0.562329017231E+03   -0.92571E+02   -0.10008E+03  5064   0.157E+03 0.814E+01
CGA:  60    -0.640926924497E+03   -0.78598E+02   -0.80138E+02  5064   0.999E+02 0.662E+01
CGA:  61    -0.712412045326E+03   -0.71485E+02   -0.70811E+02  5064   0.757E+02 0.331E+01
CGA:  62    -0.761679521348E+03   -0.49267E+02   -0.49113E+02  5064   0.439E+02 0.188E+01
CGA:  63    -0.790335125156E+03   -0.28656E+02   -0.28612E+02  5064   0.326E+02 0.527E+00
CGA:  64    -0.809335263779E+03   -0.19000E+02   -0.19007E+02  5064   0.188E+02 0.260E+00
CGA:  65    -0.820639563736E+03   -0.11304E+02   -0.11301E+02  5064   0.136E+02 0.258E+00
CGA:  66    -0.828959771584E+03   -0.83202E+01   -0.83209E+01  5064   0.854E+01-0.228E-01
CGA:  67    -0.832960028424E+03   -0.40003E+01   -0.39907E+01  5064   0.468E+01 0.657E-02
CGA:  68    -0.835492967512E+03   -0.25329E+01   -0.25322E+01  5064   0.342E+01-0.250E-02
CGA:  69    -0.837124763290E+03   -0.16318E+01   -0.16304E+01  5064   0.197E+01-0.121E-02
CGA:  70    -0.838142343176E+03   -0.10176E+01   -0.10178E+01  5064   0.124E+01 0.289E-02
CGA:  71    -0.838734611447E+03   -0.59227E+00   -0.59067E+00  5064   0.749E+00-0.431E-02
CGA:  72    -0.839123063525E+03   -0.38845E+00   -0.38826E+00  5064   0.637E+00-0.121E-02
CGA:  73    -0.839419980210E+03   -0.29692E+00   -0.29656E+00  5064   0.423E+00-0.456E-03
CGA:  74    -0.839589607104E+03   -0.16963E+00   -0.16936E+00  5064   0.276E+00 0.220E-03
CGA:  75    -0.839707795837E+03   -0.11819E+00   -0.11805E+00  5064   0.206E+00 0.568E-04
CGA:  76    -0.839795409293E+03   -0.87613E-01   -0.87561E-01  5064   0.134E+00 0.729E-04
CGA:  77    -0.839848708656E+03   -0.53299E-01   -0.53163E-01  5064   0.795E-01-0.708E-04
CGA:  78    -0.839884196772E+03   -0.35488E-01   -0.35470E-01  5064   0.566E-01-0.538E-04
CGA:  79    -0.839908476503E+03   -0.24280E-01   -0.24266E-01  5064   0.391E-01-0.192E-04
SDA:  80    -0.839925155815E+03   -0.16679E-01   -0.16664E-01  5064   0.302E-01-0.107E-04
CGA:  81    -0.839942942719E+03   -0.17787E-01   -0.17798E-01  5064   0.115E-01-0.957E-04
CGA:  82    -0.839951656948E+03   -0.87142E-02   -0.87164E-02  5064   0.417E-02-0.753E-05
CGA:  83    -0.839954036513E+03   -0.23796E-02   -0.23804E-02  5064   0.142E-02-0.155E-04
CGA:  84    -0.839955022443E+03   -0.98593E-03   -0.98717E-03  5064   0.848E-03-0.684E-05
CGA:  85    -0.839955499320E+03   -0.47688E-03   -0.47696E-03  5064   0.419E-03-0.293E-05
CGA:  86    -0.839955727904E+03   -0.22858E-03   -0.22858E-03  5064   0.148E-03 0.444E-06
CGA:  87    -0.839955818844E+03   -0.90940E-04   -0.90941E-04  5064   0.663E-04 0.159E-06
CGA:  88    -0.839955859376E+03   -0.40532E-04   -0.40559E-04  5064   0.355E-04-0.375E-06
CGA:  89    -0.839955885978E+03   -0.26603E-04   -0.26681E-04  5064   0.145E-04-0.328E-06
CGA:  90    -0.839955894457E+03   -0.84786E-05   -0.84783E-05  5064   0.806E-05 0.205E-07
   1 F= -.83995589E+03 E0= -.83995375E+03  d E =-.428464E-02
