       N       E                     dE             d eps       ncg     rms          ort
DAV:   1    -0.183442074479E+05   -0.18344E+05   -0.54235E+05  5000   0.749E+03
DAV:   2    -0.628210241240E+05   -0.44477E+05   -0.42998E+05  5000   0.123E+03
DAV:   3    -0.678548679405E+05   -0.50338E+04   -0.45601E+04  5000   0.374E+02
DAV:   4    -0.685590750182E+05   -0.70421E+03   -0.62347E+03  5000   0.117E+02
DAV:   5    -0.389624422694E+05    0.29597E+05   -0.69859E+02  5000   0.565E+01
SDA:   6     0.330297097536E+05    0.71992E+05   -0.69859E+02  5000   0.100E+06 0.000E+00
CGA:   7     0.118182386358E+05   -0.21211E+05   -0.26435E+05  5000   0.563E+05-0.241E+05
CGA:   8     0.542181564372E+04   -0.63964E+04   -0.58556E+04  5000   0.218E+05-0.785E+03
CGA:   9     0.342378522167E+04   -0.19980E+04   -0.27773E+04  5000   0.166E+05 0.192E+04
CGA:  10     0.174106312888E+04   -0.16827E+04   -0.22311E+04  5000   0.587E+04 0.109E+04
CGA:  11     0.448878737312E+03   -0.12922E+04   -0.12777E+04  5000   0.255E+04 0.680E+03
CGA:  12    -0.188684480682E+03   -0.63756E+03   -0.61770E+03  5000   0.107E+04 0.452E+03
CGA:  13    -0.581134622494E+03   -0.39245E+03   -0.38615E+03  5000   0.583E+03 0.111E+02
CGA:  14    -0.764628114196E+03   -0.18349E+03   -0.19788E+03  5000   0.370E+03-0.116E+03
CGA:  15    -0.825332456375E+03   -0.60704E+02   -0.60669E+02  5000   0.217E+03-0.106E+02
CGA:  16    -0.864753944151E+03   -0.39421E+02   -0.39617E+02  5000   0.114E+03 0.559E+01
CGA:  17    -0.890146955218E+03   -0.25393E+02   -0.25385E+02  5000   0.735E+02 0.123E+01
CGA:  18    -0.907642970564E+03   -0.17496E+02   -0.17481E+02  5000   0.494E+02 0.840E+00
CGA:  19    -0.919124492497E+03   -0.11482E+02   -0.11480E+02  5000   0.324E+02 0.226E+00
CGA:  20    -0.926434070979E+03   -0.73096E+01   -0.73123E+01  5000   0.214E+02 0.536E-01
CGA:  21    -0.931136399445E+03   -0.47023E+01   -0.46989E+01  5000   0.130E+02 0.319E+00
CGA:  22    -0.933935158576E+03   -0.27988E+01   -0.27980E+01  5000   0.710E+01 0.238E+00
CGA:  23    -0.935509477698E+03   -0.15743E+01   -0.15734E+01  5000   0.468E+01 0.106E+00
CGA:  24    -0.936548915595E+03   -0.10394E+01   -0.10391E+01  5000   0.300E+01 0.420E-01
CGA:  25    -0.937139900346E+03   -0.59098E+00   -0.59110E+00  5000   0.171E+01 0.119E-01
CGA:  26    -0.937528111357E+03   -0.38821E+00   -0.38819E+00  5000   0.118E+01 0.332E-02
CGA:  27    -0.937808865536E+03   -0.28075E+00   -0.28070E+00  5000   0.724E+00 0.226E-02
CGA:  28    -0.937976086441E+03   -0.16722E+00   -0.16719E+00  5000   0.404E+00 0.164E-02
CGA:  29    -0.938074842237E+03   -0.98756E-01   -0.98738E-01  5000   0.277E+00 0.608E-03
CGA:  30    -0.938139879212E+03   -0.65037E-01   -0.65035E-01  5000   0.178E+00 0.193E-03
CGA:  31    -0.938176627439E+03   -0.36748E-01   -0.36749E-01  5000   0.105E+00 0.121E-03
CGA:  32    -0.938199740713E+03   -0.23113E-01   -0.23113E-01  5000   0.713E-01 0.163E-03
CGA:  33    -0.938216658727E+03   -0.16918E-01   -0.16913E-01  5000   0.470E-01 0.224E-03
CGA:  34    -0.938227640092E+03   -0.10981E-01   -0.10979E-01  5000   0.277E-01 0.164E-03
CGA:  35    -0.938234530281E+03   -0.68902E-02   -0.68883E-02  5000   0.188E-01 0.610E-04
CGA:  36    -0.938239043239E+03   -0.45130E-02   -0.45132E-02  5000   0.122E-01-0.862E-05
SDA:  37    -0.938241685527E+03   -0.26423E-02   -0.26422E-02  5000   0.742E-02-0.219E-04
CGA:  38    -0.938244759726E+03   -0.30742E-02   -0.30715E-02  5000   0.327E-02 0.139E-04
CGA:  39    -0.938245821587E+03   -0.10619E-02   -0.10640E-02  5000   0.158E-02-0.222E-04
CGA:  40    -0.938246235354E+03   -0.41377E-03   -0.41437E-03  5000   0.646E-03-0.202E-04
CGA:  41    -0.938246405169E+03   -0.16982E-03   -0.17004E-03  5000   0.220E-03-0.719E-05
CGA:  42    -0.938246464299E+03   -0.59130E-04   -0.59143E-04  5000   0.657E-04-0.317E-06
CGA:  43    -0.938246479959E+03   -0.15660E-04   -0.15659E-04  5000   0.260E-04-0.733E-06
CGA:  44    -0.938246486595E+03   -0.66364E-05   -0.66623E-05  5000   0.952E-05-0.130E-05
   1 F= -.93824649E+03 E0= -.93824299E+03  d E =-.699754E-02
