 vasp.6.4.2 20Jul23 (build Nov 12 2023 22:16:35) complex                         
 executed on              LinuxNV date 2025.03.29  12:00:52
 running    4 mpi-ranks, on    1 nodes
 distrk:  each k-point on    1 cores,    4 groups
 distr:  one band on NCORE=   1 cores,    1 groups
 OpenACC runtime initialized ...    4 GPUs detected


--------------------------------------------------------------------------------------------------------


 INCAR:
   PREC = Normal
   ENCUT = 450
   NELM = 500
   IBRION = -1
   ISPIN = 1
   NSW = 0
   ISIF = 2
   EDIFF = 1E-5
   EDIFFG = -5E-3
   ISTART = 0
   ICHARG = 0
   ISMEAR = 0
   SIGMA = 0.05
   LWAVE = .T.
   LCHARG = .T.
   LREAL = Auto
   LPLANE = .TRUE.
   NPAR = 1
   KPAR = 4
   NCORE = 1
   ALGO = All
   LHFCALC = .TRUE.
   HSE06 = .TRUE.
   HFSCREEN = 0.2
   TIME = 0.4
   AEXX = 0.32
   LMAXFOCK = 4
   PRECFOCK = Fast
   NELECT = 1043

 POTCAR:    PAW_PBE Ga_d 06Jul2010                
 POTCAR:     PAW_PBE O 08Apr2002                  
 POTCAR:    PAW_PBE P 06Sep2000                   
 POTCAR:    PAW_PBE Ga_d 06Jul2010                
   SHA256 =  a60ddf36e14f00ea098d9e3914b3745f1b7105e68786148f49ae384e44b4226c Ga_d/POTCAR           
   COPYR  = (c) Copyright 06Jul2010 Georg Kresse                                                    
   COPYR  = This file is part of the software VASP. Any use, copying, and all other rights are regul
   COPYR  = If you do not have a valid VASP license, you may not use, copy or distribute this file. 
   VRHFIN =Ga: s2p1                                                                                 
   LEXCH  = PE                                                                                      
   EATOM  =  2148.8298 eV,  157.9345 Ry                                                             
                                                                                                    
   TITEL  = PAW_PBE Ga_d 06Jul2010                                                                  
   LULTRA =        F    use ultrasoft PP ?                                                          
   IUNSCR =        1    unscreen: 0-lin 1-nonlin 2-no                                               
   RPACOR =    1.700    partial core radius                                                         
   POMASS =   69.723; ZVAL   =   13.000    mass and valenz                                          
   RCORE  =    2.300    outmost cutoff radius                                                       
   RWIGS  =    2.300; RWIGS  =    1.217    wigner-seitz radius (au A)                               
   ENMAX  =  282.691; ENMIN  =  212.018 eV                                                          
   ICORE  =        3    local potential                                                             
   LCOR   =        T    correct aug charges                                                         
   LPAW   =        T    paw PP                                                                      
   EAUG   =  490.690                                                                                
   DEXC   =    0.000                                                                                
   RMAX   =    2.341    core radius for proj-oper                                                   
   RAUG   =    1.300    factor for augmentation sphere                                              
   RDEP   =    2.413    radius for radial grids                                                     
   RDEPT  =    1.856    core radius for aug-charge                                                  
                                                                                                    
   Atomic configuration                                                                             
    9 entries                                                                                       
     n  l   j            E        occ.                                                              
     1  0  0.50    -10228.7831   2.0000                                                             
     2  0  0.50     -1262.1604   2.0000                                                             
     2  1  1.50     -1098.6333   6.0000                                                             
     3  0  0.50      -148.1110   2.0000                                                             
     3  1  1.50       -98.8436   6.0000                                                             
     3  2  2.50       -19.1549  10.0000                                                             
     4  0  0.50        -8.9483   2.0000                                                             
     4  1  0.50        -2.5791   1.0000                                                             
     4  3  2.50        -2.7416   0.0000                                                             
   Description                                                                                      
     l       E           TYP  RCUT    TYP  RCUT                                                     
     2    -19.1549037     23  2.300                                                                 
     2     -5.4423304     23  2.300                                                                 
     0     -8.9483111     23  2.300                                                                 
     0     68.0291300     23  2.300                                                                 
     1     -2.5790802     23  2.100                                                                 
     1     81.6349560     23  2.300                                                                 
     3      6.8029130     23  2.300                                                                 
  local pseudopotential read in
  partial core-charges read in
  partial kinetic energy density read in
  atomic valenz-charges read in
  non local Contribution for L=            2  read in
    real space projection operators read in
  non local Contribution for L=            2  read in
    real space projection operators read in
  non local Contribution for L=            0  read in
    real space projection operators read in
  non local Contribution for L=            0  read in
    real space projection operators read in
  non local Contribution for L=            1  read in
    real space projection operators read in
  non local Contribution for L=            1  read in
    real space projection operators read in
    PAW grid and wavefunctions read in
 
   number of l-projection  operators is LMAX  =            6
   number of lm-projection operators is LMMAX =           18
 
 POTCAR:     PAW_PBE O 08Apr2002                  
   SHA256 =  818f92134a0a090dccd8ba1447fa70422a3b330e708bb4f08108d8ae51209ddf O/POTCAR              
   COPYR  = (c) Copyright 08Apr2002 Georg Kresse                                                    
   COPYR  = This file is part of the software VASP. Any use, copying, and all other rights are regul
   COPYR  = If you do not have a valid VASP license, you may not use, copy or distribute this file. 
   VRHFIN =O: s2p4                                                                                  
   LEXCH  = PE                                                                                      
   EATOM  =   432.3788 eV,   31.7789 Ry                                                             
                                                                                                    
   TITEL  = PAW_PBE O 08Apr2002                                                                     
   LULTRA =        F    use ultrasoft PP ?                                                          
   IUNSCR =        1    unscreen: 0-lin 1-nonlin 2-no                                               
   RPACOR =    1.200    partial core radius                                                         
   POMASS =   16.000; ZVAL   =    6.000    mass and valenz                                          
   RCORE  =    1.520    outmost cutoff radius                                                       
   RWIGS  =    1.550; RWIGS  =    0.820    wigner-seitz radius (au A)                               
   ENMAX  =  400.000; ENMIN  =  300.000 eV                                                          
   ICORE  =        2    local potential                                                             
   LCOR   =        T    correct aug charges                                                         
   LPAW   =        T    paw PP                                                                      
   EAUG   =  605.392                                                                                
   DEXC   =    0.000                                                                                
   RMAX   =    1.553    core radius for proj-oper                                                   
   RAUG   =    1.300    factor for augmentation sphere                                              
   RDEP   =    1.550    radius for radial grids                                                     
   RDEPT  =    1.329    core radius for aug-charge                                                  
                                                                                                    
   Atomic configuration                                                                             
    4 entries                                                                                       
     n  l   j            E        occ.                                                              
     1  0  0.50      -514.6923   2.0000                                                             
     2  0  0.50       -23.9615   2.0000                                                             
     2  1  0.50        -9.0305   4.0000                                                             
     3  2  1.50        -9.5241   0.0000                                                             
   Description                                                                                      
     l       E           TYP  RCUT    TYP  RCUT                                                     
     0    -23.9615318     23  1.200                                                                 
     0     -9.5240782     23  1.200                                                                 
     1     -9.0304911     23  1.520                                                                 
     1      8.1634956     23  1.520                                                                 
     2     -9.5240782      7  1.500                                                                 
  local pseudopotential read in
  partial core-charges read in
  partial kinetic energy density read in
  kinetic energy density of atom read in
  atomic valenz-charges read in
  non local Contribution for L=            0  read in
    real space projection operators read in
  non local Contribution for L=            0  read in
    real space projection operators read in
  non local Contribution for L=            1  read in
    real space projection operators read in
  non local Contribution for L=            1  read in
    real space projection operators read in
    PAW grid and wavefunctions read in
 
   number of l-projection  operators is LMAX  =            4
   number of lm-projection operators is LMMAX =            8
 
 POTCAR:    PAW_PBE P 06Sep2000                   
   SHA256 =  df60c54a93efe35c9e85ae94c010c75e9f6960a95d5595d7cdba4096d109af88 P/POTCAR              
   COPYR  = (c) Copyright 06Sep2000 Georg Kresse                                                    
   COPYR  = This file is part of the software VASP. Any use, copying, and all other rights are regul
   COPYR  = If you do not have a valid VASP license, you may not use, copy or distribute this file. 
   VRHFIN =P : s2p3                                                                                 
   LEXCH  = PE                                                                                      
   EATOM  =   176.0430 eV,   12.9388 Ry                                                             
                                                                                                    
   TITEL  = PAW_PBE P 06Sep2000                                                                     
   LULTRA =        F    use ultrasoft PP ?                                                          
   IUNSCR =        1    unscreen: 0-lin 1-nonlin 2-no                                               
   RPACOR =    1.500    partial core radius                                                         
   POMASS =   30.974; ZVAL   =    5.000    mass and valenz                                          
   RCORE  =    1.900    outmost cutoff radius                                                       
   RWIGS  =    2.330; RWIGS  =    1.233    wigner-seitz radius (au A)                               
   ENMAX  =  255.040; ENMIN  =  191.280 eV                                                          
   ICORE  =        2    local potential                                                             
   LCOR   =        T    correct aug charges                                                         
   LPAW   =        T    paw PP                                                                      
   EAUG   =  342.924                                                                                
   DEXC   =    0.000                                                                                
   RMAX   =    1.935    core radius for proj-oper                                                   
   RAUG   =    1.300    factor for augmentation sphere                                              
   RDEP   =    1.931    radius for radial grids                                                     
   RDEPT  =    1.794    core radius for aug-charge                                                  
                                                                                                    
   Atomic configuration                                                                             
    6 entries                                                                                       
     n  l   j            E        occ.                                                              
     1  0  0.50     -2084.0982   2.0000                                                             
     2  0  0.50      -173.9859   2.0000                                                             
     2  1  1.50      -124.4865   6.0000                                                             
     3  0  0.50       -13.9692   2.0000                                                             
     3  1  0.50        -5.5067   3.0000                                                             
     3  2  1.50        -5.4423   0.0000                                                             
   Description                                                                                      
     l       E           TYP  RCUT    TYP  RCUT                                                     
     0    -13.9691527     23  1.900                                                                 
     0    -11.7794650     23  1.900                                                                 
     1     -5.5066937     23  1.900                                                                 
     1     -0.2556953     23  1.900                                                                 
     2     -5.4423304     23  1.900                                                                 
  local pseudopotential read in
  partial core-charges read in
  partial kinetic energy density read in
  atomic valenz-charges read in
  non local Contribution for L=            0  read in
    real space projection operators read in
  non local Contribution for L=            0  read in
    real space projection operators read in
  non local Contribution for L=            1  read in
    real space projection operators read in
  non local Contribution for L=            1  read in
    real space projection operators read in
    PAW grid and wavefunctions read in
 
   number of l-projection  operators is LMAX  =            4
   number of lm-projection operators is LMMAX =            8
 
 Optimization of the real space projectors (new method)

 maximal supplied QI-value         = 16.25
 optimisation between [QCUT,QGAM] = [ 10.73, 21.61] = [ 32.22,130.83] Ry 
 Optimized for a Real-space Cutoff    1.42 Angstroem

   l    n(q)    QCUT    max X(q) W(low)/X(q) W(high)/X(q)  e(spline) 
   2      8    10.726     7.143    0.22E-03    0.16E-03    0.73E-07
   2      8    10.726     5.586    0.40E-03    0.26E-03    0.10E-06
   0      9    10.726    12.382    0.25E-04    0.21E-05    0.37E-07
   0      9    10.726     6.622    0.42E-04    0.48E-05    0.77E-07
   1      9    10.726     7.935    0.27E-03    0.13E-04    0.16E-06
   1      9    10.726     2.425    0.23E-03    0.15E-04    0.14E-06
 Optimization of the real space projectors (new method)

 maximal supplied QI-value         = 24.76
 optimisation between [QCUT,QGAM] = [ 10.64, 21.54] = [ 31.73,129.89] Ry 
 Optimized for a Real-space Cutoff    1.23 Angstroem

   l    n(q)    QCUT    max X(q) W(low)/X(q) W(high)/X(q)  e(spline) 
   0      8    10.645    20.381    0.38E-03    0.60E-03    0.15E-06
   0      8    10.645    15.268    0.40E-03    0.65E-03    0.17E-06
   1      7    10.645     5.964    0.30E-03    0.63E-03    0.18E-06
   1      7    10.645     5.382    0.24E-03    0.53E-03    0.16E-06
 Optimization of the real space projectors (new method)

 maximal supplied QI-value         = 19.84
 optimisation between [QCUT,QGAM] = [ 10.71, 21.63] = [ 32.15,130.99] Ry 
 Optimized for a Real-space Cutoff    1.19 Angstroem

   l    n(q)    QCUT    max X(q) W(low)/X(q) W(high)/X(q)  e(spline) 
   0      8    10.715   160.924    0.37E-03    0.37E-04    0.63E-07
   0      8    10.715   130.086    0.37E-03    0.36E-04    0.63E-07
   1      7    10.715    74.434    0.19E-03    0.56E-03    0.65E-07
   1      7    10.715    49.120    0.19E-03    0.55E-03    0.63E-07
  PAW_PBE Ga_d 06Jul2010                :
 energy of atom  1       EATOM=-2148.8298
 kinetic energy error for atom=    0.0038 (will be added to EATOM!!)
   PAW_PBE O 08Apr2002                  :
 energy of atom  2       EATOM= -432.3788
 kinetic energy error for atom=    0.0389 (will be added to EATOM!!)
  PAW_PBE P 06Sep2000                   :
 energy of atom  3       EATOM= -176.0430
 kinetic energy error for atom=    0.0019 (will be added to EATOM!!)
 
 
 POSCAR: Ga48 O72
  positions in direct lattice
  velocities in cartesian coordinates
 exchange correlation table for  LEXCH =        8
   RHO(1)=    0.500       N(1)  =     2000
   RHO(2)=  100.500       N(2)  =     4000
 


--------------------------------------------------------------------------------------------------------


 ion  position               nearest neighbor table
   1  0.660  0.999  0.159-  84 1.95  78 1.96  82 1.96  66 2.03  60 2.07  64 2.07
   2  0.659  0.998  0.657-  85 1.95  79 1.95  83 1.95  67 2.03  61 2.08  65 2.08
   3  0.658  0.331  0.160-  86 1.94  78 1.96  80 1.97  68 2.03  60 2.06  62 2.08
   4  0.659  0.331  0.657-  87 1.94  79 1.95  81 1.96  69 2.03  61 2.08  63 2.08
   5  0.660  0.667  0.159-  82 1.95  88 1.95  80 1.97  70 2.03  62 2.07  64 2.07
   6  0.659  0.665  0.658-  89 1.94  81 1.95  83 1.95  71 2.03  63 2.07  65 2.08
   7  0.846  0.162  0.346-  72 1.94  90 1.95  74 1.95  66 2.05  60 2.07  68 2.10
   8  0.840  0.164  0.842-  91 1.94  73 1.95  75 1.97  61 2.01  69 2.06  67 2.07
   9  0.842  0.499  0.345-  92 1.94  76 1.94  74 1.95  62 2.02  68 2.07  70 2.10
  10  0.841  0.500  0.843-  75 1.95  93 1.96  77 1.97  63 2.02  71 2.05  69 2.08
  11  0.846  0.834  0.346-  94 1.93  72 1.95  76 1.96  64 2.06  70 2.07  66 2.10
  12  0.840  0.832  0.844-  95 1.93  77 1.95  73 1.97  65 2.02  67 2.07  71 2.08
  13  0.590  0.163  0.398-  79 1.85  56 1.85  54 1.85  60 1.88
  14  0.591  0.165  0.899-  78 1.84  55 1.85  57 1.85  61 1.88
  15  0.594  0.501  0.400-  81 1.84  56 1.84  58 1.85  62 1.87
  16  0.593  0.498  0.900-  80 1.85  59 1.85  57 1.85  63 1.87
  17  0.589  0.834  0.398-  54 1.85  83 1.85  58 1.86  64 1.88
  18  0.591  0.831  0.899-  82 1.85  55 1.85  59 1.85  65 1.88
  19  0.910  0.006  0.104-  73 1.83  52 1.85  66 1.86  48 1.91
  20  0.911  0.998  0.602-  72 1.84  53 1.84  49 1.84  67 1.89
  21  0.899  0.348  0.099-  75 1.82  68 1.84  50 1.85  48 1.89
  22  0.910  0.331  0.604-  74 1.84  49 1.84  51 1.85  69 1.87
  23  0.909  0.676  0.103-  77 1.84  50 1.85  52 1.86  70 1.87
  24  0.909  0.665  0.604-  76 1.84  53 1.84  51 1.85  71 1.87
  25  0.160  0.161  0.654- 114 1.92  49 1.95 116 1.95 102 2.03  96 2.07  98 2.13
  26  0.157  0.507  0.161- 117 1.92  50 1.94  99 1.99 103 2.02  97 2.05 115 2.07 119 2.94
  27  0.159  0.498  0.659-  51 1.94 116 1.95 118 1.95 104 2.02 100 2.05  98 2.09
  28  0.161  0.833  0.150- 113 1.88  52 1.94 117 1.95 105 1.98  99 2.15
  29  0.160  0.833  0.653- 114 1.92  53 1.95 118 1.95 106 2.03  96 2.08 100 2.12
  30  0.331  0.002  0.345- 107 1.97 111 1.99  54 2.01 101 2.05 105 2.10  36 2.75
  31  0.340  0.998  0.846-  55 1.95 112 1.95 108 1.97  96 2.01 102 2.08 106 2.09
  32  0.347  0.331  0.344-  56 1.92 109 1.95 107 1.95 101 1.97 103 2.06  97 2.24
  33  0.341  0.330  0.845-  57 1.95 108 1.95 110 1.96  98 2.02 102 2.06 104 2.08
  34  0.341  0.665  0.346- 111 1.93  58 1.94 109 1.95  99 2.03 105 2.09 103 2.12
  35  0.341  0.664  0.844- 112 1.95  59 1.95 110 1.97 100 2.02 106 2.07 104 2.08
  36  0.118  0.992  0.381- 114 1.95  94 1.96  90 1.99  30 2.75
  37  0.092  0.992  0.897- 113 1.82  95 1.85  91 1.86  96 1.87
  38  0.086  0.327  0.402-  90 1.83 116 1.83  92 1.85  97 1.93
  39  0.091  0.324  0.898-  91 1.83  93 1.85  98 1.86 115 1.93
  40  0.089  0.667  0.399-  94 1.83 118 1.84  92 1.85  99 1.89
  41  0.091  0.661  0.896-  95 1.85 117 1.85  93 1.85 100 1.86
  42  0.407  0.164  0.106- 108 1.85  84 1.85 101 1.85  86 1.86
  43  0.409  0.165  0.605- 107 1.84  85 1.85  87 1.85 102 1.87
  44  0.409  0.499  0.104- 110 1.84  86 1.85  88 1.85 103 1.89
  45  0.408  0.497  0.602-  87 1.85  89 1.85 109 1.85 104 1.87
  46  0.409  0.833  0.104- 112 1.84  84 1.84  88 1.85 105 1.89
  47  0.411  0.831  0.605- 111 1.84  85 1.85  89 1.85 106 1.87
  48  0.995  0.183  0.123- 119 1.74  21 1.89  19 1.91
  49  0.997  0.165  0.629-  22 1.84  20 1.84  25 1.95
  50  0.994  0.507  0.127-  21 1.85  23 1.85  26 1.94
  51  0.997  0.498  0.630-  22 1.85  24 1.85  27 1.94
  52  1.000  0.841  0.130-  19 1.85  23 1.86  28 1.94
  53  0.998  0.831  0.629-  24 1.84  20 1.84  29 1.95
  54  0.499  0.999  0.375-  17 1.85  13 1.85  30 2.01
  55  0.503  0.999  0.875-  18 1.85  14 1.85  31 1.95
  56  0.508  0.334  0.376-  15 1.84  13 1.85  32 1.92
  57  0.504  0.332  0.875-  16 1.85  14 1.85  33 1.95
  58  0.503  0.665  0.372-  15 1.85  17 1.86  34 1.94
  59  0.504  0.664  0.875-  16 1.85  18 1.85  35 1.95
  60  0.674  0.165  0.282-  13 1.88   3 2.06   7 2.07   1 2.07
  61  0.672  0.164  0.781-  14 1.88   8 2.01   2 2.08   4 2.08
  62  0.674  0.500  0.282-  15 1.87   9 2.02   5 2.07   3 2.08
  63  0.673  0.498  0.781-  16 1.87  10 2.02   6 2.07   4 2.08
  64  0.674  0.834  0.282-  17 1.88  11 2.06   1 2.07   5 2.07
  65  0.672  0.832  0.782-  18 1.88  12 2.02   6 2.08   2 2.08
  66  0.829  0.002  0.220-  19 1.86   1 2.03   7 2.05  11 2.10
  67  0.828  0.997  0.720-  20 1.89   2 2.03  12 2.07   8 2.07
  68  0.828  0.333  0.222-  21 1.84   3 2.03   9 2.07   7 2.10
  69  0.828  0.331  0.721-  22 1.87   4 2.03   8 2.06  10 2.08
  70  0.829  0.669  0.221-  23 1.87   5 2.03  11 2.07   9 2.10
  71  0.828  0.664  0.721-  24 1.87   6 2.03  10 2.05  12 2.08
  72  0.831  0.998  0.447-  20 1.84   7 1.94  11 1.95
  73  0.834  0.001  0.948-  19 1.83   8 1.95  12 1.97
  74  0.836  0.330  0.446-  22 1.84   7 1.95   9 1.95
  75  0.829  0.333  0.944-  21 1.82  10 1.95   8 1.97
  76  0.834  0.666  0.447-  24 1.84   9 1.94  11 1.96
  77  0.832  0.667  0.947-  23 1.84  12 1.95  10 1.97
  78  0.669  0.166  0.056-  14 1.84   1 1.96   3 1.96
  79  0.668  0.165  0.555-  13 1.85   2 1.95   4 1.95
  80  0.670  0.498  0.057-  16 1.85   5 1.97   3 1.97
  81  0.671  0.498  0.556-  15 1.84   6 1.95   4 1.96
  82  0.669  0.833  0.056-  18 1.85   5 1.95   1 1.96
  83  0.667  0.831  0.555-  17 1.85   2 1.95   6 1.95
  84  0.497  0.999  0.129-  46 1.84  42 1.85   1 1.95
  85  0.497  0.999  0.629-  43 1.85  47 1.85   2 1.95
  86  0.496  0.332  0.129-  44 1.85  42 1.86   3 1.94
  87  0.497  0.332  0.628-  45 1.85  43 1.85   4 1.94
  88  0.496  0.666  0.130-  44 1.85  46 1.85   5 1.95
  89  0.497  0.662  0.628-  45 1.85  47 1.85   6 1.94
  90  0.009  0.155  0.369-  38 1.83   7 1.95  36 1.99
  91  0.003  0.159  0.875-  39 1.83  37 1.86   8 1.94
  92  0.004  0.498  0.373-  38 1.85  40 1.85   9 1.94
  93  0.005  0.492  0.878-  39 1.85  41 1.85  10 1.96
  94  0.007  0.836  0.374-  40 1.83  11 1.93  36 1.96
  95  0.002  0.826  0.873-  41 1.85  37 1.85  12 1.93
  96  0.173  0.997  0.780-  37 1.87  31 2.01  25 2.07  29 2.08
  97  0.161  0.334  0.274- 119 1.81  38 1.93  26 2.05  32 2.24
  98  0.173  0.329  0.783-  39 1.86  33 2.02  27 2.09  25 2.13
  99  0.172  0.666  0.281-  40 1.89  26 1.99  34 2.03  28 2.15
 100  0.173  0.664  0.780-  41 1.86  35 2.02  27 2.05  29 2.12
 101  0.335  0.169  0.229-  42 1.85  32 1.97  30 2.05 119 2.33
 102  0.328  0.165  0.722-  43 1.87  25 2.03  33 2.06  31 2.08
 103  0.325  0.496  0.219-  44 1.89  26 2.02  32 2.06  34 2.12
 104  0.328  0.497  0.721-  45 1.87  27 2.02  33 2.08  35 2.08
 105  0.325  0.833  0.221-  46 1.89  28 1.98  34 2.09  30 2.10
 106  0.329  0.830  0.721-  47 1.87  29 2.03  35 2.07  31 2.09
 107  0.330  0.172  0.449-  43 1.84  32 1.95  30 1.97
 108  0.331  0.165  0.949-  42 1.85  33 1.95  31 1.97
 109  0.331  0.496  0.444-  45 1.85  32 1.95  34 1.95
 110  0.329  0.496  0.948-  44 1.84  33 1.96  35 1.97
 111  0.335  0.828  0.449-  47 1.84  34 1.93  30 1.99
 112  0.333  0.830  0.947-  46 1.84  35 1.95  31 1.95
 113  0.173  0.991  0.049-  37 1.82  28 1.88 119 2.34
 114  0.168  0.997  0.552-  29 1.92  25 1.92  36 1.95
 115  0.157  0.317  0.066- 119 1.70  39 1.93  26 2.07
 116  0.167  0.332  0.556-  38 1.83  27 1.95  25 1.95
 117  0.168  0.661  0.053-  41 1.85  26 1.92  28 1.95
 118  0.169  0.663  0.555-  40 1.84  29 1.95  27 1.95
 119  0.140  0.187  0.166- 115 1.70  48 1.74  97 1.81 101 2.33 113 2.34  26 2.94
 
  LATTYP: Found a simple monoclinic cell.
 ALAT       =    11.6348202465
 B/A-ratio  =     0.7858051831
 C/A-ratio  =     1.0554931797
 COS(beta)  =    -0.2379290539
  
  Lattice vectors:
  
 A1 = (   0.0000000000,  -2.7682617730, -11.3006977184)
 A2 = (  -9.1427020537,   0.0000000000,   0.0000000000)
 A3 = (   0.0000000000,  12.2804734172,   0.0000000000)


Analysis of symmetry for initial positions (statically):
=====================================================================
 Subroutine PRICEL returns:
 Original cell was already a primitive cell.
 

 Routine SETGRP: Setting up the symmetry group for a 
 simple monoclinic supercell.


 Subroutine GETGRP returns: Found  1 space group operations
 (whereof  1 operations were pure point group operations)
 out of a pool of  4 trial point group operations.


The static configuration has the point symmetry C_1 .


Analysis of symmetry for dynamics (positions and initial velocities):
=====================================================================
 Subroutine PRICEL returns:
 Original cell was already a primitive cell.
 

 Routine SETGRP: Setting up the symmetry group for a 
 simple monoclinic supercell.


 Subroutine GETGRP returns: Found  1 space group operations
 (whereof  1 operations were pure point group operations)
 out of a pool of  4 trial point group operations.


The dynamic configuration has the point symmetry C_1 .


 Subroutine INISYM returns: Found  1 space group operations
 (whereof  1 operations are pure point group operations),
 and found     1 'primitive' translations


----------------------------------------------------------------------------------------

                                     Primitive cell                                     

  volume of cell :    1268.8052

  direct lattice vectors                    reciprocal lattice vectors
     0.000000000 12.280473417  0.000000000     0.000000000  0.081430085 -0.019947423
     9.142702054  0.000000000  0.000000000     0.109376855 -0.000000000  0.000000000
     0.000000000 -2.768261773-11.300697718     0.000000000  0.000000000 -0.088490111

  length of vectors
    12.280473417  9.142702054 11.634820246     0.083837691  0.109376855  0.088490111

  position of ions in fractional coordinates (direct lattice)
     0.659570314  0.999339440  0.158738243
     0.659248847  0.997977888  0.656531568
     0.658058170  0.331271425  0.159834859
     0.658905859  0.331148184  0.657220532
     0.659968649  0.666860586  0.158976104
     0.658946964  0.664626523  0.657856543
     0.846234733  0.162460375  0.345698963
     0.840201590  0.164497875  0.842193120
     0.841842372  0.499417567  0.345115795
     0.840825525  0.499635094  0.842834218
     0.845514625  0.833720351  0.346001389
     0.840367814  0.832466707  0.843637023
     0.590483587  0.162621362  0.397883530
     0.591441025  0.164743588  0.899415147
     0.593932477  0.500890768  0.400202142
     0.592567007  0.497824572  0.899810902
     0.589030219  0.833966783  0.397636607
     0.590512091  0.831468268  0.899167659
     0.909914913  0.005969373  0.103657842
     0.911119561  0.997585885  0.602414608
     0.898811032  0.348083507  0.099494836
     0.909659835  0.331095293  0.604022785
     0.908631277  0.675946566  0.103279836
     0.909464009  0.665029518  0.603716307
     0.159768081  0.160661117  0.654087974
     0.156572581  0.507417216  0.161262612
     0.159280550  0.497898074  0.658505060
     0.161195386  0.833481600  0.149632573
     0.160144574  0.832834774  0.652787666
     0.330974028  0.001767347  0.344975067
     0.340128312  0.997743771  0.845521474
     0.347207254  0.331223487  0.343849871
     0.341323131  0.330173796  0.845016315
     0.340857197  0.665497976  0.345533931
     0.340831023  0.663754438  0.844332797
     0.117858178  0.991704656  0.380668773
     0.091845680  0.991616922  0.896786782
     0.085897511  0.326502130  0.401743292
     0.090543082  0.323554119  0.898093107
     0.089475794  0.667223892  0.398716600
     0.090645071  0.660652499  0.895676985
     0.406767686  0.164457820  0.106208147
     0.409228374  0.165040192  0.604721532
     0.409445565  0.499050922  0.103513385
     0.407500299  0.497145995  0.602257325
     0.408704984  0.833105463  0.103950712
     0.410631356  0.830747032  0.605284175
     0.994723472  0.183037943  0.123132044
     0.997318275  0.165007187  0.628980873
     0.994077598  0.507038889  0.126543306
     0.996771972  0.498119867  0.630423009
     0.999750991  0.841118743  0.129800510
     0.997542932  0.830536049  0.629344640
     0.499432702  0.998752005  0.375275133
     0.503202480  0.998512917  0.874546673
     0.507958324  0.333861262  0.376046417
     0.504072385  0.331797112  0.874796863
     0.503243364  0.664751605  0.372495616
     0.503859508  0.663634744  0.875037361
     0.674083177  0.164995014  0.282383049
     0.672345898  0.164114134  0.781160783
     0.674111463  0.500135775  0.282315099
     0.672610046  0.498487505  0.781224483
     0.673771721  0.833701697  0.282448353
     0.672357133  0.831796358  0.781668339
     0.829140972  0.001522001  0.219770531
     0.827908817  0.997241013  0.719730097
     0.827533713  0.333401964  0.221828599
     0.827847049  0.330824857  0.720535861
     0.828729574  0.668597816  0.221122415
     0.827917449  0.664126108  0.720970283
     0.831061145  0.998465397  0.447123069
     0.833683079  0.000512712  0.947730013
     0.836483407  0.330407543  0.446419693
     0.828516451  0.333229637  0.943556813
     0.833539197  0.665573479  0.447009534
     0.832066504  0.666838553  0.946900690
     0.669132737  0.166008180  0.055998993
     0.668118695  0.164758027  0.554812816
     0.669839065  0.498402393  0.056938576
     0.670934259  0.498470781  0.556223670
     0.668620099  0.832667006  0.055676183
     0.666775898  0.830712508  0.554671294
     0.496548324  0.999004416  0.128836273
     0.496684812  0.998615107  0.628907709
     0.496027656  0.331851106  0.128676715
     0.496762733  0.331983883  0.628382895
     0.496495838  0.665887719  0.129563599
     0.496650375  0.662443771  0.628309121
     0.008902736  0.154543536  0.369344143
     0.002932234  0.159018001  0.874861560
     0.004155650  0.497739846  0.373343063
     0.005051528  0.491944807  0.878327490
     0.006856974  0.835955454  0.374148268
     0.002095065  0.826415625  0.872772276
     0.172895558  0.996738460  0.779700958
     0.160864600  0.333739063  0.273524305
     0.172833086  0.329431383  0.783160693
     0.172248407  0.665964376  0.281167284
     0.172850545  0.663687729  0.780329438
     0.334626372  0.169398148  0.229236549
     0.328051829  0.164849738  0.721870604
     0.324628498  0.495804535  0.219005670
     0.327652826  0.496515416  0.720928873
     0.324770497  0.833469303  0.220985269
     0.328514680  0.829985206  0.721362808
     0.329732291  0.172018175  0.449026256
     0.331257482  0.165375299  0.948654058
     0.330798389  0.495705353  0.444463585
     0.329383496  0.496446656  0.947805804
     0.334880865  0.828471998  0.448951839
     0.333397427  0.829788490  0.947044768
     0.172621698  0.990753516  0.049384408
     0.167908312  0.997442613  0.552386106
     0.156520994  0.316613642  0.066228851
     0.167460397  0.331741532  0.555774592
     0.167809969  0.661361891  0.053007340
     0.169039061  0.662502798  0.554515410
     0.140090756  0.187063221  0.165537859

  ion indices of the primitive-cell ions
   primitive index   ion index
                 1           1
                 2           2
                 3           3
                 4           4
                 5           5
                 6           6
                 7           7
                 8           8
                 9           9
                10          10
                11          11
                12          12
                13          13
                14          14
                15          15
                16          16
                17          17
                18          18
                19          19
                20          20
                21          21
                22          22
                23          23
                24          24
                25          25
                26          26
                27          27
                28          28
                29          29
                30          30
                31          31
                32          32
                33          33
                34          34
                35          35
                36          36
                37          37
                38          38
                39          39
                40          40
                41          41
                42          42
                43          43
                44          44
                45          45
                46          46
                47          47
                48          48
                49          49
                50          50
                51          51
                52          52
                53          53
                54          54
                55          55
                56          56
                57          57
                58          58
                59          59
                60          60
                61          61
                62          62
                63          63
                64          64
                65          65
                66          66
                67          67
                68          68
                69          69
                70          70
                71          71
                72          72
                73          73
                74          74
                75          75
                76          76
                77          77
                78          78
                79          79
                80          80
                81          81
                82          82
                83          83
                84          84
                85          85
                86          86
                87          87
                88          88
                89          89
                90          90
                91          91
                92          92
                93          93
                94          94
                95          95
                96          96
                97          97
                98          98
                99          99
               100         100
               101         101
               102         102
               103         103
               104         104
               105         105
               106         106
               107         107
               108         108
               109         109
               110         110
               111         111
               112         112
               113         113
               114         114
               115         115
               116         116
               117         117
               118         118
               119         119

----------------------------------------------------------------------------------------

 
 
 KPOINTS: Automatic mesh                          

Automatic generation of k-mesh.
 Grid dimensions read from file:
 generate k-points for:    2    2    2

 Generating k-lattice:

  Cartesian coordinates                     Fractional coordinates (reciprocal lattice)
     0.000000000  0.040715043 -0.009973711     0.500000000  0.000000000  0.000000000
     0.054688428 -0.000000000  0.000000000     0.000000000  0.500000000  0.000000000
     0.000000000  0.000000000 -0.044245056     0.000000000  0.000000000  0.500000000

  Length of vectors
     0.041918846  0.054688428  0.044245056

  Shift w.r.t. Gamma in fractional coordinates (k-lattice)
     0.000000000  0.000000000  0.000000000

 
 Subroutine IBZKPT returns following result:
 ===========================================
 
 Found      8 irreducible k-points:
 
 Following reciprocal coordinates:
            Coordinates               Weight
  0.000000  0.000000  0.000000      1.000000
  0.500000  0.000000  0.000000      1.000000
  0.000000  0.500000  0.000000      1.000000
  0.500000  0.500000  0.000000      1.000000
  0.000000  0.000000  0.500000      1.000000
  0.500000  0.000000  0.500000      1.000000
  0.000000  0.500000  0.500000      1.000000
  0.500000  0.500000  0.500000      1.000000
 
 Following cartesian coordinates:
            Coordinates               Weight
  0.000000  0.000000 -0.000000      1.000000
  0.000000  0.040715 -0.009974      1.000000
  0.054688  0.000000 -0.000000      1.000000
  0.054688  0.040715 -0.009974      1.000000
  0.000000  0.000000 -0.044245      1.000000
  0.000000  0.040715 -0.054219      1.000000
  0.054688  0.000000 -0.044245      1.000000
  0.054688  0.040715 -0.054219      1.000000
 
 
 Subroutine IBZKPT_HF returns following result:
 ==============================================
 
 Found      8 k-points in 1st BZ
 the following      8 k-points will be used (e.g. in the exchange kernel)
 Following reciprocal coordinates:   # in IRBZ
  0.000000  0.000000  0.000000    0.12500000   1 t-inv F
  0.500000  0.000000  0.000000    0.12500000   2 t-inv F
  0.000000  0.500000  0.000000    0.12500000   3 t-inv F
  0.500000  0.500000  0.000000    0.12500000   4 t-inv F
  0.000000  0.000000  0.500000    0.12500000   5 t-inv F
  0.500000  0.000000  0.500000    0.12500000   6 t-inv F
  0.000000  0.500000  0.500000    0.12500000   7 t-inv F
  0.500000  0.500000  0.500000    0.12500000   8 t-inv F


--------------------------------------------------------------------------------------------------------




 Dimension of arrays:
   k-points           NKPTS =      8   k-points in BZ     NKDIM =      8   number of bands    NBANDS=    625
   number of dos      NEDOS =    301   number of ions     NIONS =    119
   non local maximal  LDIM  =      6   non local SUM 2l+1 LMDIM =     18
   total plane-waves  NPLWV = 184320
   max r-space proj   IRMAX =   1800   max aug-charges    IRDMAX=   5704
   dimension x,y,z NGX =    64 NGY =   48 NGZ =   60
   dimension x,y,z NGXF=   128 NGYF=   96 NGZF=  120
   support grid    NGXF=   128 NGYF=   96 NGZF=  120
   ions per type =              47  71   1
   NGX,Y,Z   is equivalent  to a cutoff of   8.66,  8.73,  8.57 a.u.
   NGXF,Y,Z  is equivalent  to a cutoff of  17.33, 17.46, 17.15 a.u.

 SYSTEM =  unknown system                          
 POSCAR =  Ga48 O72                                

 Startparameter for this run:
   NWRITE =      2    write-flag & timer
   PREC   = normal    normal or accurate (medium, high low for compatibility)
   ISTART =      0    job   : 0-new  1-cont  2-samecut
   ICHARG =      0    charge: 1-file 2-atom 10-const
   ISPIN  =      1    spin polarized calculation?
   LNONCOLLINEAR =      F non collinear calculations
   LSORBIT =      F    spin-orbit coupling
   INIWAV =      1    electr: 0-lowe 1-rand  2-diag
   LASPH  =      F    aspherical Exc in radial PAW
 Electronic Relaxation 1
   ENCUT  =  450.0 eV  33.07 Ry    5.75 a.u.  21.24 15.81 20.12*2*pi/ulx,y,z
   ENINI  =  450.0     initial cutoff
   ENAUG  =  605.4 eV  augmentation charge cutoff
   NELM   =    500;   NELMIN=  2; NELMDL= -5     # of ELM steps 
   EDIFF  = 0.1E-04   stopping-criterion for ELM
   LREAL  =      T    real-space projection
   NLSPLINE    = F    spline interpolate recip. space projectors
   LCOMPAT=      F    compatible to vasp.4.4
   GGA_COMPAT  = T    GGA compatible to vasp.4.4-vasp.4.6
   LMAXPAW     = -100 max onsite density
   LMAXMIX     =    2 max onsite mixed and CHGCAR
   VOSKOWN=      0    Vosko Wilk Nusair interpolation
   ROPT   =   -0.00050  -0.00050  -0.00050
 Ionic relaxation
   EDIFFG = -.5E-02   stopping-criterion for IOM
   NSW    =      0    number of steps for IOM
   NBLOCK =      1;   KBLOCK =      1    inner block; outer block 
   IBRION =     -1    ionic relax: 0-MD 1-quasi-New 2-CG
   NFREE  =      0    steps in history (QN), initial steepest desc. (CG)
   ISIF   =      2    stress and relaxation
   IWAVPR =     10    prediction:  0-non 1-charg 2-wave 3-comb
   ISYM   =      3    0-nonsym 1-usesym 2-fastsym
   LCORR  =      T    Harris-Foulkes like correction to forces

   POTIM  = 0.5000    time-step for ionic-motion
   TEIN   =    0.0    initial temperature
   TEBEG  =    0.0;   TEEND  =   0.0 temperature during run
   SMASS  =  -3.00    Nose mass-parameter (am)
   estimated Nose-frequenzy (Omega)   =  0.10E-29 period in steps = 0.13E+47 mass=  -0.345E-26a.u.
   SCALEE = 1.0000    scale energy and forces
   NPACO  =    256;   APACO  = 10.0  distance and # of slots for P.C.
   PSTRESS=    0.0 pullay stress

  Mass of Ions in am
   POMASS =  69.72 16.00 30.97
  Ionic Valenz
   ZVAL   =  13.00  6.00  5.00
  Atomic Wigner-Seitz radii
   RWIGS  =  -1.00 -1.00 -1.00
  virtual crystal weights 
   VCA    =   1.00  1.00  1.00
   NELECT =    1043.0000    total number of electrons
   NUPDOWN=      -1.0000    fix difference up-down

 DOS related values:
   EMIN   =  10.00;   EMAX   =-10.00  energy-range for DOS
   EFERMI =   0.00;   METHOD = LEGACY      
   ISMEAR =     0;   SIGMA  =   0.05  broadening in eV -4-tet -1-fermi 0-gaus

 Electronic relaxation 2 (details)
   IALGO  =     58    algorithm
   LDIAG  =      T    sub-space diagonalisation (order eigenvalues)
   LSUBROT=      F    optimize rotation matrix (better conditioning)
   TURBO    =      0    0=normal 1=particle mesh
   IRESTART =      0    0=no restart 2=restart with 2 vectors
   NREBOOT  =      0    no. of reboots
   NMIN     =      0    reboot dimension
   EREF     =   0.00    reference energy to select bands
   IMIX   =      4    mixing-type and parameters
     AMIX     =   0.40;   BMIX     =  1.00
     AMIX_MAG =   1.60;   BMIX_MAG =  1.00
     AMIN     =   0.10
     WC   =   100.;   INIMIX=   1;  MIXPRE=   1;  MAXMIX= -45

 Intra band minimization:
   WEIMIN = 0.0000     energy-eigenvalue tresh-hold
   EBREAK =  0.40E-08  absolut break condition
   DEPER  =   0.30     relativ break condition  

   TIME   =   0.40     timestep for ELM

  volume/ion in A,a.u.               =      10.66        71.95
  Fermi-wavevector in a.u.,A,eV,Ry     =   1.533574  2.898034 31.998834  2.351848
  Thomas-Fermi vector in A             =   2.640622
 
 Write flags
   LWAVE        =      T    write WAVECAR
   LDOWNSAMPLE  =      F    k-point downsampling of WAVECAR
   LCHARG       =      T    write CHGCAR
   LVTOT        =      F    write LOCPOT, total local potential
   LVHAR        =      F    write LOCPOT, Hartree potential only
   LELF         =      F    write electronic localiz. function (ELF)
   LORBIT       =      0    0 simple, 1 ext, 2 COOP (PROOUT), +10 PAW based schemes


 Dipole corrections
   LMONO  =      F    monopole corrections only (constant potential shift)
   LDIPOL =      F    correct potential (dipole corrections)
   IDIPOL =      0    1-x, 2-y, 3-z, 4-all directions 
   EPSILON=  1.0000000 bulk dielectric constant

 Exchange correlation treatment:
   GGA     =    --    GGA type
   LEXCH   =     8    internal setting for exchange type
   LIBXC   =     F    Libxc                    
   VOSKOWN =     0    Vosko Wilk Nusair interpolation
   EXXOEP  =     0    0=HF, 1=EXX-LHF (local Hartree Fock) 2=EXX OEP
   LHFCALC =     T    Hartree Fock is set to
   LSYMGRAD=     F    symmetrize gradient (conserves proper symmetry)
   PRECFOCK=fast      Normal, Fast or Accurate (Low or Medium for compatibility)
   LRHFCALC=     F    long range Hartree Fock
   LRSCOR  =     F    long range correlation only (use DFT for short range part)
   LTHOMAS =     F    Thomas Fermi screening in HF
   LMODELHF=     F    short range full HF, long range fraction AEXX
   FOCKCORR=     1    mode to apply convergence corrections
   LFOCKACE=     T    use Adeptively-Compressed-Exchange operator
   ENCUT4O =  -1.0   cutoff for four orbital integrals eV
   LMAXFOCK=     4    L truncation for augmentation on plane wave grid
   LMAXFOCKAE=  -1    L truncation for all-electron charge restoration on plane wave grid
   NMAXFOCKAE=   1    number of basis functions for all-electron charge restoration
   LFOCKAEDFT=     F  apply the AE augmentation even for DFT
   NKREDX  =     1    reduce k-point grid by
   NKREDY  =     1    reduce k-point grid by
   NKREDZ  =     1    reduce k-point grid by
   SHIFTRED=     F    shift reduced grid of Gamma
   HFKIDENT=     F    idential grid for each k-point
   ODDONLY =     F    use only odd q-grid points
   EVENONLY=     F    use only even q-grid points
   HFALPHA =   -1.0000 decay constant for conv. correction
   MCALPHA =    0.0000 extent of test-charge in conv. correction in multipole expansion
   AEXX    =    0.3200 exact exchange contribution
   HFSCREEN=    0.2000 screening length (either q_TF or 0.3 A-1)
   HFSCREENC=   0.2000 screening length for correlation (either q_TF or 0.3 A-1)
   HFRCUT  =    0.0000 spherical cutoff for potential kernel
   ALDAX   =    0.6800 LDA exchange part
   AGGAX   =    0.6800 GGA exchange part
   ALDAC   =    1.0000 LDA correlation
   AGGAC   =    1.0000 GGA correlation
   ENCUTFOCK=  -1.0 apply spherical cutoff to Coloumb kernel
   NBANDSGWLOW=     1    first orbital included in HF term
   NBLOCK_FOCK=    64    blocking factor in FOCK_ACC

 Linear response parameters
   LEPSILON=     F    determine dielectric tensor
   LRPA    =     F    only Hartree local field effects (RPA)
   LNABLA  =     F    use nabla operator in PAW spheres
   LVEL    =     F    velocity operator in full k-point grid
   CSHIFT  =0.1000    complex shift for real part using Kramers Kronig
   OMEGAMAX=  -1.0    maximum frequency
   DEG_THRESHOLD= 0.2000000E-02 threshold for treating states as degnerate
   RTIME   =   -0.100 relaxation time in fs
  (WPLASMAI=    0.000 imaginary part of plasma frequency in eV, 0.658/RTIME)
   DFIELD  = 0.0000000 0.0000000 0.0000000 field for delta impulse in time
 
  Optional k-point grid parameters
   LKPOINTS_OPT  =     F    use optional k-point grid
   KPOINTS_OPT_MODE=     1    mode for optional k-point grid
 
 Orbital magnetization related:
   ORBITALMAG=     F  switch on orbital magnetization
   LCHIMAG   =     F  perturbation theory with respect to B field
   DQ        =  0.001000  dq finite difference perturbation B field
   LLRAUG    =     F  two centre corrections for induced B field
   LBONE     =     F  B-component reconstruction in AE one-centre
   LVGVCALC  =     T  calculate vGv susceptibility
   LVGVAPPL  =     F  apply vGv susceptibility instead of pGv for G=0

 Random number generation:
   RANDOM_GENERATOR = DEFAULT
   PCG_SEED         = not used


--------------------------------------------------------------------------------------------------------


 Static calculation
 charge density and potential will be updated during run
 non-spin polarized calculation
 Conjugate gradient for all bands (Freysoldt, et al. PRB 79, 241103 (2009))
 preconditioned conjugated gradient                                        
 perform sub-space diagonalisation
    before iterative eigenvector-optimisation
 modified Broyden-mixing scheme, WC =      100.0
 initial mixing is a Kerker type mixing with AMIX =  0.4000 and BMIX =      1.0000
 Hartree-type preconditioning will be used
 using additional bands           103
 real space projection scheme for non local part
 use partial core corrections
 no Harris-corrections to forces 
 use gradient corrections 
 use of overlap-Matrix (Vanderbilt PP)
 Gauss-broadening in eV      SIGMA  =   0.05


--------------------------------------------------------------------------------------------------------


  energy-cutoff  :      450.00
  volume of cell :     1268.81
      direct lattice vectors                 reciprocal lattice vectors
     0.000000000 12.280473417  0.000000000     0.000000000  0.081430085 -0.019947423
     9.142702054  0.000000000  0.000000000     0.109376855 -0.000000000  0.000000000
     0.000000000 -2.768261773-11.300697718     0.000000000  0.000000000 -0.088490111

  length of vectors
    12.280473417  9.142702054 11.634820246     0.083837691  0.109376855  0.088490111


 
 k-points in units of 2pi/SCALE and weight: Automatic mesh                          
   0.00000000  0.00000000 -0.00000000       0.125
   0.00000000  0.04071504 -0.00997371       0.125
   0.05468843  0.00000000 -0.00000000       0.125
   0.05468843  0.04071504 -0.00997371       0.125
   0.00000000  0.00000000 -0.04424506       0.125
   0.00000000  0.04071504 -0.05421877       0.125
   0.05468843  0.00000000 -0.04424506       0.125
   0.05468843  0.04071504 -0.05421877       0.125
 
 k-points in reciprocal lattice and weights: Automatic mesh                          
   0.00000000  0.00000000  0.00000000       0.125
   0.50000000  0.00000000  0.00000000       0.125
   0.00000000  0.50000000  0.00000000       0.125
   0.50000000  0.50000000  0.00000000       0.125
   0.00000000  0.00000000  0.50000000       0.125
   0.50000000  0.00000000  0.50000000       0.125
   0.00000000  0.50000000  0.50000000       0.125
   0.50000000  0.50000000  0.50000000       0.125
 
 position of ions in fractional coordinates (direct lattice) 
   0.65957031  0.99933944  0.15873824
   0.65924885  0.99797789  0.65653157
   0.65805817  0.33127143  0.15983486
   0.65890586  0.33114818  0.65722053
   0.65996865  0.66686059  0.15897610
   0.65894696  0.66462652  0.65785654
   0.84623473  0.16246037  0.34569896
   0.84020159  0.16449788  0.84219312
   0.84184237  0.49941757  0.34511579
   0.84082552  0.49963509  0.84283422
   0.84551462  0.83372035  0.34600139
   0.84036781  0.83246671  0.84363702
   0.59048359  0.16262136  0.39788353
   0.59144102  0.16474359  0.89941515
   0.59393248  0.50089077  0.40020214
   0.59256701  0.49782457  0.89981090
   0.58903022  0.83396678  0.39763661
   0.59051209  0.83146827  0.89916766
   0.90991491  0.00596937  0.10365784
   0.91111956  0.99758589  0.60241461
   0.89881103  0.34808351  0.09949484
   0.90965984  0.33109529  0.60402278
   0.90863128  0.67594657  0.10327984
   0.90946401  0.66502952  0.60371631
   0.15976808  0.16066112  0.65408797
   0.15657258  0.50741722  0.16126261
   0.15928055  0.49789807  0.65850506
   0.16119539  0.83348160  0.14963257
   0.16014457  0.83283477  0.65278767
   0.33097403  0.00176735  0.34497507
   0.34012831  0.99774377  0.84552147
   0.34720725  0.33122349  0.34384987
   0.34132313  0.33017380  0.84501632
   0.34085720  0.66549798  0.34553393
   0.34083102  0.66375444  0.84433280
   0.11785818  0.99170466  0.38066877
   0.09184568  0.99161692  0.89678678
   0.08589751  0.32650213  0.40174329
   0.09054308  0.32355412  0.89809311
   0.08947579  0.66722389  0.39871660
   0.09064507  0.66065250  0.89567699
   0.40676769  0.16445782  0.10620815
   0.40922837  0.16504019  0.60472153
   0.40944557  0.49905092  0.10351338
   0.40750030  0.49714600  0.60225732
   0.40870498  0.83310546  0.10395071
   0.41063136  0.83074703  0.60528418
   0.99472347  0.18303794  0.12313204
   0.99731827  0.16500719  0.62898087
   0.99407760  0.50703889  0.12654331
   0.99677197  0.49811987  0.63042301
   0.99975099  0.84111874  0.12980051
   0.99754293  0.83053605  0.62934464
   0.49943270  0.99875200  0.37527513
   0.50320248  0.99851292  0.87454667
   0.50795832  0.33386126  0.37604642
   0.50407238  0.33179711  0.87479686
   0.50324336  0.66475161  0.37249562
   0.50385951  0.66363474  0.87503736
   0.67408318  0.16499501  0.28238305
   0.67234590  0.16411413  0.78116078
   0.67411146  0.50013577  0.28231510
   0.67261005  0.49848751  0.78122448
   0.67377172  0.83370170  0.28244835
   0.67235713  0.83179636  0.78166834
   0.82914097  0.00152200  0.21977053
   0.82790882  0.99724101  0.71973010
   0.82753371  0.33340196  0.22182860
   0.82784705  0.33082486  0.72053586
   0.82872957  0.66859782  0.22112242
   0.82791745  0.66412611  0.72097028
   0.83106114  0.99846540  0.44712307
   0.83368308  0.00051271  0.94773001
   0.83648341  0.33040754  0.44641969
   0.82851645  0.33322964  0.94355681
   0.83353920  0.66557348  0.44700953
   0.83206650  0.66683855  0.94690069
   0.66913274  0.16600818  0.05599899
   0.66811869  0.16475803  0.55481282
   0.66983906  0.49840239  0.05693858
   0.67093426  0.49847078  0.55622367
   0.66862010  0.83266701  0.05567618
   0.66677590  0.83071251  0.55467129
   0.49654832  0.99900442  0.12883627
   0.49668481  0.99861511  0.62890771
   0.49602766  0.33185111  0.12867672
   0.49676273  0.33198388  0.62838289
   0.49649584  0.66588772  0.12956360
   0.49665038  0.66244377  0.62830912
   0.00890274  0.15454354  0.36934414
   0.00293223  0.15901800  0.87486156
   0.00415565  0.49773985  0.37334306
   0.00505153  0.49194481  0.87832749
   0.00685697  0.83595545  0.37414827
   0.00209507  0.82641563  0.87277228
   0.17289556  0.99673846  0.77970096
   0.16086460  0.33373906  0.27352431
   0.17283309  0.32943138  0.78316069
   0.17224841  0.66596438  0.28116728
   0.17285054  0.66368773  0.78032944
   0.33462637  0.16939815  0.22923655
   0.32805183  0.16484974  0.72187060
   0.32462850  0.49580453  0.21900567
   0.32765283  0.49651542  0.72092887
   0.32477050  0.83346930  0.22098527
   0.32851468  0.82998521  0.72136281
   0.32973229  0.17201817  0.44902626
   0.33125748  0.16537530  0.94865406
   0.33079839  0.49570535  0.44446358
   0.32938350  0.49644666  0.94780580
   0.33488087  0.82847200  0.44895184
   0.33339743  0.82978849  0.94704477
   0.17262170  0.99075352  0.04938441
   0.16790831  0.99744261  0.55238611
   0.15652099  0.31661364  0.06622885
   0.16746040  0.33174153  0.55577459
   0.16780997  0.66136189  0.05300734
   0.16903906  0.66250280  0.55451541
   0.14009076  0.18706322  0.16553786
 
 position of ions in cartesian coordinates  (Angst):
   9.13666275  7.66040670 -1.79385290
   9.12421448  6.27843669 -7.41926480
   3.02871594  7.63880114 -1.80624543
   3.02758918  6.27231741 -7.42705057
   6.09690765  7.66463998 -1.79654090
   6.07648228  6.27106156 -7.43423793
   1.48532680  9.43517792 -3.90663948
   1.50395506  7.98666227 -9.51736986
   4.56602602  9.38285201 -3.90004927
   4.56801480  7.99254976 -9.52461472
   7.62245677  9.42549746 -3.91005710
   7.61099507  7.98470648 -9.53368698
   1.48679866  6.14997222 -4.49636150
   1.50620154  4.77335921-10.16401870
   4.57949505  6.18590770 -4.52256344
   4.55146174  4.78609125-10.16849100
   7.62470982  6.13280773 -4.49357110
   7.60186664  4.76263657-10.16122191
   0.05457620 10.88723385 -1.17140594
   9.12063052  9.52133821 -6.80770538
   3.18242380 10.76239723 -1.12436106
   3.02710562  9.49896024 -6.82587891
   6.17997806 10.87251662 -1.16713421
   6.08016674  9.49740381 -6.82241549
   1.46887673  0.15134094 -7.39165047
   4.63916442  1.47636829 -1.82238003
   4.55213374  0.13312618 -7.44156663
   7.62027394  1.56533353 -1.69095247
   7.61436020  0.15956404 -7.37695609
   0.01615832  3.10953646 -3.89845895
   9.12207402  1.83631192 -9.55498259
   3.02827765  3.31200301 -3.88574345
   3.01868064  1.85238327 -9.54927394
   6.08444971  3.22935938 -3.90477450
   6.06850906  1.84823211 -9.54154972
   9.06686020  0.39356341 -4.30182274
   9.06605807 -1.35463214-10.13431634
   2.98511170 -0.05726850 -4.53997950
   2.95815891 -1.37424491-10.14907872
   6.10022925 -0.00494681 -4.50577577
   6.04014896 -1.36630397-10.12177486
   1.50358884  4.70128780 -1.20022617
   1.50891330  3.35149067 -6.83377523
   4.56267389  4.74163323 -1.16977347
   4.54525771  3.33709066 -6.80592798
   7.61683503  4.73132791 -1.17471557
   7.59527260  3.36716240 -6.84013350
   1.67346138 11.87481342 -1.39147800
   1.50861155 10.50635686 -7.10792271
   4.63570549 11.85743852 -1.43002765
   4.55416153 10.49565579 -7.12421986
   7.69009806 11.91809368 -1.46683632
   7.59334364 10.50810875 -7.11203354
   9.13129200  5.09441022 -4.24087084
   9.12910610  3.75859056 -9.88298760
   3.05239405  5.19697377 -4.24958689
   3.03352214  3.76858080 -9.88581492
   6.07762587  5.14890138 -4.20946035
   6.06741474  3.76530081 -9.88853271
   1.50850025  7.49635034 -3.19112548
   1.50044663  6.09426840 -8.82766187
   4.57259237  7.49688581 -3.19035760
   4.55752274  6.09733592 -8.82838174
   7.62228622  7.49234473 -3.19186345
   7.60486627  6.09300132 -8.83339761
   0.01391521  9.57386130 -2.48356034
   9.11747746  8.17471090 -8.13345226
   3.04819482  9.54842613 -2.50681794
   3.02463310  8.17172179 -8.14255796
   6.11279063  9.56506677 -2.49883758
   6.07190714  8.17138375 -8.14746723
   9.12867164  8.96807059 -5.05280264
   0.00468757  7.61445813-10.71001039
   3.02081773  9.03660568 -5.04485400
   3.04661929  7.56256200-10.66285032
   6.08514001  8.99881655 -5.05151962
   6.09670621  7.59690160-10.70063847
   1.51776333  8.06224692 -0.63282769
   1.50633355  6.66894676 -6.26977192
   4.55674458  8.06831994 -0.64344564
   4.55736983  6.69961760 -6.28571556
   7.61282635  8.05684511 -0.62917971
   7.59495695  6.65284835 -6.26817263
   9.13359972  5.74119597 -1.45593978
   9.13004039  4.35854346 -7.10709591
   3.03401579  5.73524361 -1.45413666
   3.03522973  4.36095319 -7.10116514
   6.08801302  5.73853798 -1.46415906
   6.05652602  4.35977761 -7.10033145
   1.41294551 -0.91311146 -4.17384651
   1.45385420 -2.38583659 -9.88654604
   4.55068712 -0.98247798 -4.21903710
   4.49770480 -2.36940526 -9.92571346
   7.64289165 -0.95153346 -4.22813648
   7.55567183 -2.39033374 -9.86293567
   9.11288277 -0.03517706 -8.81116484
   3.05127682  1.21830656 -3.09101549
   3.01189298 -0.04552169 -8.85026225
   6.08871387  1.33694733 -3.17738649
   6.06789916 -0.03746963 -8.81826710
   1.54875679  3.47478349 -2.59053295
   1.50717204  2.03030497 -8.15764149
   4.53299314  3.38032662 -2.47491688
   4.53949251  2.02801198 -8.14699927
   7.62016151  3.37659038 -2.49728773
   7.58830745  2.03739471 -8.15190304
   1.57271092  2.80624642 -5.07430999
   1.51197708  1.44187594-10.72045275
   4.53208635  2.83196926 -5.02274862
   4.53886386  1.42121070-10.71086688
   7.57447264  2.86967935 -5.07346903
   7.58650893  1.47261041-10.70226665
   9.05816421  1.98316720 -0.55807827
   9.11932062  0.53284423 -6.24234840
   2.89470419  1.73881311 -0.74843223
   3.03301399  0.51796340 -6.28064066
   6.04663472  1.91404767 -0.59901992
   6.05706569  0.54083588 -6.26641103
   1.71026329  1.26212868 -1.87069330
 


--------------------------------------------------------------------------------------------------------


 k-point   1 :   0.0000 0.0000 0.0000  plane waves:   27533
 k-point   2 :   0.5000 0.0000 0.0000  plane waves:   27522
 k-point   3 :   0.0000 0.5000 0.0000  plane waves:   27488
 k-point   4 :   0.5000 0.5000 0.0000  plane waves:   27488
 k-point   5 :   0.0000 0.0000 0.5000  plane waves:   27482
 k-point   6 :   0.5000 0.0000 0.5000  plane waves:   27476
 k-point   7 :   0.0000 0.5000 0.5000  plane waves:   27468
 k-point   8 :   0.5000 0.5000 0.5000  plane waves:   27564

 maximum and minimum number of plane-waves per node :     27564    27468

 maximum number of plane-waves:     27564
 maximum index in each direction: 
   IXMAX=   21   IYMAX=   15   IZMAX=   20
   IXMIN=  -21   IYMIN=  -16   IZMIN=  -20


 serial   3D FFT for wavefunctions
 parallel 3D FFT for charge:
    minimum data exchange during FFTs selected (reduces bandwidth)


 FFT grid for exact exchange (Hartree Fock) 
  NGX = 48; NGY = 36; NGZ = 48

 
 Radii for the augmentation spheres in the non-local exchange
 for species   1 augmentation radius   1.392 (default was   1.031)
       energy cutoff for augmentation   1800.0
 for species   2 augmentation radius   0.974 (default was   0.722)
       energy cutoff for augmentation   1800.0
 for species   3 augmentation radius   1.294 (default was   0.959)
       energy cutoff for augmentation   1800.0
 Maximum index for augmentation-charges in exchange           749
  SETUP_FOCK is finished

 total amount of memory used by VASP MPI-rank0  7175180. kBytes
=======================================================================

   base      :      30000. kBytes
   nonlr-proj:      32511. kBytes
   fftplans  :      51012. kBytes
   grid      :     102973. kBytes
   one-center:       1850. kBytes
   HF        :        194. kBytes
   wavefun   :    6956640. kBytes
 
     INWAV:  cpu time      0.0001: real time      0.0001
 Broyden mixing: mesh for mixing (old mesh)
   NGX = 43   NGY = 31   NGZ = 41
  (NGX  =128   NGY  = 96   NGZ  =120)
  gives a total of  54653 points

 charge density for first step will be calculated from the start-wavefunctions


--------------------------------------------------------------------------------------------------------


 Maximum index for non-local projection operator          1722
 Maximum index for augmentation-charges          5365 (set IRDMAX)


--------------------------------------------------------------------------------------------------------


 initial charge from wavefunction
 First call to EWALD:  gamma=   0.164
 Maximum number of real-space cells 3x 3x 3
 Maximum number of reciprocal cells 3x 2x 3

    FEWALD:  cpu time      0.0724: real time      0.0723


--------------------------------------- Ionic step        1  -------------------------------------------




--------------------------------------- Iteration      1(   1)  ---------------------------------------


    POTLOK:  cpu time      0.0383: real time      0.0383
    SETDIJ:  cpu time      0.1380: real time      0.1380
    TRIAL :  cpu time      3.2817: real time      3.2908
    CORREC:  cpu time      0.0014: real time      0.0014
    --------------------------------------------
      LOOP:  cpu time      4.3539: real time      4.3627

 eigenvalue-minimisations  : 10480
 total energy-change (2. order) :-0.1834421E+05  (-0.5423502E+05)
 number of electron    1042.9999768 magnetization 
 augmentation part      118.5501452 magnetization 

 Free energy of the ion-electron system (eV)
  ---------------------------------------------------
  alpha Z        PSCENC =      5376.25786726
  Ewald energy   TEWEN  =    -86817.82309395
  -Hartree energ DENC   =     -2073.59936903
  -exchange      EXHF   =         0.00000000
  -V(xc)+E(xc)   XCENC  =      2756.17120193
  PAW double counting   =    333932.92479511  -362685.04726889
  entropy T*S    EENTRO =        -0.00879313
  eigenvalues    EBANDS =    -40333.32174841
  atomic energy  EATOM  =    131500.23896116
  ---------------------------------------------------
  free energy    TOTEN  =    -18344.20744794 eV

  energy without entropy =   -18344.19865481  energy(sigma->0) =   -18344.20305138
  exchange ACFDT corr.  =         0.00000000  see jH, gK, PRB 81, 115126


--------------------------------------------------------------------------------------------------------




--------------------------------------- Iteration      1(   2)  ---------------------------------------


    TRIAL :  cpu time      3.1014: real time      3.1009
    CORREC:  cpu time      0.0014: real time      0.0014
    --------------------------------------------
      LOOP:  cpu time      3.1030: real time      3.1032

 eigenvalue-minimisations  : 13232
 total energy-change (2. order) :-0.4447682E+05  (-0.4299789E+05)
 number of electron    1042.9999768 magnetization 
 augmentation part      118.5501452 magnetization 

 Free energy of the ion-electron system (eV)
  ---------------------------------------------------
  alpha Z        PSCENC =      5376.25786726
  Ewald energy   TEWEN  =    -86817.82309395
  -Hartree energ DENC   =     -2073.59936903
  -exchange      EXHF   =         0.00000000
  -V(xc)+E(xc)   XCENC  =      2756.17120193
  PAW double counting   =    333932.92479511  -362685.04726889
  entropy T*S    EENTRO =        -0.01391319
  eigenvalues    EBANDS =    -84810.13330442
  atomic energy  EATOM  =    131500.23896116
  ---------------------------------------------------
  free energy    TOTEN  =    -62821.02412401 eV

  energy without entropy =   -62821.01021083  energy(sigma->0) =   -62821.01716742
  exchange ACFDT corr.  =         0.00000000  see jH, gK, PRB 81, 115126


--------------------------------------------------------------------------------------------------------




--------------------------------------- Iteration      1(   3)  ---------------------------------------


    TRIAL :  cpu time      3.3233: real time      3.3228
    CORREC:  cpu time      0.0016: real time      0.0016
    --------------------------------------------
      LOOP:  cpu time      3.3252: real time      3.3250

 eigenvalue-minimisations  : 14479
 total energy-change (2. order) :-0.5033844E+04  (-0.4560077E+04)
 number of electron    1042.9999768 magnetization 
 augmentation part      118.5501452 magnetization 

 Free energy of the ion-electron system (eV)
  ---------------------------------------------------
  alpha Z        PSCENC =      5376.25786726
  Ewald energy   TEWEN  =    -86817.82309395
  -Hartree energ DENC   =     -2073.59936903
  -exchange      EXHF   =         0.00000000
  -V(xc)+E(xc)   XCENC  =      2756.17120193
  PAW double counting   =    333932.92479511  -362685.04726889
  entropy T*S    EENTRO =        -0.03427042
  eigenvalues    EBANDS =    -89843.95676370
  atomic energy  EATOM  =    131500.23896116
  ---------------------------------------------------
  free energy    TOTEN  =    -67854.86794053 eV

  energy without entropy =   -67854.83367011  energy(sigma->0) =   -67854.85080532
  exchange ACFDT corr.  =         0.00000000  see jH, gK, PRB 81, 115126


--------------------------------------------------------------------------------------------------------




--------------------------------------- Iteration      1(   4)  ---------------------------------------


    TRIAL :  cpu time      3.7507: real time      3.7502
    CORREC:  cpu time      0.0017: real time      0.0017
    --------------------------------------------
      LOOP:  cpu time      3.7525: real time      3.7524

 eigenvalue-minimisations  : 17592
 total energy-change (2. order) :-0.7042071E+03  (-0.6234704E+03)
 number of electron    1042.9999768 magnetization 
 augmentation part      118.5501452 magnetization 

 Free energy of the ion-electron system (eV)
  ---------------------------------------------------
  alpha Z        PSCENC =      5376.25786726
  Ewald energy   TEWEN  =    -86817.82309395
  -Hartree energ DENC   =     -2073.59936903
  -exchange      EXHF   =         0.00000000
  -V(xc)+E(xc)   XCENC  =      2756.17120193
  PAW double counting   =    333932.92479511  -362685.04726889
  entropy T*S    EENTRO =        -0.03397889
  eigenvalues    EBANDS =    -90548.16413294
  atomic energy  EATOM  =    131500.23896116
  ---------------------------------------------------
  free energy    TOTEN  =    -68559.07501824 eV

  energy without entropy =   -68559.04103935  energy(sigma->0) =   -68559.05802880
  exchange ACFDT corr.  =         0.00000000  see jH, gK, PRB 81, 115126


--------------------------------------------------------------------------------------------------------




--------------------------------------- Iteration      1(   5)  ---------------------------------------


    POTLOK:  cpu time      1.3824: real time      1.3823
    SETDIJ:  cpu time      0.4657: real time      0.4657
    TRIAL :  cpu time    228.9621: real time    228.9528
    CORREC:  cpu time      0.0016: real time      0.0016
    CHARGE:  cpu time      0.2055: real time      0.2055
    --------------------------------------------
      LOOP:  cpu time    231.0176: real time    231.0084

 eigenvalue-minimisations  : 17808
 total energy-change (2. order) : 0.2959663E+05  (-0.6985909E+02)
 number of electron    1042.9999480 magnetization 
 augmentation part      469.3752777 magnetization 

 Free energy of the ion-electron system (eV)
  ---------------------------------------------------
  alpha Z        PSCENC =      5376.25786726
  Ewald energy   TEWEN  =    -86817.82309395
  -Hartree energ DENC   =     -2073.59936903
  -exchange      EXHF   =      4723.52252514
  -V(xc)+E(xc)   XCENC  =      1905.26777592
  PAW double counting   =    335145.37757547  -337139.77878550
  entropy T*S    EENTRO =        -0.02776758
  eigenvalues    EBANDS =    -91581.87795826
  atomic energy  EATOM  =    131500.23896116
  ---------------------------------------------------
  free energy    TOTEN  =    -38962.44226938 eV

  energy without entropy =   -38962.41450180  energy(sigma->0) =   -38962.42838559
  exchange ACFDT corr.  =        -0.19279164  see jH, gK, PRB 81, 115126


--------------------------------------------------------------------------------------------------------




--------------------------------------- Iteration      1(   6)  ---------------------------------------


    POTLOK:  cpu time      1.4000: real time      1.3998
    SETDIJ:  cpu time      0.4531: real time      0.4530
    TRIAL :  cpu time    227.6718: real time    227.6644
    CORREC:  cpu time    230.2275: real time    230.2231
    CHARGE:  cpu time      0.2034: real time      0.2034
    --------------------------------------------
      LOOP:  cpu time    459.9566: real time    459.9447

 eigenvalue-minimisations  :     0
 total energy-change (2. order) : 0.7199215E+05  (-0.2643485E+05)
 number of electron    1042.9999545 magnetization 
 augmentation part      446.3091918 magnetization 

 Free energy of the ion-electron system (eV)
  ---------------------------------------------------
  alpha Z        PSCENC =      5376.25786726
  Ewald energy   TEWEN  =    -86817.82309395
  -Hartree energ DENC   =    -81455.02842082
  -exchange      EXHF   =      4814.20428354
  -V(xc)+E(xc)   XCENC  =      3730.44119241
  PAW double counting   =    151647.96887745  -176740.63730818
  entropy T*S    EENTRO =        -0.01879315
  eigenvalues    EBANDS =     80974.11516227
  atomic energy  EATOM  =    131500.23896116
  ---------------------------------------------------
  free energy    TOTEN  =     33029.70975356 eV

  energy without entropy =    33029.72854671  energy(sigma->0) =    33029.71915013
  exchange ACFDT corr.  =        -0.75264554  see jH, gK, PRB 81, 115126


--------------------------------------------------------------------------------------------------------




--------------------------------------- Iteration      1(   7)  ---------------------------------------


    POTLOK:  cpu time      1.5089: real time      1.5087
    SETDIJ:  cpu time      0.4568: real time      0.4567
    TRIAL :  cpu time    228.3641: real time    228.3503
    CORREC:  cpu time    230.3830: real time    230.3764
    CHARGE:  cpu time      0.2053: real time      0.2052
    --------------------------------------------
      LOOP:  cpu time    460.9188: real time    460.8985

 eigenvalue-minimisations  :     0
 total energy-change (2. order) :-0.2121147E+05  (-0.5855603E+04)
 number of electron    1042.9999501 magnetization 
 augmentation part      415.8463377 magnetization 

 Free energy of the ion-electron system (eV)
  ---------------------------------------------------
  alpha Z        PSCENC =      5376.25786726
  Ewald energy   TEWEN  =    -86817.82309395
  -Hartree energ DENC   =    -38822.02092617
  -exchange      EXHF   =      3576.12658587
  -V(xc)+E(xc)   XCENC  =      2794.04178562
  PAW double counting   =    158242.53224162  -174603.76821317
  entropy T*S    EENTRO =        -0.03457327
  eigenvalues    EBANDS =     10572.67222072
  atomic energy  EATOM  =    131500.23896116
  ---------------------------------------------------
  free energy    TOTEN  =     11818.23863581 eV

  energy without entropy =    11818.27320908  energy(sigma->0) =    11818.25592244
  exchange ACFDT corr.  =      -141.15600292  see jH, gK, PRB 81, 115126


--------------------------------------------------------------------------------------------------------




--------------------------------------- Iteration      1(   8)  ---------------------------------------


    POTLOK:  cpu time      1.4761: real time      1.4759
    SETDIJ:  cpu time      0.4632: real time      0.4632
    TRIAL :  cpu time    228.3718: real time    228.3690
    CORREC:  cpu time    230.1277: real time    230.1428
    CHARGE:  cpu time      0.2120: real time      0.2119
    --------------------------------------------
      LOOP:  cpu time    460.6510: real time    460.6684

 eigenvalue-minimisations  :     0
 total energy-change (2. order) :-0.6396423E+04  (-0.2777282E+04)
 number of electron    1042.9999374 magnetization 
 augmentation part      432.0933647 magnetization 

 Free energy of the ion-electron system (eV)
  ---------------------------------------------------
  alpha Z        PSCENC =      5376.25786726
  Ewald energy   TEWEN  =    -86817.82309395
  -Hartree energ DENC   =    -28629.10597940
  -exchange      EXHF   =      3324.16068563
  -V(xc)+E(xc)   XCENC  =      2608.75830225
  PAW double counting   =    145426.51967010  -159181.57494779
  entropy T*S    EENTRO =        -0.02807063
  eigenvalues    EBANDS =     -8185.58124826
  atomic energy  EATOM  =    131500.23896116
  ---------------------------------------------------
  free energy    TOTEN  =      5421.81564372 eV

  energy without entropy =     5421.84371435  energy(sigma->0) =     5421.82967903
  exchange ACFDT corr.  =      -116.00895949  see jH, gK, PRB 81, 115126


--------------------------------------------------------------------------------------------------------




--------------------------------------- Iteration      1(   9)  ---------------------------------------


    POTLOK:  cpu time      1.5025: real time      1.5024
    SETDIJ:  cpu time      0.4672: real time      0.4671
    TRIAL :  cpu time    227.9486: real time    227.9697
    CORREC:  cpu time    229.7217: real time    229.7238
    CHARGE:  cpu time      0.2046: real time      0.2046
    --------------------------------------------
      LOOP:  cpu time    459.8464: real time    459.8697

 eigenvalue-minimisations  :     0
 total energy-change (2. order) :-0.1998030E+04  (-0.2231059E+04)
 number of electron    1042.9999372 magnetization 
 augmentation part      448.9722140 magnetization 

 Free energy of the ion-electron system (eV)
  ---------------------------------------------------
  alpha Z        PSCENC =      5376.25786726
  Ewald energy   TEWEN  =    -86817.82309395
  -Hartree energ DENC   =    -30419.03299321
  -exchange      EXHF   =      3411.20429768
  -V(xc)+E(xc)   XCENC  =      2671.82476582
  PAW double counting   =    141749.25382031  -156620.51632535
  entropy T*S    EENTRO =        -0.00842591
  eigenvalues    EBANDS =     -7427.59400742
  atomic energy  EATOM  =    131500.23896116
  ---------------------------------------------------
  free energy    TOTEN  =      3423.78522167 eV

  energy without entropy =     3423.79364758  energy(sigma->0) =     3423.78943462
  exchange ACFDT corr.  =       -83.11506899  see jH, gK, PRB 81, 115126


--------------------------------------------------------------------------------------------------------




--------------------------------------- Iteration      1(  10)  ---------------------------------------


    POTLOK:  cpu time      1.4913: real time      1.4911
    SETDIJ:  cpu time      0.4654: real time      0.4654
    TRIAL :  cpu time    227.6816: real time    227.6819
    CORREC:  cpu time    229.8981: real time    229.9179
    CHARGE:  cpu time      0.2136: real time      0.2136
    --------------------------------------------
      LOOP:  cpu time    459.7518: real time    459.7718

 eigenvalue-minimisations  :     0
 total energy-change (2. order) :-0.1682722E+04  (-0.1277705E+04)
 number of electron    1042.9999348 magnetization 
 augmentation part      453.0857174 magnetization 

 Free energy of the ion-electron system (eV)
  ---------------------------------------------------
  alpha Z        PSCENC =      5376.25786726
  Ewald energy   TEWEN  =    -86817.82309395
  -Hartree energ DENC   =    -32286.88810332
  -exchange      EXHF   =      3548.95193943
  -V(xc)+E(xc)   XCENC  =      2770.92565942
  PAW double counting   =    142093.83454799  -157960.18623982
  entropy T*S    EENTRO =        -0.01729643
  eigenvalues    EBANDS =     -6484.23998339
  atomic energy  EATOM  =    131500.23896116
  ---------------------------------------------------
  free energy    TOTEN  =      1741.06312888 eV

  energy without entropy =     1741.08042530  energy(sigma->0) =     1741.07177709
  exchange ACFDT corr.  =       -14.58380206  see jH, gK, PRB 81, 115126


--------------------------------------------------------------------------------------------------------




--------------------------------------- Iteration      1(  11)  ---------------------------------------


    POTLOK:  cpu time      1.5021: real time      1.5023
    SETDIJ:  cpu time      0.4880: real time      0.4879
    TRIAL :  cpu time    227.9263: real time    227.9374
    CORREC:  cpu time    229.7592: real time    229.7715
    CHARGE:  cpu time      0.2136: real time      0.2136
    --------------------------------------------
      LOOP:  cpu time    459.8897: real time    459.9135

 eigenvalue-minimisations  :     0
 total energy-change (2. order) :-0.1292184E+04  (-0.6176975E+03)
[...]
   0.129E+02 0.720E+02 -.811E+02   -.124E+02 -.704E+02 0.827E+02   -.389E+00 -.145E+01 -.145E+01
   0.287E+02 0.120E+03 -.140E+02   -.292E+02 -.118E+03 0.163E+02   0.490E+00 -.198E+01 -.215E+01
   0.520E+01 0.769E+02 -.687E+02   -.542E+01 -.742E+02 0.691E+02   0.189E+00 -.239E+01 -.535E+00
   -.361E+02 0.121E+03 0.150E+02   0.364E+02 -.118E+03 -.122E+02   -.254E+00 -.248E+01 -.256E+01
   -.173E+02 0.638E+02 -.655E+02   0.170E+02 -.625E+02 0.677E+02   0.247E+00 -.116E+01 -.205E+01
   0.452E+02 -.179E+03 0.524E+02   -.455E+02 0.174E+03 -.499E+02   0.344E+00 0.380E+01 -.210E+01
   0.448E+01 -.343E+02 0.103E+02   -.434E+01 0.418E+02 -.147E+02   -.121E+00 -.642E+01 0.379E+01
   0.321E+02 -.616E+02 0.239E+02   -.323E+02 0.692E+02 -.271E+02   0.185E+00 -.647E+01 0.276E+01
   0.459E+01 -.278E+02 0.176E+02   -.452E+01 0.347E+02 -.220E+02   -.581E-01 -.599E+01 0.379E+01
   -.613E+02 -.750E+02 0.544E+02   0.612E+02 0.819E+02 -.591E+02   0.600E-01 -.604E+01 0.408E+01
   -.947E+01 -.328E+02 0.983E+01   0.939E+01 0.405E+02 -.146E+02   0.608E-01 -.665E+01 0.409E+01
   -.355E+01 0.763E+02 -.376E+02   0.367E+01 -.871E+02 0.413E+02   -.114E+00 0.933E+01 -.318E+01
   -.521E+01 0.304E+02 -.581E+01   0.534E+01 -.379E+02 0.955E+01   -.114E+00 0.642E+01 -.322E+01
   0.670E+01 0.360E+02 -.269E+02   -.688E+01 -.418E+02 0.299E+02   0.161E+00 0.499E+01 -.258E+01
   0.133E+01 0.341E+02 -.583E+01   -.118E+01 -.413E+02 0.949E+01   -.134E+00 0.621E+01 -.316E+01
   -.307E+01 0.373E+02 -.338E+02   0.311E+01 -.442E+02 0.380E+02   -.399E-01 0.587E+01 -.360E+01
   0.244E+01 0.288E+02 -.674E+01   -.255E+01 -.361E+02 0.102E+02   0.959E-01 0.629E+01 -.303E+01
   0.987E+00 0.556E+02 0.446E+02   -.919E+00 -.521E+02 -.413E+02   -.592E-01 -.303E+01 -.283E+01
   0.426E+01 0.691E+02 0.419E+02   -.441E+01 -.678E+02 -.373E+02   0.120E+00 -.110E+01 -.393E+01
   0.308E+01 0.694E+02 0.317E+02   -.320E+01 -.676E+02 -.266E+02   0.986E-01 -.157E+01 -.434E+01
   0.271E+01 0.716E+02 0.384E+02   -.297E+01 -.701E+02 -.338E+02   0.222E+00 -.134E+01 -.398E+01
   -.490E+01 0.590E+02 0.443E+02   0.474E+01 -.559E+02 -.410E+02   0.132E+00 -.269E+01 -.286E+01
   -.540E+01 0.676E+02 0.423E+02   0.556E+01 -.662E+02 -.377E+02   -.150E+00 -.125E+01 -.391E+01
   0.237E-01 -.100E+03 -.339E+02   -.128E+01 0.968E+02 0.289E+02   0.108E+01 0.289E+01 0.433E+01
   -.195E+01 -.799E+02 -.377E+02   0.197E+01 0.785E+02 0.341E+02   -.170E-01 0.117E+01 0.304E+01
   0.324E+02 -.916E+02 -.184E+02   -.342E+02 0.885E+02 0.117E+02   0.156E+01 0.269E+01 0.578E+01
   0.370E+01 -.772E+02 -.321E+02   -.326E+01 0.750E+02 0.277E+02   -.375E+00 0.196E+01 0.383E+01
   -.311E+01 -.799E+02 -.299E+02   0.232E+01 0.774E+02 0.248E+02   0.682E+00 0.210E+01 0.441E+01
   -.624E+01 -.741E+02 -.372E+02   0.700E+01 0.721E+02 0.332E+02   -.656E+00 0.173E+01 0.343E+01
   -.416E+01 0.106E+03 0.532E+02   0.424E+01 -.121E+03 -.501E+02   -.713E-01 0.122E+02 -.266E+01
   -.147E+01 0.887E+02 0.877E+02   0.567E+00 -.101E+03 -.835E+02   0.773E+00 0.106E+02 -.364E+01
   0.119E+02 0.105E+03 0.499E+02   -.121E+02 -.116E+03 -.460E+02   0.164E+00 0.102E+02 -.329E+01
   0.309E+02 0.891E+02 0.732E+02   -.328E+02 -.102E+03 -.675E+02   0.162E+01 0.107E+02 -.491E+01
   -.106E+02 0.112E+03 0.530E+02   0.115E+02 -.124E+03 -.493E+02   -.726E+00 0.109E+02 -.317E+01
   0.246E+01 0.104E+03 0.748E+02   -.366E+01 -.117E+03 -.710E+02   0.103E+01 0.107E+02 -.327E+01
   0.362E+01 -.122E+03 -.548E+02   -.344E+01 0.135E+03 0.514E+02   -.152E+00 -.108E+02 0.290E+01
   -.910E+00 -.121E+03 -.759E+02   0.119E+01 0.133E+03 0.730E+02   -.240E+00 -.108E+02 0.248E+01
   -.174E+01 -.111E+03 -.552E+02   0.175E+01 0.123E+03 0.515E+02   -.110E-01 -.104E+02 0.317E+01
   0.452E+01 -.122E+03 -.698E+02   -.478E+01 0.135E+03 0.659E+02   0.225E+00 -.113E+02 0.340E+01
   -.846E+01 -.122E+03 -.565E+02   0.875E+01 0.135E+03 0.533E+02   -.256E+00 -.107E+02 0.272E+01
   -.254E+00 -.119E+03 -.756E+02   -.832E-01 0.132E+03 0.728E+02   0.292E+00 -.107E+02 0.241E+01
   -.113E+02 0.151E+02 0.203E+02   0.120E+02 -.756E+01 -.236E+02   -.555E+00 -.651E+01 0.288E+01
   -.385E+01 -.397E+01 -.166E+01   0.391E+01 0.113E+02 -.208E+01   -.558E-01 -.626E+01 0.322E+01
   0.141E+02 0.191E+02 0.106E+02   -.152E+02 -.127E+02 -.136E+02   0.990E+00 -.552E+01 0.254E+01
   0.164E+01 -.630E+01 0.377E+01   -.156E+01 0.133E+02 -.761E+01   -.670E-01 -.605E+01 0.331E+01
   -.218E+01 0.198E+01 0.204E+02   0.261E+01 0.543E+01 -.243E+02   -.376E+00 -.637E+01 0.338E+01
   0.277E+01 -.667E+01 0.382E+01   -.302E+01 0.136E+02 -.750E+01   0.211E+00 -.599E+01 0.316E+01
   0.773E+02 -.567E+02 -.529E+02   -.869E+02 0.524E+02 0.554E+02   0.829E+01 0.359E+01 -.218E+01
   0.103E+02 -.856E+01 0.518E+02   -.124E+02 0.991E+00 -.488E+02   0.180E+01 0.651E+01 -.260E+01
   0.903E+01 -.221E+02 -.326E+02   -.838E+01 0.160E+02 0.369E+02   -.559E+00 0.521E+01 -.370E+01
   0.188E+02 -.235E-01 0.269E+02   -.188E+02 -.792E+01 -.251E+02   0.467E-01 0.682E+01 -.157E+01
   -.837E+02 -.236E+02 -.209E+02   0.919E+02 0.191E+02 0.218E+02   -.708E+01 0.381E+01 -.803E+00
   -.152E+02 0.503E+01 0.174E+02   0.153E+02 -.121E+02 -.141E+02   -.109E+00 0.607E+01 -.283E+01
   -.115E+02 0.727E+02 0.513E+02   0.116E+02 -.710E+02 -.464E+02   -.821E-01 -.148E+01 -.424E+01
   0.127E+03 0.127E+02 -.217E+02   -.119E+03 -.878E+01 0.164E+02   -.633E+01 -.342E+01 0.461E+01
   0.114E+02 0.674E+02 0.525E+02   -.119E+02 -.646E+02 -.461E+02   0.402E+00 -.247E+01 -.550E+01
   -.471E+02 0.610E+02 0.320E+02   0.511E+02 -.595E+02 -.291E+02   -.349E+01 -.131E+01 -.246E+01
   -.121E+02 0.642E+02 0.418E+02   0.139E+02 -.617E+02 -.363E+02   -.160E+01 -.214E+01 -.472E+01
   0.401E+02 0.138E+03 -.106E+03   -.420E+02 -.145E+03 0.106E+03   0.174E+01 0.607E+01 0.720E+00
   0.495E+00 -.506E+02 -.361E+02   -.746E+00 0.483E+02 0.314E+02   0.216E+00 0.198E+01 0.410E+01
   0.362E+02 -.245E+02 -.551E+02   -.358E+02 0.230E+02 0.510E+02   -.331E+00 0.131E+01 0.352E+01
   0.628E+01 -.589E+02 -.358E+02   -.639E+01 0.572E+02 0.309E+02   0.922E-01 0.148E+01 0.421E+01
   -.630E+02 -.137E+02 -.226E+02   0.635E+02 0.137E+02 0.167E+02   -.520E+00 0.915E-01 0.504E+01
   -.588E+01 -.532E+02 -.363E+02   0.620E+01 0.507E+02 0.312E+02   -.277E+00 0.218E+01 0.438E+01
   0.722E+01 0.160E+03 -.128E+02   -.721E+01 -.172E+03 0.161E+02   0.371E-01 0.111E+02 -.289E+01
   -.308E+01 0.166E+03 0.105E+03   0.270E+01 -.178E+03 -.102E+03   0.327E+00 0.105E+02 -.289E+01
   0.173E+02 0.147E+03 0.308E+02   -.173E+02 -.160E+03 -.279E+02   -.339E-01 0.112E+02 -.250E+01
   0.177E+02 0.152E+03 0.835E+02   -.175E+02 -.165E+03 -.796E+02   -.138E+00 0.111E+02 -.336E+01
   -.302E+02 0.126E+03 0.106E+02   0.321E+02 -.137E+03 -.664E+01   -.167E+01 0.988E+01 -.348E+01
   -.773E+01 0.135E+03 0.815E+02   0.755E+01 -.147E+03 -.781E+02   0.145E+00 0.104E+02 -.293E+01
   -.177E+03 -.799E+02 0.113E+03   0.189E+03 0.936E+02 -.121E+03   -.103E+02 -.117E+02 0.713E+01
   -.144E+02 -.827E+02 -.137E+03   0.147E+02 0.905E+02 0.141E+03   -.322E+00 -.670E+01 -.331E+01
   0.122E+03 -.945E+02 0.240E+02   -.112E+03 0.108E+03 -.174E+02   -.889E+01 -.113E+02 -.573E+01
   0.656E+01 -.130E+03 -.905E+02   -.605E+01 0.143E+03 0.865E+02   -.444E+00 -.114E+02 0.341E+01
   0.487E+01 -.122E+03 -.467E+02   -.440E+01 0.135E+03 0.454E+02   -.412E+00 -.112E+02 0.106E+01
   0.421E+01 -.125E+03 -.820E+02   -.490E+01 0.138E+03 0.787E+02   0.598E+00 -.110E+02 0.281E+01
   0.128E+03 -.372E+02 0.150E+02   -.147E+03 0.434E+02 -.232E+02   0.188E+02 -.625E+01 0.803E+01
 -----------------------------------------------------------------------------------------------
   0.280E+01 0.212E+01 0.721E+01   -.199E-12 -.173E-11 0.120E-11   -.304E+00 -.343E+01 -.689E+01
 
 
 POSITION                                       TOTAL-FORCE (eV/Angst)
 -----------------------------------------------------------------------------------
      9.13666      7.66041     -1.79385         0.001555      0.059609      0.004224
      9.12421      6.27844     -7.41926         0.007071      0.059551      0.013357
      3.02872      7.63880     -1.80625        -0.019010      0.049380      0.016115
      3.02759      6.27232     -7.42705        -0.003446      0.058037      0.013470
      6.09691      7.66464     -1.79654         0.007063      0.069350      0.006072
      6.07648      6.27106     -7.43424        -0.008022      0.059943      0.012542
      1.48533      9.43518     -3.90664        -0.064324     -0.070903     -0.020712
      1.50396      7.98666     -9.51737        -0.014422     -0.075836      0.003931
      4.56603      9.38285     -3.90005        -0.009038     -0.077260     -0.015987
      4.56801      7.99255     -9.52461        -0.010995     -0.103396      0.009588
      7.62246      9.42550     -3.91006         0.013167     -0.032112     -0.043473
      7.61100      7.98471     -9.53369        -0.010227     -0.053180      0.004105
      1.48680      6.14997     -4.49636         0.034498     -0.024052      0.000689
      1.50620      4.77336    -10.16402        -0.001137     -0.033031      0.011813
      4.57950      6.18591     -4.52256        -0.037818     -0.028890      0.020549
      4.55146      4.78609    -10.16849         0.001197     -0.036987      0.025744
      7.62471      6.13281     -4.49357        -0.004081     -0.030749     -0.000366
      7.60187      4.76264    -10.16122         0.007010     -0.022150      0.006514
      0.05458     10.88723     -1.17141        -0.101297     -0.056411      0.017343
      9.12063      9.52134     -6.80771        -0.000566      0.031505      0.001405
      3.18242     10.76240     -1.12436        -0.020206      0.057782     -0.009721
      3.02711      9.49896     -6.82588        -0.013361      0.022993     -0.025505
      6.17998     10.87252     -1.16713        -0.052687      0.014403     -0.009842
      6.08017      9.49740     -6.82242         0.013190      0.027865     -0.022219
      1.46888      0.15134     -7.39165        -0.061763      0.064299      0.038338
      4.63916      1.47637     -1.82238         0.139638      0.034742     -0.081999
      4.55213      0.13313     -7.44157         0.017325      0.082332      0.008092
      7.62027      1.56533     -1.69095        -0.042514      0.175102      0.235131
      7.61436      0.15956     -7.37696         0.048311      0.061617      0.039789
      0.01616      3.10954     -3.89846         0.035690      0.147573     -0.059219
      9.12207      1.83631     -9.55498        -0.009955     -0.082236     -0.017478
      3.02828      3.31200     -3.88574        -0.106961      0.089210     -0.025048
      3.01868      1.85238     -9.54927        -0.026101     -0.074225     -0.006985
      6.08445      3.22936     -3.90477         0.065535     -0.074952     -0.060974
      6.06851      1.84823     -9.54155         0.032189     -0.073975     -0.007334
      9.06686      0.39356     -4.30182        -0.048671     -0.387945     -0.394076
      9.06606     -1.35463    -10.13432         0.001202      0.045331     -0.079199
      2.98511     -0.05727     -4.53998        -0.021203     -0.028540     -0.013747
      2.95816     -1.37424    -10.14908        -0.027564     -0.117234      0.144908
      6.10023     -0.00495     -4.50578         0.042554      0.004602     -0.001924
      6.04015     -1.36630    -10.12177         0.025623     -0.010373      0.004508
      1.50359      4.70129     -1.20023        -0.002975      0.012307     -0.058993
      1.50891      3.35149     -6.83378         0.019966      0.006071      0.007544
      4.56267      4.74163     -1.16977        -0.021828      0.023060     -0.003720
      4.54526      3.33709     -6.80593        -0.007910      0.039229     -0.038734
      7.61684      4.73133     -1.17472         0.009670      0.017603      0.003327
      7.59527      3.36716     -6.84013        -0.003041      0.006774      0.029726
      1.67346     11.87481     -1.39148         0.081492      0.188095     -0.058107
      1.50861     10.50636     -7.10792         0.005807     -0.179629      0.130850
      4.63571     11.85744     -1.43003        -0.013577     -0.194325      0.102883
      4.55416     10.49566     -7.12422        -0.003918     -0.163941      0.137511
      7.69010     11.91809     -1.46684        -0.023297     -0.190238      0.139613
      7.59334     10.50811     -7.11203        -0.004284     -0.187719      0.140842
      9.13129      5.09441     -4.24087        -0.004749      0.308766     -0.119987
      9.12911      3.75859     -9.88299        -0.006347      0.181999     -0.111877
      3.05239      5.19697     -4.24959         0.009391      0.135547     -0.094869
      3.03352      3.76858     -9.88581        -0.002623      0.172106     -0.111382
      6.07763      5.14890     -4.20946        -0.004918      0.167173     -0.125930
      6.06741      3.76530     -9.88853         0.007848      0.177020     -0.108155
      1.50850      7.49635     -3.19113         0.001004     -0.085759     -0.070413
      1.50045      6.09427     -8.82766         0.009087     -0.017393     -0.105434
      4.57259      7.49689     -3.19036        -0.000684     -0.025103     -0.124488
      4.55752      6.09734     -8.82838         0.010433     -0.020547     -0.111586
      7.62229      7.49234     -3.19186        -0.005359     -0.075895     -0.073888
      7.60487      6.09300     -8.83340        -0.007531     -0.021349     -0.106242
      0.01392      9.57386     -2.48356         0.032319      0.073306      0.121557
      9.11748      8.17471     -8.13345         0.003456      0.016878      0.081266
      3.04819      9.54843     -2.50682         0.054321      0.079538      0.183870
      3.02463      8.17172     -8.14256        -0.006496      0.047473      0.106324
      6.11279      9.56507     -2.49884         0.018949      0.061264      0.123825
      6.07191      8.17138     -8.14747        -0.022112      0.039349      0.092951
      9.12867      8.96807     -5.05280        -0.001837      0.446486     -0.059331
      0.00469      7.61446    -10.71001         0.020260      0.380548     -0.092467
      3.02082      9.03661     -5.04485         0.009936      0.381178     -0.081489
      3.04662      7.56256    -10.66285         0.063707      0.390421     -0.151137
      6.08514      8.99882     -5.05152        -0.026141      0.404524     -0.078507
      6.09671      7.59690    -10.70064         0.030848      0.391022     -0.089727
      1.51776      8.06225     -0.63283        -0.002556     -0.390051      0.063511
      1.50633      6.66895     -6.26977        -0.007738     -0.397023      0.052537
      4.55674      8.06832     -0.64345        -0.001260     -0.381952      0.074579
      4.55737      6.69962     -6.28572         0.013857     -0.416643      0.082637
      7.61283      8.05685     -0.62918        -0.014404     -0.391598      0.058549
      7.59496      6.65285     -6.26817         0.013541     -0.391386      0.056517
      9.13360      5.74120     -1.45594        -0.020234     -0.169103      0.100965
      9.13004      4.35854     -7.10710        -0.004744     -0.163389      0.107778
      3.03402      5.73524     -1.45414         0.039947     -0.133695      0.091798
      3.03523      4.36095     -7.10117         0.001921     -0.161639      0.115589
      6.08801      5.73854     -1.46416        -0.016236     -0.168114      0.117613
      6.05653      4.35978     -7.10033         0.015746     -0.163711      0.110426
      1.41295     -0.91311     -4.17385         0.285828      0.095448     -0.070905
      1.45385     -2.38584     -9.88655         0.077342      0.178883     -0.085522
      4.55069     -0.98248     -4.21904        -0.020077      0.126069     -0.126975
      4.49770     -2.36941     -9.92571         0.011574      0.188140     -0.054732
      7.64289     -0.95153     -4.22814        -0.239710      0.089081     -0.039976
      7.55567     -2.39033     -9.86294         0.000751      0.171057     -0.099375
      9.11288     -0.03518     -8.81116        -0.001360     -0.022759     -0.108511
      3.05128      1.21831     -3.09102        -0.268993     -0.122440      0.286179
      3.01189     -0.04552     -8.85026         0.021792     -0.075222     -0.175473
      6.08871      1.33695     -3.17739        -0.139606     -0.032525     -0.052321
      6.06790     -0.03747     -8.81827        -0.060463     -0.055191     -0.134104
      1.54876      3.47478     -2.59053         0.081764      0.296365     -0.044300
      1.50717      2.03030     -8.15764         0.006778      0.041790      0.120994
      4.53299      3.38033     -2.47492        -0.004700      0.019058      0.093959
      4.53949      2.02801     -8.14700         0.010198      0.028801      0.118435
      7.62016      3.37659     -2.49729        -0.045080     -0.002315      0.160046
      7.58831      2.03739     -8.15190        -0.004933      0.050500      0.134922
      1.57271      2.80625     -5.07431         0.003046      0.428203     -0.106479
      1.51198      1.44188    -10.72045         0.017403      0.395382     -0.059242
      4.53209      2.83197     -5.02275         0.010019      0.415326     -0.054833
      4.53886      1.42121    -10.71087         0.003320      0.415196     -0.087761
      7.57447      2.86968     -5.07347        -0.066682      0.397383     -0.131445
      7.58651      1.47261    -10.70227         0.003722      0.382230     -0.070576
      9.05816      1.98317     -0.55808        -0.444187     -0.434055      0.326955
      9.11932      0.53284     -6.24235        -0.013847     -0.268093     -0.125390
      2.89470      1.73881     -0.74843        -0.336321     -0.415424     -0.256054
      3.03301      0.51796     -6.28064        -0.018134     -0.424067      0.096491
      6.04663      1.91405     -0.59902        -0.021720     -0.412743      0.012977
      6.05707      0.54084     -6.26641         0.026832     -0.413979      0.067028
      1.71026      1.26213     -1.87069         1.111287     -0.418424      0.265443
 -----------------------------------------------------------------------------------
    total drift:                                0.052071     -0.016198      0.022143


--------------------------------------------------------------------------------------------------------



  FREE ENERGIE OF THE ION-ELECTRON SYSTEM (eV)
  ---------------------------------------------------
  free  energy   TOTEN  =      -938.24648660 eV

  energy  without entropy=     -938.23948905  energy(sigma->0) =     -938.24298782
 


--------------------------------------------------------------------------------------------------------


    POTLOK:  cpu time      1.9276: real time      1.9349


--------------------------------------------------------------------------------------------------------


 writing wavefunctions
     LOOP+:  cpu time  18965.7883: real time  18968.4203
    4ORBIT:  cpu time      0.0000: real time      0.0000

 total amount of memory used by VASP MPI-rank0  7418507. kBytes
=======================================================================

   base      :      30000. kBytes
   nonlr-proj:      46605. kBytes
   fftplans  :      51012. kBytes
   grid      :     102973. kBytes
   one-center:       1850. kBytes
   HF        :        194. kBytes
   wavefun   :    6956640. kBytes
   fock_wrk  :     229233. kBytes
 
  
  
 General timing and accounting informations for this job:
 ========================================================
  
                  Total CPU time used (sec):    18997.162
                            User time (sec):    18985.003
                          System time (sec):       12.159
                         Elapsed time (sec):    19002.209
  
                   Maximum memory used (kb):    13218880.
                   Average memory used (kb):          N/A
  
                          Minor page faults:      4852102
                          Major page faults:            8
                 Voluntary context switches:       364751
