 vasp.6.4.2 20Jul23 (build Nov 12 2023 22:16:35) complex                         
 executed on              LinuxNV date 2025.03.16  23:27:01
 running    4 mpi-ranks, on    1 nodes
 distrk:  each k-point on    1 cores,    4 groups
 distr:  one band on NCORE=   1 cores,    1 groups
 OpenACC runtime initialized ...    4 GPUs detected


--------------------------------------------------------------------------------------------------------


 INCAR:
   PREC = Normal
   ENCUT = 450
   NELM = 500
   IBRION = -1
   ISPIN = 1
   NSW = 0
   ISIF = 2
   EDIFF = 1E-5
   EDIFFG = -5E-3
   ISTART = 0
   ICHARG = 0
   ISMEAR = 0
   SIGMA = 0.05
   LWAVE = .T.
   LCHARG = .T.
   LREAL = Auto
   LPLANE = .TRUE.
   NPAR = 1
   KPAR = 4
   NCORE = 1
   ALGO = All
   LHFCALC = .TRUE.
   HSE06 = .TRUE.
   HFSCREEN = 0.2
   TIME = 0.4
   AEXX = 0.32
   LMAXFOCK = 4
   PRECFOCK = Fast
   NELECT = 1056

 POTCAR:    PAW_PBE Ga_d 06Jul2010                
 POTCAR:     PAW_PBE O 08Apr2002                  
 POTCAR:    PAW_PBE P 06Sep2000                   
 POTCAR:    PAW_PBE Ga_d 06Jul2010                
   SHA256 =  a60ddf36e14f00ea098d9e3914b3745f1b7105e68786148f49ae384e44b4226c Ga_d/POTCAR           
   COPYR  = (c) Copyright 06Jul2010 Georg Kresse                                                    
   COPYR  = This file is part of the software VASP. Any use, copying, and all other rights are regul
   COPYR  = If you do not have a valid VASP license, you may not use, copy or distribute this file. 
   VRHFIN =Ga: s2p1                                                                                 
   LEXCH  = PE                                                                                      
   EATOM  =  2148.8298 eV,  157.9345 Ry                                                             
                                                                                                    
   TITEL  = PAW_PBE Ga_d 06Jul2010                                                                  
   LULTRA =        F    use ultrasoft PP ?                                                          
   IUNSCR =        1    unscreen: 0-lin 1-nonlin 2-no                                               
   RPACOR =    1.700    partial core radius                                                         
   POMASS =   69.723; ZVAL   =   13.000    mass and valenz                                          
   RCORE  =    2.300    outmost cutoff radius                                                       
   RWIGS  =    2.300; RWIGS  =    1.217    wigner-seitz radius (au A)                               
   ENMAX  =  282.691; ENMIN  =  212.018 eV                                                          
   ICORE  =        3    local potential                                                             
   LCOR   =        T    correct aug charges                                                         
   LPAW   =        T    paw PP                                                                      
   EAUG   =  490.690                                                                                
   DEXC   =    0.000                                                                                
   RMAX   =    2.341    core radius for proj-oper                                                   
   RAUG   =    1.300    factor for augmentation sphere                                              
   RDEP   =    2.413    radius for radial grids                                                     
   RDEPT  =    1.856    core radius for aug-charge                                                  
                                                                                                    
   Atomic configuration                                                                             
    9 entries                                                                                       
     n  l   j            E        occ.                                                              
     1  0  0.50    -10228.7831   2.0000                                                             
     2  0  0.50     -1262.1604   2.0000                                                             
     2  1  1.50     -1098.6333   6.0000                                                             
     3  0  0.50      -148.1110   2.0000                                                             
     3  1  1.50       -98.8436   6.0000                                                             
     3  2  2.50       -19.1549  10.0000                                                             
     4  0  0.50        -8.9483   2.0000                                                             
     4  1  0.50        -2.5791   1.0000                                                             
     4  3  2.50        -2.7416   0.0000                                                             
   Description                                                                                      
     l       E           TYP  RCUT    TYP  RCUT                                                     
     2    -19.1549037     23  2.300                                                                 
     2     -5.4423304     23  2.300                                                                 
     0     -8.9483111     23  2.300                                                                 
     0     68.0291300     23  2.300                                                                 
     1     -2.5790802     23  2.100                                                                 
     1     81.6349560     23  2.300                                                                 
     3      6.8029130     23  2.300                                                                 
  local pseudopotential read in
  partial core-charges read in
  partial kinetic energy density read in
  atomic valenz-charges read in
  non local Contribution for L=            2  read in
    real space projection operators read in
  non local Contribution for L=            2  read in
    real space projection operators read in
  non local Contribution for L=            0  read in
    real space projection operators read in
  non local Contribution for L=            0  read in
    real space projection operators read in
  non local Contribution for L=            1  read in
    real space projection operators read in
  non local Contribution for L=            1  read in
    real space projection operators read in
    PAW grid and wavefunctions read in
 
   number of l-projection  operators is LMAX  =            6
   number of lm-projection operators is LMMAX =           18
 
 POTCAR:     PAW_PBE O 08Apr2002                  
   SHA256 =  818f92134a0a090dccd8ba1447fa70422a3b330e708bb4f08108d8ae51209ddf O/POTCAR              
   COPYR  = (c) Copyright 08Apr2002 Georg Kresse                                                    
   COPYR  = This file is part of the software VASP. Any use, copying, and all other rights are regul
   COPYR  = If you do not have a valid VASP license, you may not use, copy or distribute this file. 
   VRHFIN =O: s2p4                                                                                  
   LEXCH  = PE                                                                                      
   EATOM  =   432.3788 eV,   31.7789 Ry                                                             
                                                                                                    
   TITEL  = PAW_PBE O 08Apr2002                                                                     
   LULTRA =        F    use ultrasoft PP ?                                                          
   IUNSCR =        1    unscreen: 0-lin 1-nonlin 2-no                                               
   RPACOR =    1.200    partial core radius                                                         
   POMASS =   16.000; ZVAL   =    6.000    mass and valenz                                          
   RCORE  =    1.520    outmost cutoff radius                                                       
   RWIGS  =    1.550; RWIGS  =    0.820    wigner-seitz radius (au A)                               
   ENMAX  =  400.000; ENMIN  =  300.000 eV                                                          
   ICORE  =        2    local potential                                                             
   LCOR   =        T    correct aug charges                                                         
   LPAW   =        T    paw PP                                                                      
   EAUG   =  605.392                                                                                
   DEXC   =    0.000                                                                                
   RMAX   =    1.553    core radius for proj-oper                                                   
   RAUG   =    1.300    factor for augmentation sphere                                              
   RDEP   =    1.550    radius for radial grids                                                     
   RDEPT  =    1.329    core radius for aug-charge                                                  
                                                                                                    
   Atomic configuration                                                                             
    4 entries                                                                                       
     n  l   j            E        occ.                                                              
     1  0  0.50      -514.6923   2.0000                                                             
     2  0  0.50       -23.9615   2.0000                                                             
     2  1  0.50        -9.0305   4.0000                                                             
     3  2  1.50        -9.5241   0.0000                                                             
   Description                                                                                      
     l       E           TYP  RCUT    TYP  RCUT                                                     
     0    -23.9615318     23  1.200                                                                 
     0     -9.5240782     23  1.200                                                                 
     1     -9.0304911     23  1.520                                                                 
     1      8.1634956     23  1.520                                                                 
     2     -9.5240782      7  1.500                                                                 
  local pseudopotential read in
  partial core-charges read in
  partial kinetic energy density read in
  kinetic energy density of atom read in
  atomic valenz-charges read in
  non local Contribution for L=            0  read in
    real space projection operators read in
  non local Contribution for L=            0  read in
    real space projection operators read in
  non local Contribution for L=            1  read in
    real space projection operators read in
  non local Contribution for L=            1  read in
    real space projection operators read in
    PAW grid and wavefunctions read in
 
   number of l-projection  operators is LMAX  =            4
   number of lm-projection operators is LMMAX =            8
 
 POTCAR:    PAW_PBE P 06Sep2000                   
   SHA256 =  df60c54a93efe35c9e85ae94c010c75e9f6960a95d5595d7cdba4096d109af88 P/POTCAR              
   COPYR  = (c) Copyright 06Sep2000 Georg Kresse                                                    
   COPYR  = This file is part of the software VASP. Any use, copying, and all other rights are regul
   COPYR  = If you do not have a valid VASP license, you may not use, copy or distribute this file. 
   VRHFIN =P : s2p3                                                                                 
   LEXCH  = PE                                                                                      
   EATOM  =   176.0430 eV,   12.9388 Ry                                                             
                                                                                                    
   TITEL  = PAW_PBE P 06Sep2000                                                                     
   LULTRA =        F    use ultrasoft PP ?                                                          
   IUNSCR =        1    unscreen: 0-lin 1-nonlin 2-no                                               
   RPACOR =    1.500    partial core radius                                                         
   POMASS =   30.974; ZVAL   =    5.000    mass and valenz                                          
   RCORE  =    1.900    outmost cutoff radius                                                       
   RWIGS  =    2.330; RWIGS  =    1.233    wigner-seitz radius (au A)                               
   ENMAX  =  255.040; ENMIN  =  191.280 eV                                                          
   ICORE  =        2    local potential                                                             
   LCOR   =        T    correct aug charges                                                         
   LPAW   =        T    paw PP                                                                      
   EAUG   =  342.924                                                                                
   DEXC   =    0.000                                                                                
   RMAX   =    1.935    core radius for proj-oper                                                   
   RAUG   =    1.300    factor for augmentation sphere                                              
   RDEP   =    1.931    radius for radial grids                                                     
   RDEPT  =    1.794    core radius for aug-charge                                                  
                                                                                                    
   Atomic configuration                                                                             
    6 entries                                                                                       
     n  l   j            E        occ.                                                              
     1  0  0.50     -2084.0982   2.0000                                                             
     2  0  0.50      -173.9859   2.0000                                                             
     2  1  1.50      -124.4865   6.0000                                                             
     3  0  0.50       -13.9692   2.0000                                                             
     3  1  0.50        -5.5067   3.0000                                                             
     3  2  1.50        -5.4423   0.0000                                                             
   Description                                                                                      
     l       E           TYP  RCUT    TYP  RCUT                                                     
     0    -13.9691527     23  1.900                                                                 
     0    -11.7794650     23  1.900                                                                 
     1     -5.5066937     23  1.900                                                                 
     1     -0.2556953     23  1.900                                                                 
     2     -5.4423304     23  1.900                                                                 
  local pseudopotential read in
  partial core-charges read in
  partial kinetic energy density read in
  atomic valenz-charges read in
  non local Contribution for L=            0  read in
    real space projection operators read in
  non local Contribution for L=            0  read in
    real space projection operators read in
  non local Contribution for L=            1  read in
    real space projection operators read in
  non local Contribution for L=            1  read in
    real space projection operators read in
    PAW grid and wavefunctions read in
 
   number of l-projection  operators is LMAX  =            4
   number of lm-projection operators is LMMAX =            8
 
 Optimization of the real space projectors (new method)

 maximal supplied QI-value         = 16.25
 optimisation between [QCUT,QGAM] = [ 10.73, 21.61] = [ 32.22,130.83] Ry 
 Optimized for a Real-space Cutoff    1.42 Angstroem

   l    n(q)    QCUT    max X(q) W(low)/X(q) W(high)/X(q)  e(spline) 
   2      8    10.726     7.143    0.22E-03    0.16E-03    0.73E-07
   2      8    10.726     5.586    0.40E-03    0.26E-03    0.10E-06
   0      9    10.726    12.382    0.25E-04    0.21E-05    0.37E-07
   0      9    10.726     6.622    0.42E-04    0.48E-05    0.77E-07
   1      9    10.726     7.935    0.27E-03    0.13E-04    0.16E-06
   1      9    10.726     2.425    0.23E-03    0.15E-04    0.14E-06
 Optimization of the real space projectors (new method)

 maximal supplied QI-value         = 24.76
 optimisation between [QCUT,QGAM] = [ 10.64, 21.54] = [ 31.73,129.89] Ry 
 Optimized for a Real-space Cutoff    1.23 Angstroem

   l    n(q)    QCUT    max X(q) W(low)/X(q) W(high)/X(q)  e(spline) 
   0      8    10.645    20.381    0.38E-03    0.60E-03    0.15E-06
   0      8    10.645    15.268    0.40E-03    0.65E-03    0.17E-06
   1      7    10.645     5.964    0.30E-03    0.63E-03    0.18E-06
   1      7    10.645     5.382    0.24E-03    0.53E-03    0.16E-06
 Optimization of the real space projectors (new method)

 maximal supplied QI-value         = 19.84
 optimisation between [QCUT,QGAM] = [ 10.71, 21.63] = [ 32.15,130.99] Ry 
 Optimized for a Real-space Cutoff    1.19 Angstroem

   l    n(q)    QCUT    max X(q) W(low)/X(q) W(high)/X(q)  e(spline) 
   0      8    10.715   160.924    0.37E-03    0.37E-04    0.63E-07
   0      8    10.715   130.086    0.37E-03    0.36E-04    0.63E-07
   1      7    10.715    74.434    0.19E-03    0.56E-03    0.65E-07
   1      7    10.715    49.120    0.19E-03    0.55E-03    0.63E-07
  PAW_PBE Ga_d 06Jul2010                :
 energy of atom  1       EATOM=-2148.8298
 kinetic energy error for atom=    0.0038 (will be added to EATOM!!)
   PAW_PBE O 08Apr2002                  :
 energy of atom  2       EATOM= -432.3788
 kinetic energy error for atom=    0.0389 (will be added to EATOM!!)
  PAW_PBE P 06Sep2000                   :
 energy of atom  3       EATOM= -176.0430
 kinetic energy error for atom=    0.0019 (will be added to EATOM!!)
 
 
 POSCAR: Ga48 O72
  positions in direct lattice
  velocities in cartesian coordinates
 exchange correlation table for  LEXCH =        8
   RHO(1)=    0.500       N(1)  =     2000
   RHO(2)=  100.500       N(2)  =     4000
 


--------------------------------------------------------------------------------------------------------


 ion  position               nearest neighbor table
   1  0.647  0.005  0.155-  84 1.85  82 1.97  78 1.97  66 2.02  60 2.07  64 2.10
   2  0.665  0.005  0.663-  79 1.95  85 1.96  83 1.97  67 1.98  61 2.03  65 2.07
   3  0.646  0.334  0.156-  86 1.89  78 1.95  80 1.97  68 2.01  60 2.06  62 2.07
   4  0.665  0.328  0.660-  79 1.95  87 1.96  81 1.97  69 2.01  61 2.03  63 2.04
   5  0.644  0.672  0.158-  88 1.91  82 1.96  80 1.97  70 2.00  64 2.05  62 2.06
   6  0.665  0.664  0.662-  81 1.94  89 1.95  83 1.95  71 1.95  63 2.03  65 2.06
   7  0.831  0.171  0.341-  72 1.90  90 1.92  74 1.98  68 1.99  60 2.06  66 2.12
   8  0.856  0.161  0.858-  75 1.92  67 1.97  73 1.97  91 1.98  69 2.17  61 2.23
   9  0.831  0.499  0.341-  76 1.90  74 1.97  92 1.97  68 1.99  70 2.08  62 2.08
  10  0.849  0.495  0.841-  75 1.93  93 1.94  71 1.97  77 1.98  69 2.05  63 2.09
  11  0.829  0.835  0.345-  72 1.95  94 1.96  76 1.97  66 2.02  70 2.03  64 2.05
  12  0.843  0.827  0.849-  95 1.85  73 1.94  77 1.94  65 2.02  71 2.11  67 2.13
  13  0.574  0.167  0.394-  56 1.84  54 1.84  60 1.87  79 1.91
  14  0.584  0.171  0.897-  57 1.85  78 1.85  55 1.86  61 1.90
  15  0.595  0.507  0.406-  56 1.81  81 1.83  58 1.84  62 1.84
  16  0.600  0.505  0.898-  80 1.83  57 1.83  59 1.85  63 1.85
  17  0.587  0.834  0.403-  54 1.82  58 1.83  83 1.84  64 1.85
  18  0.594  0.837  0.898-  82 1.83  55 1.84  59 1.85  65 1.87
  19  0.905  0.990  0.110-  48 1.78  73 1.86  52 1.89  66 1.89
  20  0.901  0.968  0.602-  72 1.96  67 1.97  53 1.97  49 1.99  24 2.41
  21  0.910  0.361  0.102-  48 1.82  50 1.92  75 1.93  68 2.09  23 2.40
  22  0.913  0.334  0.602-  74 1.86  49 1.87  51 1.88  69 1.88
  23  0.893  0.622  0.105-  52 1.89  77 1.91  70 1.93  21 2.40
  24  0.899  0.704  0.598-  76 1.94  71 1.95  53 1.96  51 2.00  20 2.41
  25  0.149  0.162  0.668-  49 1.94 114 1.98 116 2.02  96 2.02  98 2.07 102 2.08
  26  0.178  0.477  0.157-  50 1.82  97 1.94 103 1.97 117 2.01 115 2.06  99 2.15  39 2.89
  27  0.148  0.503  0.656- 116 1.94  51 1.94 118 1.99 100 2.01 104 2.13  98 2.15
  28  0.134  0.828  0.130-  52 2.00 117 2.01  99 2.22 119 2.30  37 2.53
  29  0.176  0.833  0.647-  53 1.78 106 1.90 114 1.93 118 1.98 100 2.20  96 2.34
  30  0.331  0.004  0.333- 101 1.99  54 2.00 105 2.06 111 2.06 107 2.09 119 2.26
  31  0.340  0.007  0.849- 108 1.88  96 1.92 112 1.92  55 1.97 102 2.14 106 2.24
  32  0.341  0.332  0.351- 101 1.90  97 1.94 107 1.94 109 1.97  56 1.98 103 2.12
  33  0.340  0.341  0.834- 108 1.85 110 1.93  57 2.01 104 2.01  98 2.02 102 2.06
  34  0.334  0.671  0.340- 105 1.91 111 1.95 109 1.97 103 1.98  58 2.00  99 2.05
  35  0.347  0.667  0.833- 112 1.87 110 1.87  59 1.95 100 1.99 106 2.05 104 2.06
  36  0.085  0.001  0.398- 114 1.88  90 1.91  94 1.92 119 2.20
  37  0.118  0.981  0.945-  91 1.98 113 2.05  96 2.08  95 2.17  28 2.53
  38  0.087  0.330  0.395-  97 1.84  90 1.86 116 1.87  92 1.90
  39  0.105  0.330  0.932-  91 1.88  50 1.93 115 1.96  93 1.99  98 2.03  26 2.89
  40  0.085  0.666  0.389- 118 1.87  99 1.87  94 1.87  92 1.88
  41  0.091  0.664  0.892-  95 1.83  93 1.86 117 1.88 100 1.89
  42  0.368  0.184  0.094- 101 1.85 113 1.88 108 1.88  86 2.02 115 2.03  84 2.15
  43  0.410  0.166  0.606- 107 1.80 102 1.84  85 1.85  87 1.86
  44  0.402  0.505  0.097- 110 1.84  86 1.84  88 1.87 103 1.89 115 2.42
  45  0.413  0.499  0.601- 109 1.82  87 1.85  89 1.85 104 1.85
  46  0.389  0.861  0.096- 105 1.84  84 1.85 112 1.86  88 2.01 113 2.02
  47  0.416  0.834  0.595- 111 1.82  85 1.84  89 1.86 106 1.88
  48  0.955  0.173  0.133-  19 1.78  21 1.82
  49  0.987  0.154  0.631-  22 1.87  25 1.94  20 1.99
  50  0.049  0.403  0.063-  26 1.82  21 1.92  39 1.93
  51  0.985  0.517  0.612-  22 1.88  27 1.94  24 2.00
  52  0.971  0.802  0.125-  19 1.89  23 1.89  28 2.00
  53  0.030  0.834  0.638-  29 1.78  24 1.96  20 1.97
  54  0.497  0.993  0.391-  17 1.82  13 1.84  30 2.00
  55  0.503  0.998  0.862-  18 1.84  14 1.86  31 1.97
  56  0.507  0.346  0.396-  15 1.81  13 1.84  32 1.98
  57  0.508  0.346  0.860-  16 1.83  14 1.85  33 2.01
  58  0.502  0.667  0.385-  17 1.83  15 1.84  34 2.00
  59  0.510  0.669  0.863-  18 1.85  16 1.85  35 1.95
  60  0.659  0.169  0.280-  13 1.87   3 2.06   7 2.06   1 2.07
  61  0.671  0.168  0.783-  14 1.90   2 2.03   4 2.03   8 2.23
  62  0.657  0.502  0.277-  15 1.84   5 2.06   3 2.07   9 2.08
  63  0.674  0.496  0.777-  16 1.85   6 2.03   4 2.04  10 2.09
  64  0.658  0.837  0.280-  17 1.85  11 2.05   5 2.05   1 2.10
  65  0.675  0.833  0.781-  18 1.87  12 2.02   6 2.06   2 2.07
  66  0.815  0.993  0.221-  19 1.89   1 2.02  11 2.02   7 2.12
  67  0.829  0.010  0.733-  20 1.97   8 1.97   2 1.98  12 2.13
  68  0.812  0.335  0.226-   9 1.99   7 1.99   3 2.01  21 2.09
  69  0.832  0.327  0.720-  22 1.88   4 2.01  10 2.05   8 2.17
  70  0.810  0.672  0.222-  23 1.93   5 2.00  11 2.03   9 2.08
  71  0.827  0.656  0.725-  24 1.95   6 1.95  10 1.97  12 2.11
  72  0.819  0.008  0.439-   7 1.90  11 1.95  20 1.96
  73  0.829  0.991  0.951-  19 1.86  12 1.94   8 1.97
  74  0.822  0.336  0.449-  22 1.86   9 1.97   7 1.98
  75  0.828  0.333  0.940-   8 1.92  21 1.93  10 1.93
  76  0.815  0.660  0.439-   9 1.90  24 1.94  11 1.97
  77  0.822  0.658  0.943-  23 1.91  12 1.94  10 1.98
  78  0.663  0.171  0.053-  14 1.85   3 1.95   1 1.97
  79  0.665  0.165  0.551-  13 1.91   2 1.95   4 1.95
  80  0.662  0.504  0.057-  16 1.83   5 1.97   3 1.97
  81  0.674  0.499  0.560-  15 1.83   6 1.94   4 1.97
  82  0.663  0.836  0.056-  18 1.83   5 1.96   1 1.97
  83  0.663  0.834  0.560-  17 1.84   6 1.95   2 1.97
  84  0.492  0.012  0.124-  46 1.85   1 1.85  42 2.15
  85  0.501  0.002  0.630-  47 1.84  43 1.85   2 1.96
  86  0.488  0.339  0.123-  44 1.84   3 1.89  42 2.02
  87  0.501  0.332  0.628-  45 1.85  43 1.86   4 1.96
  88  0.484  0.679  0.121-  44 1.87   5 1.91  46 2.01
  89  0.502  0.665  0.628-  45 1.85  47 1.86   6 1.95
  90  0.992  0.171  0.389-  38 1.86  36 1.91   7 1.92
  91  0.022  0.156  0.898-  39 1.88   8 1.98  37 1.98
  92  0.995  0.499  0.360-  40 1.88  38 1.90   9 1.97
  93  0.009  0.493  0.853-  41 1.86  10 1.94  39 1.99
  94  0.993  0.830  0.383-  40 1.87  36 1.92  11 1.96
  95  0.996  0.821  0.859-  41 1.83  12 1.85  37 2.17
  96  0.180  0.007  0.795-  31 1.92  25 2.02  37 2.08  29 2.34
  97  0.180  0.353  0.294-  38 1.84  32 1.94  26 1.94
  98  0.171  0.334  0.788-  33 2.02  39 2.03  25 2.07  27 2.15
  99  0.164  0.659  0.271-  40 1.87  34 2.05  26 2.15  28 2.22
 100  0.180  0.660  0.780-  41 1.89  35 1.99  27 2.01  29 2.20
 101  0.378  0.179  0.256-  42 1.85  32 1.90  30 1.99
 102  0.323  0.171  0.714-  43 1.84  33 2.06  25 2.08  31 2.14
 103  0.339  0.507  0.230-  44 1.89  26 1.97  34 1.98  32 2.12
 104  0.326  0.499  0.711-  45 1.85  33 2.01  35 2.06  27 2.13
 105  0.338  0.823  0.229-  46 1.84  34 1.91  30 2.06
 106  0.334  0.832  0.712-  47 1.88  29 1.90  35 2.05  31 2.24
 107  0.329  0.171  0.455-  43 1.80  32 1.94  30 2.09
 108  0.375  0.182  0.935-  33 1.85  31 1.88  42 1.88
 109  0.332  0.505  0.449-  45 1.82  32 1.97  34 1.97
 110  0.347  0.509  0.935-  44 1.84  35 1.87  33 1.93
 111  0.324  0.833  0.447-  47 1.82  34 1.95  30 2.06
 112  0.346  0.826  0.934-  46 1.86  35 1.87  31 1.92
 113  0.273  0.021  0.053-  42 1.88  46 2.02  37 2.05
 114  0.170  0.009  0.555-  36 1.88  29 1.93  25 1.98
 115  0.245  0.337  0.054-  39 1.96  42 2.03  26 2.06  44 2.42
 116  0.152  0.332  0.558-  38 1.87  27 1.94  25 2.02
 117  0.176  0.649  0.050-  41 1.88  26 2.01  28 2.01
 118  0.172  0.659  0.545-  40 1.87  29 1.98  27 1.99
 119  0.149  0.040  0.239-  36 2.20  30 2.26  28 2.30
 
  LATTYP: Found a simple monoclinic cell.
 ALAT       =    11.6348202465
 B/A-ratio  =     0.7858051831
 C/A-ratio  =     1.0554931797
 COS(beta)  =    -0.2379290539
  
  Lattice vectors:
  
 A1 = (   0.0000000000,  -2.7682617730, -11.3006977184)
 A2 = (  -9.1427020537,   0.0000000000,   0.0000000000)
 A3 = (   0.0000000000,  12.2804734172,   0.0000000000)


Analysis of symmetry for initial positions (statically):
=====================================================================
 Subroutine PRICEL returns:
 Original cell was already a primitive cell.
 

 Routine SETGRP: Setting up the symmetry group for a 
 simple monoclinic supercell.


 Subroutine GETGRP returns: Found  1 space group operations
 (whereof  1 operations were pure point group operations)
 out of a pool of  4 trial point group operations.


The static configuration has the point symmetry C_1 .


Analysis of symmetry for dynamics (positions and initial velocities):
=====================================================================
 Subroutine PRICEL returns:
 Original cell was already a primitive cell.
 

 Routine SETGRP: Setting up the symmetry group for a 
 simple monoclinic supercell.


 Subroutine GETGRP returns: Found  1 space group operations
 (whereof  1 operations were pure point group operations)
 out of a pool of  4 trial point group operations.


The dynamic configuration has the point symmetry C_1 .


 Subroutine INISYM returns: Found  1 space group operations
 (whereof  1 operations are pure point group operations),
 and found     1 'primitive' translations


----------------------------------------------------------------------------------------

                                     Primitive cell                                     

  volume of cell :    1268.8052

  direct lattice vectors                    reciprocal lattice vectors
     0.000000000 12.280473417  0.000000000     0.000000000  0.081430085 -0.019947423
     9.142702054  0.000000000  0.000000000     0.109376855 -0.000000000  0.000000000
     0.000000000 -2.768261773-11.300697718     0.000000000  0.000000000 -0.088490111

  length of vectors
    12.280473417  9.142702054 11.634820246     0.083837691  0.109376855  0.088490111

  position of ions in fractional coordinates (direct lattice)
     0.646775555  0.004776547  0.154859431
     0.665450897  0.004958122  0.662613452
     0.646481630  0.333763765  0.156087818
     0.664895132  0.327618340  0.659683656
     0.644398195  0.671844513  0.157955516
     0.665167530  0.664241912  0.661631597
     0.830797880  0.171021787  0.341299244
     0.856240512  0.160903462  0.857554794
     0.830935128  0.499044712  0.340627298
     0.848811781  0.494873767  0.840867770
     0.828778015  0.834603031  0.344756967
     0.842773418  0.827360985  0.849080057
     0.573965323  0.167100447  0.393514063
     0.583526068  0.171175528  0.896671721
     0.594816524  0.506897290  0.405696619
     0.600006548  0.504517088  0.897920637
     0.587310241  0.833708423  0.403101842
     0.594190123  0.837300107  0.898109532
     0.905338904  0.989831726  0.110148765
     0.900556693  0.967504712  0.602040003
     0.909513621  0.360529125  0.102222683
     0.913064504  0.334326762  0.601852553
     0.892546129  0.622392540  0.105225246
     0.899023155  0.704186089  0.597621530
     0.149232709  0.162367855  0.667823325
     0.177954453  0.476827731  0.157485016
     0.147813729  0.502601310  0.655785594
     0.133715376  0.828159202  0.129977358
     0.176282242  0.832795845  0.647101024
     0.330561340  0.004095535  0.332910649
     0.340162597  0.007065161  0.848772004
     0.340889916  0.332378250  0.350514970
     0.340480617  0.341026740  0.833948017
     0.334005121  0.670801249  0.340284026
     0.347043186  0.666898033  0.833072737
     0.085140410  0.001412234  0.397784676
     0.117986873  0.981452605  0.945261381
     0.086810008  0.330162625  0.395029851
     0.104856357  0.330190379  0.932299543
     0.085391134  0.666352185  0.389482463
     0.091002204  0.664435492  0.892172144
     0.367735851  0.183662877  0.094448912
     0.410002378  0.165985265  0.605637044
     0.401757678  0.505357971  0.096705498
     0.413284583  0.498884196  0.600934647
     0.389183302  0.860768835  0.095600378
     0.416397235  0.833820952  0.594827500
     0.955186352  0.172510494  0.133176152
     0.986838608  0.153825291  0.631418739
     0.049286288  0.402944756  0.063429973
     0.985158018  0.516739676  0.611686707
     0.971278722  0.801880683  0.124888089
     0.029864040  0.833717365  0.638403165
     0.496923036  0.993465858  0.391089907
     0.503125195  0.998211909  0.861676113
     0.506504873  0.346069190  0.396137194
     0.507948080  0.345879539  0.859834208
     0.501547894  0.667182577  0.384993844
     0.510304639  0.668502947  0.863254230
     0.658623119  0.169387196  0.279559222
     0.671401213  0.167791385  0.782767816
     0.657381273  0.502330633  0.276640545
     0.674427875  0.495614430  0.777480204
     0.658495698  0.837006138  0.280134742
     0.675397135  0.832710468  0.780716177
     0.814518676  0.993401822  0.220835787
     0.829346128  0.010295841  0.733029282
     0.812367258  0.334830896  0.225725252
     0.832231998  0.327368878  0.720350689
     0.810300365  0.672475023  0.221973837
     0.826998128  0.655542293  0.724606927
     0.818840242  0.008415956  0.439418617
     0.828999483  0.990700432  0.951141294
     0.822331885  0.336496854  0.449000430
     0.827674566  0.333424915  0.940453088
     0.814668254  0.659849393  0.438527840
     0.822029584  0.658238204  0.942524192
     0.663274718  0.170937784  0.052799840
     0.664681267  0.164701557  0.551126725
     0.661736556  0.504169190  0.057073976
     0.674455154  0.499045293  0.559800529
     0.663031008  0.835558658  0.055942338
     0.662765479  0.833905888  0.559660689
     0.491627280  0.012322625  0.124450414
     0.501067017  0.001565009  0.630206762
     0.488187344  0.339033650  0.123432225
     0.500576387  0.331942838  0.628291631
     0.484420953  0.679374020  0.120616352
     0.502246174  0.664996422  0.628064165
     0.991712143  0.170602456  0.389318302
     0.021919236  0.155637653  0.898005296
     0.994645881  0.498704662  0.359667763
     0.008777572  0.492889873  0.852568142
     0.992695545  0.830384861  0.382505547
     0.995523233  0.820999324  0.859027593
     0.180030827  0.007365652  0.795293032
     0.180049304  0.353123529  0.293880613
     0.171492998  0.333573993  0.788173743
     0.164472150  0.658582475  0.270509764
     0.180367116  0.660041700  0.780265719
     0.377574232  0.179479526  0.255923587
     0.323279779  0.171238309  0.714217100
     0.338557437  0.507123288  0.229528005
     0.326276952  0.499394790  0.711124278
     0.338038708  0.823233715  0.229101504
     0.333978952  0.832181961  0.711975551
     0.328713670  0.171116352  0.454865436
     0.374806003  0.181814625  0.934651685
     0.332479740  0.505363745  0.448536774
     0.347340223  0.508820740  0.935425816
     0.324104683  0.832831514  0.446548884
     0.345851766  0.825927857  0.933685940
     0.273107484  0.020634807  0.052843372
     0.170327143  0.009464074  0.554693423
     0.245293451  0.336884479  0.054311542
     0.152273184  0.331995827  0.557559434
     0.175666775  0.648968861  0.049521659
     0.171625957  0.658524668  0.544776335
     0.149058791  0.040080732  0.238787530

  ion indices of the primitive-cell ions
   primitive index   ion index
                 1           1
                 2           2
                 3           3
                 4           4
                 5           5
                 6           6
                 7           7
                 8           8
                 9           9
                10          10
                11          11
                12          12
                13          13
                14          14
                15          15
                16          16
                17          17
                18          18
                19          19
                20          20
                21          21
                22          22
                23          23
                24          24
                25          25
                26          26
                27          27
                28          28
                29          29
                30          30
                31          31
                32          32
                33          33
                34          34
                35          35
                36          36
                37          37
                38          38
                39          39
                40          40
                41          41
                42          42
                43          43
                44          44
                45          45
                46          46
                47          47
                48          48
                49          49
                50          50
                51          51
                52          52
                53          53
                54          54
                55          55
                56          56
                57          57
                58          58
                59          59
                60          60
                61          61
                62          62
                63          63
                64          64
                65          65
                66          66
                67          67
                68          68
                69          69
                70          70
                71          71
                72          72
                73          73
                74          74
                75          75
                76          76
                77          77
                78          78
                79          79
                80          80
                81          81
                82          82
                83          83
                84          84
                85          85
                86          86
                87          87
                88          88
                89          89
                90          90
                91          91
                92          92
                93          93
                94          94
                95          95
                96          96
                97          97
                98          98
                99          99
               100         100
               101         101
               102         102
               103         103
               104         104
               105         105
               106         106
               107         107
               108         108
               109         109
               110         110
               111         111
               112         112
               113         113
               114         114
               115         115
               116         116
               117         117
               118         118
               119         119

----------------------------------------------------------------------------------------

 
 
 KPOINTS: Automatic mesh                          

Automatic generation of k-mesh.
 Grid dimensions read from file:
 generate k-points for:    2    2    2

 Generating k-lattice:

  Cartesian coordinates                     Fractional coordinates (reciprocal lattice)
     0.000000000  0.040715043 -0.009973711     0.500000000  0.000000000  0.000000000
     0.054688428 -0.000000000  0.000000000     0.000000000  0.500000000  0.000000000
     0.000000000  0.000000000 -0.044245056     0.000000000  0.000000000  0.500000000

  Length of vectors
     0.041918846  0.054688428  0.044245056

  Shift w.r.t. Gamma in fractional coordinates (k-lattice)
     0.000000000  0.000000000  0.000000000

 
 Subroutine IBZKPT returns following result:
 ===========================================
 
 Found      8 irreducible k-points:
 
 Following reciprocal coordinates:
            Coordinates               Weight
  0.000000  0.000000  0.000000      1.000000
  0.500000  0.000000  0.000000      1.000000
  0.000000  0.500000  0.000000      1.000000
  0.500000  0.500000  0.000000      1.000000
  0.000000  0.000000  0.500000      1.000000
  0.500000  0.000000  0.500000      1.000000
  0.000000  0.500000  0.500000      1.000000
  0.500000  0.500000  0.500000      1.000000
 
 Following cartesian coordinates:
            Coordinates               Weight
  0.000000  0.000000 -0.000000      1.000000
  0.000000  0.040715 -0.009974      1.000000
  0.054688  0.000000 -0.000000      1.000000
  0.054688  0.040715 -0.009974      1.000000
  0.000000  0.000000 -0.044245      1.000000
  0.000000  0.040715 -0.054219      1.000000
  0.054688  0.000000 -0.044245      1.000000
  0.054688  0.040715 -0.054219      1.000000
 
 
 Subroutine IBZKPT_HF returns following result:
 ==============================================
 
 Found      8 k-points in 1st BZ
 the following      8 k-points will be used (e.g. in the exchange kernel)
 Following reciprocal coordinates:   # in IRBZ
  0.000000  0.000000  0.000000    0.12500000   1 t-inv F
  0.500000  0.000000  0.000000    0.12500000   2 t-inv F
  0.000000  0.500000  0.000000    0.12500000   3 t-inv F
  0.500000  0.500000  0.000000    0.12500000   4 t-inv F
  0.000000  0.000000  0.500000    0.12500000   5 t-inv F
  0.500000  0.000000  0.500000    0.12500000   6 t-inv F
  0.000000  0.500000  0.500000    0.12500000   7 t-inv F
  0.500000  0.500000  0.500000    0.12500000   8 t-inv F


--------------------------------------------------------------------------------------------------------




 Dimension of arrays:
   k-points           NKPTS =      8   k-points in BZ     NKDIM =      8   number of bands    NBANDS=    633
   number of dos      NEDOS =    301   number of ions     NIONS =    119
   non local maximal  LDIM  =      6   non local SUM 2l+1 LMDIM =     18
   total plane-waves  NPLWV = 184320
   max r-space proj   IRMAX =   1800   max aug-charges    IRDMAX=   5704
   dimension x,y,z NGX =    64 NGY =   48 NGZ =   60
   dimension x,y,z NGXF=   128 NGYF=   96 NGZF=  120
   support grid    NGXF=   128 NGYF=   96 NGZF=  120
   ions per type =              47  71   1
   NGX,Y,Z   is equivalent  to a cutoff of   8.66,  8.73,  8.57 a.u.
   NGXF,Y,Z  is equivalent  to a cutoff of  17.33, 17.46, 17.15 a.u.

 SYSTEM =  unknown system                          
 POSCAR =  Ga48 O72                                

 Startparameter for this run:
   NWRITE =      2    write-flag & timer
   PREC   = normal    normal or accurate (medium, high low for compatibility)
   ISTART =      0    job   : 0-new  1-cont  2-samecut
   ICHARG =      0    charge: 1-file 2-atom 10-const
   ISPIN  =      1    spin polarized calculation?
   LNONCOLLINEAR =      F non collinear calculations
   LSORBIT =      F    spin-orbit coupling
   INIWAV =      1    electr: 0-lowe 1-rand  2-diag
   LASPH  =      F    aspherical Exc in radial PAW
 Electronic Relaxation 1
   ENCUT  =  450.0 eV  33.07 Ry    5.75 a.u.  21.24 15.81 20.12*2*pi/ulx,y,z
   ENINI  =  450.0     initial cutoff
   ENAUG  =  605.4 eV  augmentation charge cutoff
   NELM   =    500;   NELMIN=  2; NELMDL= -5     # of ELM steps 
   EDIFF  = 0.1E-04   stopping-criterion for ELM
   LREAL  =      T    real-space projection
   NLSPLINE    = F    spline interpolate recip. space projectors
   LCOMPAT=      F    compatible to vasp.4.4
   GGA_COMPAT  = T    GGA compatible to vasp.4.4-vasp.4.6
   LMAXPAW     = -100 max onsite density
   LMAXMIX     =    2 max onsite mixed and CHGCAR
   VOSKOWN=      0    Vosko Wilk Nusair interpolation
   ROPT   =   -0.00050  -0.00050  -0.00050
 Ionic relaxation
   EDIFFG = -.5E-02   stopping-criterion for IOM
   NSW    =      0    number of steps for IOM
   NBLOCK =      1;   KBLOCK =      1    inner block; outer block 
   IBRION =     -1    ionic relax: 0-MD 1-quasi-New 2-CG
   NFREE  =      0    steps in history (QN), initial steepest desc. (CG)
   ISIF   =      2    stress and relaxation
   IWAVPR =     10    prediction:  0-non 1-charg 2-wave 3-comb
   ISYM   =      3    0-nonsym 1-usesym 2-fastsym
   LCORR  =      T    Harris-Foulkes like correction to forces

   POTIM  = 0.5000    time-step for ionic-motion
   TEIN   =    0.0    initial temperature
   TEBEG  =    0.0;   TEEND  =   0.0 temperature during run
   SMASS  =  -3.00    Nose mass-parameter (am)
   estimated Nose-frequenzy (Omega)   =  0.10E-29 period in steps = 0.13E+47 mass=  -0.345E-26a.u.
   SCALEE = 1.0000    scale energy and forces
   NPACO  =    256;   APACO  = 10.0  distance and # of slots for P.C.
   PSTRESS=    0.0 pullay stress

  Mass of Ions in am
   POMASS =  69.72 16.00 30.97
  Ionic Valenz
   ZVAL   =  13.00  6.00  5.00
  Atomic Wigner-Seitz radii
   RWIGS  =  -1.00 -1.00 -1.00
  virtual crystal weights 
   VCA    =   1.00  1.00  1.00
   NELECT =    1056.0000    total number of electrons
   NUPDOWN=      -1.0000    fix difference up-down

 DOS related values:
   EMIN   =  10.00;   EMAX   =-10.00  energy-range for DOS
   EFERMI =   0.00;   METHOD = LEGACY      
   ISMEAR =     0;   SIGMA  =   0.05  broadening in eV -4-tet -1-fermi 0-gaus

 Electronic relaxation 2 (details)
   IALGO  =     58    algorithm
   LDIAG  =      T    sub-space diagonalisation (order eigenvalues)
   LSUBROT=      F    optimize rotation matrix (better conditioning)
   TURBO    =      0    0=normal 1=particle mesh
   IRESTART =      0    0=no restart 2=restart with 2 vectors
   NREBOOT  =      0    no. of reboots
   NMIN     =      0    reboot dimension
   EREF     =   0.00    reference energy to select bands
   IMIX   =      4    mixing-type and parameters
     AMIX     =   0.40;   BMIX     =  1.00
     AMIX_MAG =   1.60;   BMIX_MAG =  1.00
     AMIN     =   0.10
     WC   =   100.;   INIMIX=   1;  MIXPRE=   1;  MAXMIX= -45

 Intra band minimization:
   WEIMIN = 0.0000     energy-eigenvalue tresh-hold
   EBREAK =  0.39E-08  absolut break condition
   DEPER  =   0.30     relativ break condition  

   TIME   =   0.40     timestep for ELM

  volume/ion in A,a.u.               =      10.66        71.95
  Fermi-wavevector in a.u.,A,eV,Ry     =   1.539919  2.910025 32.264175  2.371350
  Thomas-Fermi vector in A             =   2.646079
 
 Write flags
   LWAVE        =      T    write WAVECAR
   LDOWNSAMPLE  =      F    k-point downsampling of WAVECAR
   LCHARG       =      T    write CHGCAR
   LVTOT        =      F    write LOCPOT, total local potential
   LVHAR        =      F    write LOCPOT, Hartree potential only
   LELF         =      F    write electronic localiz. function (ELF)
   LORBIT       =      0    0 simple, 1 ext, 2 COOP (PROOUT), +10 PAW based schemes


 Dipole corrections
   LMONO  =      F    monopole corrections only (constant potential shift)
   LDIPOL =      F    correct potential (dipole corrections)
   IDIPOL =      0    1-x, 2-y, 3-z, 4-all directions 
   EPSILON=  1.0000000 bulk dielectric constant

 Exchange correlation treatment:
   GGA     =    --    GGA type
   LEXCH   =     8    internal setting for exchange type
   LIBXC   =     F    Libxc                    
   VOSKOWN =     0    Vosko Wilk Nusair interpolation
   EXXOEP  =     0    0=HF, 1=EXX-LHF (local Hartree Fock) 2=EXX OEP
   LHFCALC =     T    Hartree Fock is set to
   LSYMGRAD=     F    symmetrize gradient (conserves proper symmetry)
   PRECFOCK=fast      Normal, Fast or Accurate (Low or Medium for compatibility)
   LRHFCALC=     F    long range Hartree Fock
   LRSCOR  =     F    long range correlation only (use DFT for short range part)
   LTHOMAS =     F    Thomas Fermi screening in HF
   LMODELHF=     F    short range full HF, long range fraction AEXX
   FOCKCORR=     1    mode to apply convergence corrections
   LFOCKACE=     T    use Adeptively-Compressed-Exchange operator
   ENCUT4O =  -1.0   cutoff for four orbital integrals eV
   LMAXFOCK=     4    L truncation for augmentation on plane wave grid
   LMAXFOCKAE=  -1    L truncation for all-electron charge restoration on plane wave grid
   NMAXFOCKAE=   1    number of basis functions for all-electron charge restoration
   LFOCKAEDFT=     F  apply the AE augmentation even for DFT
   NKREDX  =     1    reduce k-point grid by
   NKREDY  =     1    reduce k-point grid by
   NKREDZ  =     1    reduce k-point grid by
   SHIFTRED=     F    shift reduced grid of Gamma
   HFKIDENT=     F    idential grid for each k-point
   ODDONLY =     F    use only odd q-grid points
   EVENONLY=     F    use only even q-grid points
   HFALPHA =   -1.0000 decay constant for conv. correction
   MCALPHA =    0.0000 extent of test-charge in conv. correction in multipole expansion
   AEXX    =    0.3200 exact exchange contribution
   HFSCREEN=    0.2000 screening length (either q_TF or 0.3 A-1)
   HFSCREENC=   0.2000 screening length for correlation (either q_TF or 0.3 A-1)
   HFRCUT  =    0.0000 spherical cutoff for potential kernel
   ALDAX   =    0.6800 LDA exchange part
   AGGAX   =    0.6800 GGA exchange part
   ALDAC   =    1.0000 LDA correlation
   AGGAC   =    1.0000 GGA correlation
   ENCUTFOCK=  -1.0 apply spherical cutoff to Coloumb kernel
   NBANDSGWLOW=     1    first orbital included in HF term
   NBLOCK_FOCK=    64    blocking factor in FOCK_ACC

 Linear response parameters
   LEPSILON=     F    determine dielectric tensor
   LRPA    =     F    only Hartree local field effects (RPA)
   LNABLA  =     F    use nabla operator in PAW spheres
   LVEL    =     F    velocity operator in full k-point grid
   CSHIFT  =0.1000    complex shift for real part using Kramers Kronig
   OMEGAMAX=  -1.0    maximum frequency
   DEG_THRESHOLD= 0.2000000E-02 threshold for treating states as degnerate
   RTIME   =   -0.100 relaxation time in fs
  (WPLASMAI=    0.000 imaginary part of plasma frequency in eV, 0.658/RTIME)
   DFIELD  = 0.0000000 0.0000000 0.0000000 field for delta impulse in time
 
  Optional k-point grid parameters
   LKPOINTS_OPT  =     F    use optional k-point grid
   KPOINTS_OPT_MODE=     1    mode for optional k-point grid
 
 Orbital magnetization related:
   ORBITALMAG=     F  switch on orbital magnetization
   LCHIMAG   =     F  perturbation theory with respect to B field
   DQ        =  0.001000  dq finite difference perturbation B field
   LLRAUG    =     F  two centre corrections for induced B field
   LBONE     =     F  B-component reconstruction in AE one-centre
   LVGVCALC  =     T  calculate vGv susceptibility
   LVGVAPPL  =     F  apply vGv susceptibility instead of pGv for G=0

 Random number generation:
   RANDOM_GENERATOR = DEFAULT
   PCG_SEED         = not used


--------------------------------------------------------------------------------------------------------


 Static calculation
 charge density and potential will be updated during run
 non-spin polarized calculation
 Conjugate gradient for all bands (Freysoldt, et al. PRB 79, 241103 (2009))
 preconditioned conjugated gradient                                        
 perform sub-space diagonalisation
    before iterative eigenvector-optimisation
 modified Broyden-mixing scheme, WC =      100.0
 initial mixing is a Kerker type mixing with AMIX =  0.4000 and BMIX =      1.0000
 Hartree-type preconditioning will be used
 using additional bands           105
 real space projection scheme for non local part
 use partial core corrections
 no Harris-corrections to forces 
 use gradient corrections 
 use of overlap-Matrix (Vanderbilt PP)
 Gauss-broadening in eV      SIGMA  =   0.05


--------------------------------------------------------------------------------------------------------


  energy-cutoff  :      450.00
  volume of cell :     1268.81
      direct lattice vectors                 reciprocal lattice vectors
     0.000000000 12.280473417  0.000000000     0.000000000  0.081430085 -0.019947423
     9.142702054  0.000000000  0.000000000     0.109376855 -0.000000000  0.000000000
     0.000000000 -2.768261773-11.300697718     0.000000000  0.000000000 -0.088490111

  length of vectors
    12.280473417  9.142702054 11.634820246     0.083837691  0.109376855  0.088490111


 
 k-points in units of 2pi/SCALE and weight: Automatic mesh                          
   0.00000000  0.00000000 -0.00000000       0.125
   0.00000000  0.04071504 -0.00997371       0.125
   0.05468843  0.00000000 -0.00000000       0.125
   0.05468843  0.04071504 -0.00997371       0.125
   0.00000000  0.00000000 -0.04424506       0.125
   0.00000000  0.04071504 -0.05421877       0.125
   0.05468843  0.00000000 -0.04424506       0.125
   0.05468843  0.04071504 -0.05421877       0.125
 
 k-points in reciprocal lattice and weights: Automatic mesh                          
   0.00000000  0.00000000  0.00000000       0.125
   0.50000000  0.00000000  0.00000000       0.125
   0.00000000  0.50000000  0.00000000       0.125
   0.50000000  0.50000000  0.00000000       0.125
   0.00000000  0.00000000  0.50000000       0.125
   0.50000000  0.00000000  0.50000000       0.125
   0.00000000  0.50000000  0.50000000       0.125
   0.50000000  0.50000000  0.50000000       0.125
 
 position of ions in fractional coordinates (direct lattice) 
   0.64677555  0.00477655  0.15485943
   0.66545090  0.00495812  0.66261345
   0.64648163  0.33376377  0.15608782
   0.66489513  0.32761834  0.65968366
   0.64439819  0.67184451  0.15795552
   0.66516753  0.66424191  0.66163160
   0.83079788  0.17102179  0.34129924
   0.85624051  0.16090346  0.85755479
   0.83093513  0.49904471  0.34062730
   0.84881178  0.49487377  0.84086777
   0.82877802  0.83460303  0.34475697
   0.84277342  0.82736099  0.84908006
   0.57396532  0.16710045  0.39351406
   0.58352607  0.17117553  0.89667172
   0.59481652  0.50689729  0.40569662
   0.60000655  0.50451709  0.89792064
   0.58731024  0.83370842  0.40310184
   0.59419012  0.83730011  0.89810953
   0.90533890  0.98983173  0.11014877
   0.90055669  0.96750471  0.60204000
   0.90951362  0.36052912  0.10222268
   0.91306450  0.33432676  0.60185255
   0.89254613  0.62239254  0.10522525
   0.89902315  0.70418609  0.59762153
   0.14923271  0.16236785  0.66782332
   0.17795445  0.47682773  0.15748502
   0.14781373  0.50260131  0.65578559
   0.13371538  0.82815920  0.12997736
   0.17628224  0.83279584  0.64710102
   0.33056134  0.00409554  0.33291065
   0.34016260  0.00706516  0.84877200
   0.34088992  0.33237825  0.35051497
   0.34048062  0.34102674  0.83394802
   0.33400512  0.67080125  0.34028403
   0.34704319  0.66689803  0.83307274
   0.08514041  0.00141223  0.39778468
   0.11798687  0.98145261  0.94526138
   0.08681001  0.33016262  0.39502985
   0.10485636  0.33019038  0.93229954
   0.08539113  0.66635219  0.38948246
   0.09100220  0.66443549  0.89217214
   0.36773585  0.18366288  0.09444891
   0.41000238  0.16598526  0.60563704
   0.40175768  0.50535797  0.09670550
   0.41328458  0.49888420  0.60093465
   0.38918330  0.86076884  0.09560038
   0.41639723  0.83382095  0.59482750
   0.95518635  0.17251049  0.13317615
   0.98683861  0.15382529  0.63141874
   0.04928629  0.40294476  0.06342997
   0.98515802  0.51673968  0.61168671
   0.97127872  0.80188068  0.12488809
   0.02986404  0.83371736  0.63840317
   0.49692304  0.99346586  0.39108991
   0.50312520  0.99821191  0.86167611
   0.50650487  0.34606919  0.39613719
   0.50794808  0.34587954  0.85983421
   0.50154789  0.66718258  0.38499384
   0.51030464  0.66850295  0.86325423
   0.65862312  0.16938720  0.27955922
   0.67140121  0.16779138  0.78276782
   0.65738127  0.50233063  0.27664055
   0.67442788  0.49561443  0.77748020
   0.65849570  0.83700614  0.28013474
   0.67539713  0.83271047  0.78071618
   0.81451868  0.99340182  0.22083579
   0.82934613  0.01029584  0.73302928
   0.81236726  0.33483090  0.22572525
   0.83223200  0.32736888  0.72035069
   0.81030037  0.67247502  0.22197384
   0.82699813  0.65554229  0.72460693
   0.81884024  0.00841596  0.43941862
   0.82899948  0.99070043  0.95114129
   0.82233188  0.33649685  0.44900043
   0.82767457  0.33342492  0.94045309
   0.81466825  0.65984939  0.43852784
   0.82202958  0.65823820  0.94252419
   0.66327472  0.17093778  0.05279984
   0.66468127  0.16470156  0.55112673
   0.66173656  0.50416919  0.05707398
   0.67445515  0.49904529  0.55980053
   0.66303101  0.83555866  0.05594234
   0.66276548  0.83390589  0.55966069
   0.49162728  0.01232263  0.12445041
   0.50106702  0.00156501  0.63020676
   0.48818734  0.33903365  0.12343222
   0.50057639  0.33194284  0.62829163
   0.48442095  0.67937402  0.12061635
   0.50224617  0.66499642  0.62806416
   0.99171214  0.17060246  0.38931830
   0.02191924  0.15563765  0.89800530
   0.99464588  0.49870466  0.35966776
   0.00877757  0.49288987  0.85256814
   0.99269554  0.83038486  0.38250555
   0.99552323  0.82099932  0.85902759
   0.18003083  0.00736565  0.79529303
   0.18004930  0.35312353  0.29388061
   0.17149300  0.33357399  0.78817374
   0.16447215  0.65858247  0.27050976
   0.18036712  0.66004170  0.78026572
   0.37757423  0.17947953  0.25592359
   0.32327978  0.17123831  0.71421710
   0.33855744  0.50712329  0.22952800
   0.32627695  0.49939479  0.71112428
   0.33803871  0.82323371  0.22910150
   0.33397895  0.83218196  0.71197555
   0.32871367  0.17111635  0.45486544
   0.37480600  0.18181462  0.93465168
   0.33247974  0.50536375  0.44853677
   0.34734022  0.50882074  0.93542582
   0.32410468  0.83283151  0.44654888
   0.34585177  0.82592786  0.93368594
   0.27310748  0.02063481  0.05284337
   0.17032714  0.00946407  0.55469342
   0.24529345  0.33688448  0.05431154
   0.15227318  0.33199583  0.55755943
   0.17566677  0.64896886  0.04952166
   0.17162596  0.65852467  0.54477634
   0.14905879  0.04008073  0.23878753
 
 position of ions in cartesian coordinates  (Angst):
   0.04367055  7.51401857 -1.75001962
   0.04533063  6.33776456 -7.48799432
   3.05150266  7.50700853 -1.76390125
   2.99531687  6.33904994 -7.45488558
   6.14247421  7.47625269 -1.78500754
   6.07296590  6.33700271 -7.47689867
   1.56360124  9.25778563 -3.85691959
   1.47109242  8.14110269 -9.69096751
   4.56261711  9.26133122 -3.84932613
   4.52448340  8.09606841 -9.50239249
   7.63052684  9.22340885 -3.89599427
   7.56431498  7.99918069 -9.59519706
   1.52774960  5.95921595 -4.44698347
   1.56500685  4.68375432-10.13301607
   4.63441090  6.18155407 -4.58465486
   4.61264942  4.88268509-10.14712969
   7.62234771  6.09655638 -4.55533207
   7.65518541  4.81073373-10.14926434
   9.04973655 10.81306973 -1.24475790
   8.84560732  9.39265821 -6.80347208
   3.29621037 10.88627869 -1.15518764
   3.05664997  9.54677896 -6.80135377
   5.69034955 10.66959798 -1.18911870
   6.43816361  9.38605711 -6.75354026
   1.48448092 -0.01606146 -7.54686952
   4.35949388  1.74940519 -1.77969056
   4.59513403 -0.00016362 -7.41083476
   7.57161283  1.28227677 -1.46883483
   7.61400428  0.37348435 -7.31269307
   0.03744426  3.13786592 -3.76212261
   0.06459467  1.82773464 -9.59171585
   3.03883531  3.21597236 -3.96106372
   3.11790588  1.87267675 -9.42419445
   6.13293596  3.15974575 -3.84544691
   6.09725001  1.95569120 -9.41430318
   0.01291163 -0.05560757 -4.49524439
   8.97312875 -1.16779629-10.68211313
   3.01857851 -0.02747805 -4.46411294
   3.01883226 -1.29316348-10.53563531
   6.09225949 -0.02954586 -4.40142358
   6.07473574 -1.35221590-10.08216771
   1.67917496  4.25451103 -1.06733861
   1.51755382  3.35846142 -6.84412116
   4.62033736  4.66606836 -1.09283960
   4.56114957  3.41178592 -6.79098080
   7.86975300  4.51470832 -1.08035098
   7.62337653  3.46691694 -6.72196577
   1.57721204 11.36147415 -1.50498343
   1.40637880 10.37091293 -7.13547230
   3.68400385  0.42966818 -0.71680295
   4.72439690 10.40489792 -6.91248658
   7.33135617 11.58203961 -1.41132254
   7.62242946 -1.40052253 -7.21440119
   9.08296234  5.01981090 -4.41958882
   9.12635407  3.79327054 -9.73754129
   3.16400749  5.12350817 -4.47662668
   3.16227357  3.85759672 -9.71672648
   6.09985152  5.09348183 -4.35069905
   6.11192327  3.87706886 -9.75537511
   1.54865667  7.31431059 -3.15921426
   1.53406664  6.07821853 -8.84582247
   4.59265931  7.30713980 -3.12623118
   4.53125507  6.13002486 -8.78606877
   7.65249774  7.31115262 -3.16571804
   7.61322371  6.13296981 -8.82263752
   9.08237688  9.39134368 -2.49559847
   0.09413181  8.15554614 -8.28374234
   3.06125912  9.35138794 -2.55085284
   2.99303611  8.22608366 -8.14046539
   6.14823877  9.33639041 -2.50845923
   5.99342787  8.15002687 -8.18856385
   0.07694458  8.83932007 -4.96573696
   9.05767888  7.54749802-10.74856025
   3.07649048  8.85567412 -5.07401813
   3.04840466  7.56081517-10.62777607
   6.03280640  8.79055198 -4.95567057
   6.01807578  7.48575876-10.65118099
   1.56283323  7.99916376 -0.59667503
   1.50581726  6.63693759 -6.22811652
   4.60946869  7.96844248 -0.64497575
   4.56262242  6.73295418 -6.32613656
   7.63926386  7.98747163 -0.63218745
   7.62415307  6.58978656 -6.32455627
   0.11266209  5.69290442 -1.40637651
   0.01430842  4.40876289 -7.12177612
   3.09968365  5.65347899 -1.39487026
   3.03485446  4.40803931 -7.10013380
   6.21131424  5.61502100 -1.36304894
   6.07986416  4.42917477 -7.09756327
   1.55976742 11.10095964 -4.39956845
   1.42294869 -2.21673514-10.14808639
   4.55950814 11.21906778 -4.06449667
   4.50634526 -2.25233905 -9.63461486
   7.59196137 11.13189576 -4.32257956
   7.50615220  9.84748336 -9.70761117
   0.06734196  0.00928448 -8.98736615
   3.22850322  1.39755223 -3.32105597
   3.04976763 -0.07585604 -8.90691322
   6.02122334  1.27095403 -3.05694908
   6.03456461  0.05501381 -8.81754703
   1.64092783  3.92832683 -2.89211510
   1.56558084  1.99288884 -8.07115156
   4.63647713  3.52225200 -2.59382660
   4.56581777  2.03825728 -8.03620051
   7.52658057  3.51706244 -2.58900684
   7.60839173  2.13048494 -8.04582048
   1.56446583  2.77757289 -5.14029680
   1.66227694  2.01543462-10.56221616
   4.62039015  2.84134140 -5.06877850
   4.65199643  1.67599885-10.57096438
   7.61433039  2.74399474 -5.04631396
   7.55121232  1.66253632-10.55130257
   0.18865789  3.20760491 -0.59716698
   0.08652720  0.55616135 -6.26842271
   3.08003442  2.86197114 -0.61375831
   3.03533893  0.32651632 -6.30081062
   5.93332894  2.02018224 -0.55962930
   6.02069484  0.59956450 -6.15635269
   0.36644619  1.16948613 -2.69846570
 


--------------------------------------------------------------------------------------------------------


 k-point   1 :   0.0000 0.0000 0.0000  plane waves:   27533
 k-point   2 :   0.5000 0.0000 0.0000  plane waves:   27522
 k-point   3 :   0.0000 0.5000 0.0000  plane waves:   27488
 k-point   4 :   0.5000 0.5000 0.0000  plane waves:   27488
 k-point   5 :   0.0000 0.0000 0.5000  plane waves:   27482
 k-point   6 :   0.5000 0.0000 0.5000  plane waves:   27476
 k-point   7 :   0.0000 0.5000 0.5000  plane waves:   27468
 k-point   8 :   0.5000 0.5000 0.5000  plane waves:   27564

 maximum and minimum number of plane-waves per node :     27564    27468

 maximum number of plane-waves:     27564
 maximum index in each direction: 
   IXMAX=   21   IYMAX=   15   IZMAX=   20
   IXMIN=  -21   IYMIN=  -16   IZMIN=  -20


 serial   3D FFT for wavefunctions
 parallel 3D FFT for charge:
    minimum data exchange during FFTs selected (reduces bandwidth)


 FFT grid for exact exchange (Hartree Fock) 
  NGX = 48; NGY = 36; NGZ = 48

 
 Radii for the augmentation spheres in the non-local exchange
 for species   1 augmentation radius   1.392 (default was   1.031)
       energy cutoff for augmentation   1800.0
 for species   2 augmentation radius   0.974 (default was   0.722)
       energy cutoff for augmentation   1800.0
 for species   3 augmentation radius   1.294 (default was   0.959)
       energy cutoff for augmentation   1800.0
 Maximum index for augmentation-charges in exchange           751
  SETUP_FOCK is finished

 total amount of memory used by VASP MPI-rank0  7264192. kBytes
=======================================================================

   base      :      30000. kBytes
   nonlr-proj:      32480. kBytes
   fftplans  :      51012. kBytes
   grid      :     102973. kBytes
   one-center:       1850. kBytes
   HF        :        194. kBytes
   wavefun   :    7045683. kBytes
 
     INWAV:  cpu time      0.0001: real time      0.0001
 Broyden mixing: mesh for mixing (old mesh)
   NGX = 43   NGY = 31   NGZ = 41
  (NGX  =128   NGY  = 96   NGZ  =120)
  gives a total of  54653 points

 charge density for first step will be calculated from the start-wavefunctions


--------------------------------------------------------------------------------------------------------


 Maximum index for non-local projection operator          1724
 Maximum index for augmentation-charges          5374 (set IRDMAX)


--------------------------------------------------------------------------------------------------------


 initial charge from wavefunction
 First call to EWALD:  gamma=   0.164
 Maximum number of real-space cells 3x 3x 3
 Maximum number of reciprocal cells 3x 2x 3

    FEWALD:  cpu time      0.0737: real time      0.0737


--------------------------------------- Ionic step        1  -------------------------------------------




--------------------------------------- Iteration      1(   1)  ---------------------------------------


    POTLOK:  cpu time      0.0347: real time      0.0347
    SETDIJ:  cpu time      0.1388: real time      0.1388
    TRIAL :  cpu time      2.9074: real time      3.4122
    CORREC:  cpu time      0.0015: real time      0.0015
    --------------------------------------------
      LOOP:  cpu time      3.9546: real time      4.4591

 eigenvalue-minimisations  : 10600
 total energy-change (2. order) :-0.1806421E+05  (-0.5458232E+05)
 number of electron    1056.0000033 magnetization 
 augmentation part      119.6170313 magnetization 

 Free energy of the ion-electron system (eV)
  ---------------------------------------------------
  alpha Z        PSCENC =      5376.25786726
  Ewald energy   TEWEN  =    -86397.21290821
  -Hartree energ DENC   =     -2111.92512738
  -exchange      EXHF   =         0.00000000
  -V(xc)+E(xc)   XCENC  =      2816.02854262
  PAW double counting   =    342103.77984986  -370905.60320139
  entropy T*S    EENTRO =        -0.01392050
  eigenvalues    EBANDS =    -40445.75581891
  atomic energy  EATOM  =    131500.23896116
  ---------------------------------------------------
  free energy    TOTEN  =    -18064.20575550 eV

  energy without entropy =   -18064.19183500  energy(sigma->0) =   -18064.19879525
  exchange ACFDT corr.  =         0.00000000  see jH, gK, PRB 81, 115126


--------------------------------------------------------------------------------------------------------




--------------------------------------- Iteration      1(   2)  ---------------------------------------


    TRIAL :  cpu time      3.1409: real time      3.1405
    CORREC:  cpu time      0.0015: real time      0.0015
    --------------------------------------------
      LOOP:  cpu time      3.1428: real time      3.1430

 eigenvalue-minimisations  : 13112
 total energy-change (2. order) :-0.4653464E+05  (-0.4472686E+05)
 number of electron    1056.0000033 magnetization 
 augmentation part      119.6170313 magnetization 

 Free energy of the ion-electron system (eV)
  ---------------------------------------------------
  alpha Z        PSCENC =      5376.25786726
  Ewald energy   TEWEN  =    -86397.21290821
  -Hartree energ DENC   =     -2111.92512738
  -exchange      EXHF   =         0.00000000
  -V(xc)+E(xc)   XCENC  =      2816.02854262
  PAW double counting   =    342103.77984986  -370905.60320139
  entropy T*S    EENTRO =        -0.01065822
  eigenvalues    EBANDS =    -86980.40203904
  atomic energy  EATOM  =    131500.23896116
  ---------------------------------------------------
  free energy    TOTEN  =    -64598.84871336 eV

  energy without entropy =   -64598.83805513  energy(sigma->0) =   -64598.84338424
  exchange ACFDT corr.  =         0.00000000  see jH, gK, PRB 81, 115126


--------------------------------------------------------------------------------------------------------




--------------------------------------- Iteration      1(   3)  ---------------------------------------


    TRIAL :  cpu time      3.5714: real time      3.5709
    CORREC:  cpu time      0.0015: real time      0.0015
    --------------------------------------------
      LOOP:  cpu time      3.5731: real time      3.5730

 eigenvalue-minimisations  : 16044
 total energy-change (2. order) :-0.6448217E+04  (-0.5909697E+04)
 number of electron    1056.0000033 magnetization 
 augmentation part      119.6170313 magnetization 

 Free energy of the ion-electron system (eV)
  ---------------------------------------------------
  alpha Z        PSCENC =      5376.25786726
  Ewald energy   TEWEN  =    -86397.21290821
  -Hartree energ DENC   =     -2111.92512738
  -exchange      EXHF   =         0.00000000
  -V(xc)+E(xc)   XCENC  =      2816.02854262
  PAW double counting   =    342103.77984986  -370905.60320139
  entropy T*S    EENTRO =        -0.01671942
  eigenvalues    EBANDS =    -93428.61284261
  atomic energy  EATOM  =    131500.23896116
  ---------------------------------------------------
  free energy    TOTEN  =    -71047.06557812 eV

  energy without entropy =   -71047.04885870  energy(sigma->0) =   -71047.05721841
  exchange ACFDT corr.  =         0.00000000  see jH, gK, PRB 81, 115126


--------------------------------------------------------------------------------------------------------




--------------------------------------- Iteration      1(   4)  ---------------------------------------


    TRIAL :  cpu time      3.8882: real time      3.8876
    CORREC:  cpu time      0.0014: real time      0.0014
    --------------------------------------------
      LOOP:  cpu time      3.8898: real time      3.8896

 eigenvalue-minimisations  : 18256
 total energy-change (2. order) :-0.9811837E+03  (-0.9117441E+03)
 number of electron    1056.0000033 magnetization 
 augmentation part      119.6170313 magnetization 

 Free energy of the ion-electron system (eV)
  ---------------------------------------------------
  alpha Z        PSCENC =      5376.25786726
  Ewald energy   TEWEN  =    -86397.21290821
  -Hartree energ DENC   =     -2111.92512738
  -exchange      EXHF   =         0.00000000
  -V(xc)+E(xc)   XCENC  =      2816.02854262
  PAW double counting   =    342103.77984986  -370905.60320139
  entropy T*S    EENTRO =        -0.02382840
  eigenvalues    EBANDS =    -94409.78942666
  atomic energy  EATOM  =    131500.23896116
  ---------------------------------------------------
  free energy    TOTEN  =    -72028.24927115 eV

  energy without entropy =   -72028.22544275  energy(sigma->0) =   -72028.23735695
  exchange ACFDT corr.  =         0.00000000  see jH, gK, PRB 81, 115126


--------------------------------------------------------------------------------------------------------




--------------------------------------- Iteration      1(   5)  ---------------------------------------


    POTLOK:  cpu time      1.3649: real time      1.3647
    SETDIJ:  cpu time      0.4705: real time      0.4704
    TRIAL :  cpu time    233.0141: real time    232.9859
    CORREC:  cpu time      0.0006: real time      0.0006
    CHARGE:  cpu time      0.2086: real time      0.2086
    --------------------------------------------
      LOOP:  cpu time    235.0590: real time    235.0308

 eigenvalue-minimisations  : 17232
 total energy-change (2. order) : 0.2959934E+05  (-0.7188281E+02)
 number of electron    1056.0000026 magnetization 
 augmentation part      444.1084673 magnetization 

 Free energy of the ion-electron system (eV)
  ---------------------------------------------------
  alpha Z        PSCENC =      5376.25786726
  Ewald energy   TEWEN  =    -86397.21290821
  -Hartree energ DENC   =     -2111.92512738
  -exchange      EXHF   =      4831.96692904
  -V(xc)+E(xc)   XCENC  =      1946.89923700
  PAW double counting   =    343339.14743345  -345380.07766275
  entropy T*S    EENTRO =        -0.00000000
  eigenvalues    EBANDS =    -95534.20197026
  atomic energy  EATOM  =    131500.23896116
  ---------------------------------------------------
  free energy    TOTEN  =    -42428.90724070 eV

  energy without entropy =   -42428.90724070  energy(sigma->0) =   -42428.90724070
  exchange ACFDT corr.  =        -0.35632348  see jH, gK, PRB 81, 115126


--------------------------------------------------------------------------------------------------------




--------------------------------------- Iteration      1(   6)  ---------------------------------------


    POTLOK:  cpu time      1.3361: real time      1.3359
    SETDIJ:  cpu time      0.4684: real time      0.4683
    TRIAL :  cpu time    232.2306: real time    232.1998
    CORREC:  cpu time    938.8158: real time    938.6887
    CHARGE:  cpu time      0.2204: real time      0.2203
    --------------------------------------------
      LOOP:  cpu time   1173.0719: real time   1172.9139

 eigenvalue-minimisations  :     0
 total energy-change (2. order) : 0.9511407E+05  ( 0.1420783E+05)
 number of electron    1055.9999950 magnetization 
 augmentation part      117.7595258 magnetization 

 Free energy of the ion-electron system (eV)
  ---------------------------------------------------
  alpha Z        PSCENC =      5376.25786726
  Ewald energy   TEWEN  =    -86397.21290821
  -Hartree energ DENC   =   -104135.00219877
  -exchange      EXHF   =      4899.39657245
  -V(xc)+E(xc)   XCENC  =      3808.76301740
  PAW double counting   =    167106.36338377  -193888.62253059
  entropy T*S    EENTRO =        -0.01174801
  eigenvalues    EBANDS =    124414.98205693
  atomic energy  EATOM  =    131500.23896116
  ---------------------------------------------------
  free energy    TOTEN  =     52685.16422139 eV

  energy without entropy =    52685.17596941  energy(sigma->0) =    52685.17009540
  exchange ACFDT corr.  =        -0.00000000  see jH, gK, PRB 81, 115126


--------------------------------------------------------------------------------------------------------




--------------------------------------- Iteration      1(   7)  ---------------------------------------


    POTLOK:  cpu time      1.5049: real time      1.5047
    SETDIJ:  cpu time      0.4243: real time      0.4243
    TRIAL :  cpu time    232.4229: real time    232.3921
    CORREC:  cpu time    234.2769: real time    234.2427
    CHARGE:  cpu time      0.2198: real time      0.2199
    --------------------------------------------
      LOOP:  cpu time    468.8491: real time    468.7842

 eigenvalue-minimisations  :     0
 total energy-change (2. order) : 0.1022561E+05  (-0.8985711E+05)
 number of electron    1055.9999989 magnetization 
 augmentation part      205.2562715 magnetization 

 Free energy of the ion-electron system (eV)
  ---------------------------------------------------
  alpha Z        PSCENC =      5376.25786726
  Ewald energy   TEWEN  =    -86397.21290821
  -Hartree energ DENC   =    -22222.27117823
  -exchange      EXHF   =      2695.38796288
  -V(xc)+E(xc)   XCENC  =      2211.06773248
  PAW double counting   =    327267.00762910  -329456.11134096
  entropy T*S    EENTRO =        -0.00000000
  eigenvalues    EBANDS =     31936.42506530
  atomic energy  EATOM  =    131500.23896116
  ---------------------------------------------------
  free energy    TOTEN  =     62910.77804275 eV

  energy without entropy =    62910.77804275  energy(sigma->0) =    62910.77804275
  exchange ACFDT corr.  =      -125.69582855  see jH, gK, PRB 81, 115126


--------------------------------------------------------------------------------------------------------




--------------------------------------- Iteration      1(   8)  ---------------------------------------


    POTLOK:  cpu time      1.4875: real time      1.4877
    SETDIJ:  cpu time      0.4803: real time      0.4802
    TRIAL :  cpu time    232.0212: real time    231.9915
    CORREC:  cpu time    234.4905: real time    234.4593
    CHARGE:  cpu time      0.2139: real time      0.2139
    --------------------------------------------
      LOOP:  cpu time    468.6937: real time    468.6380

 eigenvalue-minimisations  :     0
 total energy-change (2. order) :-0.1546956E+05  (-0.3152958E+05)
 number of electron    1055.9999970 magnetization 
 augmentation part      167.7479148 magnetization 

 Free energy of the ion-electron system (eV)
  ---------------------------------------------------
  alpha Z        PSCENC =      5376.25786726
  Ewald energy   TEWEN  =    -86397.21290821
  -Hartree energ DENC   =    -15719.52856734
  -exchange      EXHF   =      2398.94723413
  -V(xc)+E(xc)   XCENC  =      2205.57885171
  PAW double counting   =    322727.10638193  -333058.26101178
  entropy T*S    EENTRO =        -0.00448493
  eigenvalues    EBANDS =     18408.09310719
  atomic energy  EATOM  =    131500.23896116
  ---------------------------------------------------
  free energy    TOTEN  =     47441.21991604 eV

  energy without entropy =    47441.22440097  energy(sigma->0) =    47441.22215851
  exchange ACFDT corr.  =      -248.45923504  see jH, gK, PRB 81, 115126


--------------------------------------------------------------------------------------------------------




--------------------------------------- Iteration      1(   9)  ---------------------------------------


    POTLOK:  cpu time      1.4851: real time      1.4849
    SETDIJ:  cpu time      0.4909: real time      0.4908
    TRIAL :  cpu time    232.2132: real time    232.1843
    CORREC:  cpu time    234.3193: real time    234.2841
    CHARGE:  cpu time      0.2063: real time      0.2062
    --------------------------------------------
      LOOP:  cpu time    468.7167: real time    468.6525

 eigenvalue-minimisations  :     0
 total energy-change (2. order) : 0.2667578E+04  (-0.9270400E+05)
 number of electron    1055.9999997 magnetization 
 augmentation part      130.9135504 magnetization 

 Free energy of the ion-electron system (eV)
  ---------------------------------------------------
  alpha Z        PSCENC =      5376.25786726
  Ewald energy   TEWEN  =    -86397.21290821
  -Hartree energ DENC   =    -16329.76121269
  -exchange      EXHF   =      2011.73217108
  -V(xc)+E(xc)   XCENC  =      2185.17194133
  PAW double counting   =    307088.42676025  -313802.64582753
  entropy T*S    EENTRO =        -0.00015521
  eigenvalues    EBANDS =     18476.59472434
  atomic energy  EATOM  =    131500.23896116
  ---------------------------------------------------
  free energy    TOTEN  =     50108.79799205 eV

  energy without entropy =    50108.79814725  energy(sigma->0) =    50108.79806965
  exchange ACFDT corr.  =      -275.06565102  see jH, gK, PRB 81, 115126


--------------------------------------------------------------------------------------------------------




--------------------------------------- Iteration      1(  10)  ---------------------------------------


    POTLOK:  cpu time      1.4606: real time      1.4604
    SETDIJ:  cpu time      0.4704: real time      0.4703
    TRIAL :  cpu time    232.0233: real time    231.9914
    CORREC:  cpu time    234.3122: real time    234.2826
    CHARGE:  cpu time      0.2073: real time      0.2073
    --------------------------------------------
      LOOP:  cpu time    468.4759: real time    468.4144

 eigenvalue-minimisations  :     0
 total energy-change (2. order) : 0.2656075E+04  (-0.5121064E+05)
 number of electron    1055.9999989 magnetization 
 augmentation part       77.4569755 magnetization 

 Free energy of the ion-electron system (eV)
  ---------------------------------------------------
  alpha Z        PSCENC =      5376.25786726
  Ewald energy   TEWEN  =    -86397.21290821
  -Hartree energ DENC   =    -13639.32844096
  -exchange      EXHF   =      2033.03719933
  -V(xc)+E(xc)   XCENC  =      2158.17417510
  PAW double counting   =    351630.32487262  -356422.59558709
  entropy T*S    EENTRO =        -0.00720946
  eigenvalues    EBANDS =     16525.97669415
  atomic energy  EATOM  =    131500.23896116
  ---------------------------------------------------
  free energy    TOTEN  =     52764.87267815 eV

  energy without entropy =    52764.87988761  energy(sigma->0) =    52764.87628288
  exchange ACFDT corr.  =      -221.31403762  see jH, gK, PRB 81, 115126


--------------------------------------------------------------------------------------------------------




--------------------------------------- Iteration      1(  11)  ---------------------------------------


    POTLOK:  cpu time      1.4490: real time      1.4488
    SETDIJ:  cpu time      0.4915: real time      0.4914
    TRIAL :  cpu time    232.0571: real time    232.0254
    CORREC:  cpu time    234.2309: real time    234.2003
    CHARGE:  cpu time      0.2045: real time      0.2045
    --------------------------------------------
      LOOP:  cpu time    468.4352: real time    468.3729

 eigenvalue-minimisations  :     0
[...]
   0.333E+02 0.128E+03 -.875E+02   -.327E+02 -.131E+03 0.913E+02   -.505E+00 0.268E+01 -.352E+01
   -.102E+03 0.599E+02 0.170E+02   0.100E+03 -.541E+02 -.159E+02   0.127E+01 -.542E+01 -.993E+00
   0.114E+02 0.120E+03 -.697E+02   -.115E+02 -.122E+03 0.723E+02   0.101E+00 0.125E+01 -.243E+01
   0.122E+03 0.963E+02 0.543E+02   -.115E+03 -.962E+02 -.553E+02   -.544E+01 -.148E+00 0.955E+00
   -.335E+02 0.105E+03 -.944E+02   0.341E+02 -.106E+03 0.968E+02   -.520E+00 0.143E+01 -.240E+01
   0.267E+02 -.231E+03 0.934E+02   -.235E+02 0.247E+03 -.101E+03   -.266E+01 -.137E+02 0.670E+01
   0.425E+02 0.739E+01 0.337E+02   -.478E+02 -.727E+01 -.366E+02   0.453E+01 -.864E-01 0.253E+01
   0.589E+02 0.744E+02 0.587E+02   -.589E+02 -.826E+02 -.548E+02   -.101E+00 0.723E+01 -.331E+01
   -.253E+02 -.478E+01 -.295E+02   0.308E+02 0.611E+01 0.313E+02   -.479E+01 -.113E+01 -.159E+01
   -.170E+02 -.738E+02 0.548E+02   0.149E+02 0.778E+02 -.587E+02   0.178E+01 -.350E+01 0.336E+01
   -.280E+02 0.630E+01 0.397E+02   0.285E+02 -.152E+02 -.430E+02   -.362E+00 0.813E+01 0.274E+01
   0.122E+02 0.712E+02 -.278E+00   -.122E+02 -.826E+02 -.154E+01   0.289E-02 0.975E+01 0.156E+01
   0.151E+02 0.229E+01 -.397E+02   -.151E+02 -.928E+01 0.472E+02   0.488E-01 0.597E+01 -.643E+01
   -.116E+02 0.359E+02 0.525E+01   0.124E+02 -.457E+02 -.709E+01   -.697E+00 0.840E+01 0.157E+01
   -.774E+01 0.989E+01 -.312E+02   0.807E+01 -.187E+02 0.384E+02   -.293E+00 0.759E+01 -.624E+01
   -.700E+00 0.675E+02 -.369E+02   -.287E+00 -.785E+02 0.389E+02   0.855E+00 0.946E+01 -.176E+01
   -.532E+01 0.205E+02 -.141E+02   0.522E+01 -.270E+02 0.198E+02   0.787E-01 0.556E+01 -.494E+01
   0.697E+01 0.278E+02 0.414E+02   -.702E+01 -.247E+02 -.381E+02   0.349E-01 -.264E+01 -.288E+01
   0.425E+01 -.811E+01 0.930E+02   -.437E+01 0.131E+02 -.939E+02   0.123E+00 -.427E+01 0.772E+00
   0.141E+02 0.493E+02 0.107E+02   -.148E+02 -.467E+02 -.474E+01   0.614E+00 -.224E+01 -.515E+01
   0.250E+02 0.304E+02 0.508E+02   -.262E+02 -.270E+02 -.468E+02   0.987E+00 -.288E+01 -.338E+01
   -.258E+02 0.509E+02 0.985E+01   0.272E+02 -.484E+02 -.374E+01   -.118E+01 -.207E+01 -.525E+01
   -.223E+02 0.381E+02 0.510E+02   0.229E+02 -.374E+02 -.466E+02   -.498E+00 -.655E+00 -.385E+01
   -.225E+02 -.146E+03 -.492E+02   0.243E+02 0.145E+03 0.466E+02   -.153E+01 0.110E+01 0.225E+01
   -.399E+02 -.152E+03 -.861E+01   0.393E+02 0.156E+03 0.833E+01   0.637E+00 -.388E+01 0.102E+00
   0.389E+02 -.167E+03 -.899E+02   -.403E+02 0.173E+03 0.954E+02   0.108E+01 -.456E+01 -.486E+01
   0.595E+02 -.121E+03 -.122E+02   -.628E+02 0.120E+03 0.711E+01   0.289E+01 0.474E+00 0.437E+01
   -.404E+02 -.153E+03 -.516E+02   0.428E+02 0.154E+03 0.502E+02   -.208E+01 -.126E+01 0.121E+01
   0.106E+02 -.142E+03 -.288E+02   -.102E+02 0.147E+03 0.277E+02   -.496E+00 -.446E+01 0.785E+00
   -.433E+02 0.595E+02 0.956E+02   0.438E+02 -.699E+02 -.101E+03   -.290E+00 0.892E+01 0.496E+01
   -.271E+02 0.591E+02 0.104E+03   0.286E+02 -.719E+02 -.101E+03   -.124E+01 0.110E+02 -.203E+01
   0.209E+02 0.756E+02 0.744E+02   -.212E+02 -.882E+02 -.729E+02   0.255E+00 0.109E+02 -.120E+01
   0.534E+02 0.963E+02 0.113E+03   -.544E+02 -.110E+03 -.115E+03   0.891E+00 0.117E+02 0.161E+01
   0.239E+02 0.534E+02 0.892E+02   -.242E+02 -.644E+02 -.937E+02   0.171E+00 0.944E+01 0.416E+01
   -.326E+02 0.583E+02 0.124E+03   0.331E+02 -.694E+02 -.124E+03   -.430E+00 0.959E+01 0.246E-01
   0.616E+01 -.188E+03 -.434E+02   -.657E+01 0.202E+03 0.406E+02   0.369E+00 -.117E+02 0.239E+01
   0.712E+01 -.157E+03 -.832E+02   -.732E+01 0.168E+03 0.850E+02   0.176E+00 -.957E+01 -.147E+01
   0.104E+02 -.131E+03 -.325E+02   -.104E+02 0.141E+03 0.266E+02   0.590E-02 -.871E+01 0.506E+01
   0.266E+02 -.152E+03 -.568E+02   -.281E+02 0.165E+03 0.530E+02   0.133E+01 -.110E+02 0.329E+01
   -.997E+01 -.157E+03 -.359E+02   0.997E+01 0.170E+03 0.314E+02   -.918E-02 -.103E+02 0.381E+01
   -.240E+02 -.116E+03 -.590E+02   0.247E+02 0.125E+03 0.554E+02   -.607E+00 -.818E+01 0.313E+01
   -.467E+02 0.464E+00 0.330E+02   0.572E+02 -.284E+01 -.339E+02   -.901E+01 0.208E+01 0.791E+00
   -.897E+01 0.475E+01 0.901E+01   0.946E+01 0.271E+01 -.139E+02   -.415E+00 -.640E+01 0.420E+01
   0.499E+02 -.192E+02 0.293E+02   -.586E+02 0.203E+02 -.311E+02   0.751E+01 -.893E+00 0.154E+01
   0.112E+02 -.545E+01 0.363E+01   -.119E+02 0.130E+02 -.726E+01   0.613E+00 -.647E+01 0.313E+01
   -.456E+02 0.302E+02 0.112E+02   0.520E+02 -.302E+02 -.121E+02   -.552E+01 0.282E-01 0.712E+00
   -.325E+01 0.102E+02 0.998E+01   0.352E+01 -.411E+01 -.143E+02   -.246E+00 -.522E+01 0.375E+01
   0.298E+02 -.581E+02 -.307E+02   -.317E+02 0.523E+02 0.269E+02   0.171E+01 0.496E+01 0.322E+01
   0.674E+02 -.103E+02 0.309E+02   -.722E+02 0.841E+01 -.263E+02   0.414E+01 0.161E+01 -.395E+01
   0.138E+02 -.354E+02 -.620E+02   -.149E+02 0.304E+02 0.670E+02   0.982E+00 0.428E+01 -.425E+01
   0.476E+02 -.223E+02 -.594E+02   -.543E+02 0.228E+02 0.702E+02   0.580E+01 -.431E+00 -.930E+01
   -.335E+02 -.548E+02 -.391E+02   0.349E+02 0.490E+02 0.381E+02   -.122E+01 0.503E+01 0.849E+00
   -.114E+03 -.605E+02 0.107E+01   0.126E+03 0.650E+02 0.467E+01   -.106E+02 -.395E+01 -.483E+01
   0.248E+02 0.206E+03 0.263E+02   -.289E+02 -.215E+03 -.240E+02   0.354E+01 0.810E+01 -.204E+01
   0.164E+03 0.137E+03 -.719E+02   -.169E+03 -.137E+03 0.786E+02   0.497E+01 -.148E+00 -.574E+01
   0.140E+02 0.150E+03 0.319E+02   -.123E+02 -.155E+03 -.307E+02   -.147E+01 0.424E+01 -.108E+01
   -.576E+02 0.116E+03 -.411E+02   0.585E+02 -.114E+03 0.492E+02   -.767E+00 -.198E+01 -.701E+01
   -.363E+02 0.102E+03 0.366E+02   0.390E+02 -.101E+03 -.331E+02   -.229E+01 -.727E+00 -.311E+01
   0.423E+02 0.620E+02 -.398E+02   -.452E+02 -.554E+02 0.367E+02   0.248E+01 -.561E+01 0.261E+01
   0.148E+02 0.171E+02 -.933E+02   -.159E+02 -.227E+02 0.891E+02   0.101E+01 0.486E+01 0.367E+01
   -.730E+01 -.445E+02 0.858E+01   0.582E+01 0.481E+02 -.146E+02   0.129E+01 -.309E+01 0.525E+01
   0.747E+01 0.144E+02 -.101E+03   -.661E+01 -.207E+02 0.100E+03   -.741E+00 0.550E+01 0.581E+00
   -.258E+02 0.798E+02 -.324E+02   0.269E+02 -.849E+02 0.309E+02   -.994E+00 0.437E+01 0.130E+01
   -.434E+02 -.415E+02 -.340E+02   0.470E+02 0.453E+02 0.259E+02   -.312E+01 -.329E+01 0.698E+01
   0.552E+02 0.233E+03 -.356E+02   -.592E+02 -.247E+03 0.425E+02   0.346E+01 0.117E+02 -.599E+01
   -.266E+01 -.720E+01 0.699E+02   0.241E+01 0.145E+02 -.745E+02   0.212E+00 -.630E+01 0.395E+01
   -.555E+01 0.189E+03 0.223E+02   0.639E+01 -.202E+03 -.174E+02   -.734E+00 0.109E+02 -.421E+01
   -.204E+02 0.103E+03 0.665E+02   0.191E+02 -.111E+03 -.658E+02   0.113E+01 0.639E+01 -.634E+00
   -.587E+02 0.217E+03 -.252E+02   0.619E+02 -.231E+03 0.301E+02   -.276E+01 0.120E+02 -.422E+01
   0.501E+02 0.100E+03 0.641E+02   -.517E+02 -.106E+03 -.642E+02   0.140E+01 0.480E+01 0.117E+00
   -.186E+02 0.253E+03 0.564E+02   0.154E+02 -.262E+03 -.568E+02   0.285E+01 0.798E+01 0.345E+00
   -.446E+02 -.968E+02 -.131E+03   0.491E+02 0.109E+03 0.130E+03   -.395E+01 -.104E+02 0.639E+00
   0.953E+02 0.838E+02 0.149E+02   -.953E+02 -.799E+02 -.167E+02   -.120E-01 -.335E+01 0.160E+01
   0.340E+02 -.861E+02 -.945E+02   -.364E+02 0.943E+02 0.910E+02   0.198E+01 -.704E+01 0.306E+01
   -.363E+02 -.501E+02 0.407E+01   0.367E+02 0.615E+02 -.855E+01   -.440E+00 -.978E+01 0.383E+01
   0.156E+02 -.929E+02 -.101E+03   -.186E+02 0.105E+03 0.981E+02   0.259E+01 -.107E+02 0.214E+01
   -.107E+03 0.614E+02 -.838E+02   0.110E+03 -.603E+02 0.857E+02   -.296E+01 -.857E+00 -.201E+01
 -----------------------------------------------------------------------------------------------
   -.123E+02 -.943E+02 0.867E+01   0.398E-12 0.796E-12 -.384E-12   0.110E+02 0.837E+02 -.768E+01
 
 
 POSITION                                       TOTAL-FORCE (eV/Angst)
 -----------------------------------------------------------------------------------
      0.04367      7.51402     -1.75002         0.011419     -0.031567      0.044372
      0.04533      6.33776     -7.48799        -0.007294      0.095407     -0.015523
      3.05150      7.50701     -1.76390        -0.002411      0.059232     -0.002904
      2.99532      6.33905     -7.45489         0.000365      0.067141     -0.028179
      6.14247      7.47625     -1.78501         0.033881      0.115024      0.006662
      6.07297      6.33700     -7.47690         0.001968      0.166078     -0.016031
      1.56360      9.25779     -3.85692        -0.020474     -0.030674     -0.154522
      1.47109      8.14110     -9.69097        -0.103726     -0.059161      0.053242
      4.56262      9.26133     -3.84933         0.037307     -0.078445     -0.051491
      4.52448      8.09607     -9.50239         0.032366     -0.050803      0.124097
      7.63053      9.22341     -3.89599        -0.002239     -0.069650     -0.083509
      7.56431      7.99918     -9.59520        -0.008359      0.057634      0.048326
      1.52775      5.95922     -4.44698         0.031475     -0.014953     -0.049512
      1.56501      4.68375    -10.13302        -0.011628      0.028908      0.068798
      4.63441      6.18155     -4.58465        -0.082707     -0.118973     -0.020441
      4.61265      4.88269    -10.14713        -0.036692     -0.103380      0.129548
      7.62235      6.09656     -4.55533         0.022378     -0.097650     -0.057325
      7.65519      4.81073    -10.14926         0.002287     -0.050634      0.093499
      9.04974     10.81307     -1.24476         0.211093     -0.150500      0.068847
      8.84561      9.39266     -6.80347        -0.219037     -0.023926     -0.047163
      3.29621     10.88628     -1.15519        -0.419748      0.254075      0.240270
      3.05665      9.54678     -6.80135        -0.008581     -0.121788     -0.018561
      5.69035     10.66960     -1.18912         0.507470     -0.296149      0.074576
      6.43816      9.38606     -6.75354         0.188724     -0.064286     -0.030628
      1.48448     -0.01606     -7.54687        -0.025964      0.026460      0.017753
      4.35949      1.74941     -1.77969        -0.177499      0.042193      0.095147
      4.59513     -0.00016     -7.41083         0.030528      0.006573      0.082667
      7.57161      1.28228     -1.46883        -0.091286     -0.162677      0.113240
      7.61400      0.37348     -7.31269        -0.011053     -0.288702      0.097741
      0.03744      3.13787     -3.76212         0.068314      0.177292     -0.005895
      0.06459      1.82773     -9.59172         0.092831     -0.040406     -0.124513
      3.03884      3.21597     -3.96106        -0.136356     -0.055214      0.046971
      3.11791      1.87268     -9.42419        -0.057427      0.000293     -0.103670
      6.13294      3.15975     -3.84545         0.052194      0.027980      0.089647
      6.09725      1.95569     -9.41430         0.003614     -0.092356     -0.137609
      0.01291     -0.05561     -4.49524         0.070846     -0.248132     -0.251451
      8.97313     -1.16780    -10.68211         0.171131      0.097101      0.104856
      3.01858     -0.02748     -4.46411         0.029903     -0.014985     -0.068184
      3.01883     -1.29316    -10.53564         0.052315     -0.169839     -0.113168
      6.09226     -0.02955     -4.40142        -0.056601     -0.016104     -0.027675
      6.07474     -1.35222    -10.08217        -0.004805     -0.047492      0.149657
      1.67917      4.25451     -1.06734        -0.170305     -0.152371      0.049549
      1.51755      3.35846     -6.84412         0.009423     -0.072440      0.031256
      4.62034      4.66607     -1.09284        -0.106253      0.046990      0.007973
      4.56115      3.41179     -6.79098         0.030768     -0.056702     -0.003454
      7.86975      4.51471     -1.08035         0.270521     -0.081477      0.008710
      7.62338      3.46692     -6.72197         0.010095     -0.061479     -0.069465
      1.57721     11.36147     -1.50498        -0.086213     -0.521544      0.238255
      1.40638     10.37091     -7.13547         0.129272      0.018932      0.116146
      3.68400      0.42967     -0.71680        -0.005027      0.381851     -0.022387
      4.72440     10.40490     -6.91249        -0.148760     -0.016281     -0.053563
      7.33136     11.58204     -1.41132         0.045106     -0.129637      0.092577
      7.62243     -1.40052     -7.21440        -0.017576      0.650045      0.018683
      9.08296      5.01981     -4.41959         0.047911      0.326403      0.050593
      9.12635      3.79327     -9.73754         0.035351      0.164759     -0.219420
      3.16401      5.12351     -4.47663        -0.072342      0.242236      0.049875
      3.16227      3.85760     -9.71673        -0.044121      0.240429     -0.216817
      6.09985      5.09348     -4.35070         0.034598      0.309760     -0.069989
      6.11192      3.87707     -9.75538        -0.005983      0.160965     -0.175231
      1.54866      7.31431     -3.15921        -0.009120     -0.066812     -0.070664
      1.53407      6.07822     -8.84582         0.016702     -0.120654      0.057156
      4.59266      7.30714     -3.12623         0.023308     -0.038253     -0.149823
      4.53126      6.13002     -8.78607         0.037249     -0.072622     -0.125730
      7.65250      7.31115     -3.16572        -0.041180     -0.043660     -0.160523
      7.61322      6.13297     -8.82264        -0.021759      0.013174     -0.134910
      9.08238      9.39134     -2.49560        -0.031704      0.036242      0.050938
      0.09413      8.15555     -8.28374         0.135622     -0.234459     -0.105989
      3.06126      9.35139     -2.55085         0.003254     -0.213617     -0.230094
      2.99304      8.22608     -8.14047         0.100516     -0.033757      0.097410
      6.14824      9.33639     -2.50846        -0.081320     -0.074000      0.004704
      5.99343      8.15003     -8.18856        -0.115050     -0.231534     -0.093419
      0.07694      8.83932     -4.96574         0.101440      0.334714      0.349635
      9.05768      7.54750    -10.74856        -0.011762      0.449427     -0.067411
      3.07649      8.85567     -5.07402         0.002435      0.406605      0.050324
      3.04840      7.56082    -10.62778        -0.001895      0.463599      0.122030
      6.03281      8.79055     -4.95567        -0.093394      0.364242      0.324038
      6.01808      7.48576    -10.65118        -0.020807      0.412989      0.023723
      1.56283      7.99916     -0.59668         0.017276     -0.452734      0.024357
      1.50582      6.63694     -6.22812         0.018532     -0.377349     -0.056214
      4.60947      7.96844     -0.64498        -0.009112     -0.355012      0.132573
      4.56262      6.73295     -6.32614         0.039976     -0.432776      0.118809
      7.63926      7.98747     -0.63219         0.001089     -0.405560      0.059051
      7.62415      6.58979     -6.32456        -0.020268     -0.413202      0.138843
      0.11266      5.69290     -1.40638        -0.307569      0.104797      0.025067
      0.01431      4.40876     -7.12178        -0.007210     -0.193604      0.158648
      3.09968      5.65348     -1.39487         0.253741     -0.033452      0.058863
      3.03485      4.40804     -7.10013         0.017536     -0.197430      0.126010
      6.21131      5.61502     -1.36305        -0.189944      0.006729      0.019313
      6.07986      4.42917     -7.09756        -0.007189     -0.158749      0.153181
      1.55977     11.10096     -4.39957         0.059788      0.170587      0.111731
      1.42295     -2.21674    -10.14809         0.126355      0.070381     -0.156052
      4.55951     11.21907     -4.06450         0.037936      0.141060     -0.171953
      4.50635     -2.25234     -9.63461         0.198609     -0.009488     -0.386745
      7.59196     11.13190     -4.32258        -0.025293      0.224645      0.039387
      7.50615      9.84748     -9.70761        -0.395719     -0.137344     -0.136887
      0.06734      0.00928     -8.98737         0.104428      0.336389     -0.142497
      3.22850      1.39755     -3.32106         0.265141      0.047964     -0.177172
      3.04977     -0.07586     -8.90691        -0.055028      0.166505     -0.076310
      6.02122      1.27095     -3.05695        -0.053664     -0.052776     -0.223442
      6.03456      0.05501     -8.81755        -0.071071      0.020204     -0.108603
      1.64093      3.92833     -2.89212         0.083177     -0.172393      0.058136
      1.56558      1.99289     -8.07115         0.034658      0.137104      0.089234
      4.63648      3.52225     -2.59383         0.033848     -0.140508      0.218863
      4.56582      2.03826     -8.03620        -0.027762      0.172959     -0.019770
      7.52658      3.51706     -2.58901        -0.010447      0.141548      0.037111
      7.60839      2.13048     -8.04582        -0.100120     -0.205624      0.230265
      1.56447      2.77757     -5.14030         0.105583      0.460909     -0.195851
      1.66228      2.01543    -10.56222        -0.009656     -0.222993      0.136005
      4.62039      2.84134     -5.06878        -0.040095      0.400757     -0.088673
      4.65200      1.67600    -10.57096         0.014054      0.220902     -0.049472
      7.61433      2.74399     -5.04631        -0.085862      0.468709     -0.113087
      7.55121      1.66254    -10.55130         0.107493      0.183080     -0.018481
      0.18866      3.20760     -0.59717         0.157151      0.372449      0.072214
      0.08653      0.55616     -6.26842        -0.171185     -0.379411     -0.001643
      3.08003      2.86197     -0.61376         0.051171     -0.134704      0.073165
      3.03534      0.32652     -6.30081         0.058060     -0.271638      0.102579
      5.93333      2.02018     -0.55963        -0.084288     -0.388636      0.095435
      6.02069      0.59956     -6.15635         0.131994     -0.385774      0.066185
      0.36645      1.16949     -2.69847        -0.363637      0.148471     -0.338820
 -----------------------------------------------------------------------------------
    total drift:                                0.019740      0.045537      0.043435


--------------------------------------------------------------------------------------------------------



  FREE ENERGIE OF THE ION-ELECTRON SYSTEM (eV)
  ---------------------------------------------------
  free  energy   TOTEN  =      -839.95589446 eV

  energy  without entropy=     -839.95160982  energy(sigma->0) =     -839.95375214
 


--------------------------------------------------------------------------------------------------------


    POTLOK:  cpu time      1.9570: real time      1.9634


--------------------------------------------------------------------------------------------------------


 writing wavefunctions
     LOOP+:  cpu time  43034.2029: real time  43029.0722
    4ORBIT:  cpu time      0.0000: real time      0.0000

 total amount of memory used by VASP MPI-rank0  7507573. kBytes
=======================================================================

   base      :      30000. kBytes
   nonlr-proj:      46628. kBytes
   fftplans  :      51012. kBytes
   grid      :     102973. kBytes
   one-center:       1850. kBytes
   HF        :        194. kBytes
   wavefun   :    7045683. kBytes
   fock_wrk  :     229233. kBytes
 
  
  
 General timing and accounting informations for this job:
 ========================================================
  
                  Total CPU time used (sec):    43065.324
                            User time (sec):    43033.293
                          System time (sec):       32.030
                         Elapsed time (sec):    43061.626
  
                   Maximum memory used (kb):    13321408.
                   Average memory used (kb):          N/A
  
                          Minor page faults:      5841122
                          Major page faults:            4
                 Voluntary context switches:       782980
