<?xml version="1.0" encoding="ISO-8859-1"?>
<modeling>
 <generator>
  <i name="program" type="string">vasp </i>
  <i name="version" type="string">6.4.2  </i>
  <i name="subversion" type="string">20Jul23 (build Nov 12 2023 22:16:35) complex                          parallel </i>
  <i name="platform" type="string">LinuxNV </i>
  <i name="date" type="string">2025 03 29 </i>
  <i name="time" type="string">12:00:52 </i>
 </generator>
 <incar>
  <i type="int" name="ISTART">     0</i>
  <i type="string" name="PREC">Normal</i>
  <i type="string" name="ALGO">All</i>
  <i type="int" name="ISPIN">     1</i>
  <i type="int" name="ICHARG">     0</i>
  <i type="int" name="NELM">   500</i>
  <i type="int" name="IBRION">    -1</i>
  <i name="EDIFF">      0.00001000</i>
  <i name="EDIFFG">     -0.00500000</i>
  <i type="int" name="NSW">     0</i>
  <i type="int" name="ISIF">     2</i>
  <i name="ENCUT">    450.00000000</i>
  <i name="NELECT">   1043.00000000</i>
  <i type="string" name="LREAL">Auto</i>
  <i type="logical" name="LPLANE"> T  </i>
  <i name="TIME">      0.40000000</i>
  <i type="int" name="ISMEAR">     0</i>
  <i name="SIGMA">      0.05000000</i>
  <i type="logical" name="LWAVE"> T  </i>
  <i type="logical" name="LCHARG"> T  </i>
  <i name="HFSCREEN">      0.20000000</i>
  <i type="logical" name="LHFCALC"> T  </i>
  <i type="int" name="LMAXFOCK">     4</i>
  <i name="AEXX">      0.32000000</i>
  <i type="string" name="PRECFOCK">Fast</i>
 </incar>
 <primitive_cell>
  <structure name="primitive_cell" >
   <crystal>
    <varray name="basis" >
     <v>       0.00000000      12.28047342       0.00000000 </v>
     <v>       9.14270205       0.00000000       0.00000000 </v>
     <v>       0.00000000      -2.76826177     -11.30069772 </v>
    </varray>
    <i name="volume">   1268.80515525 </i>
    <varray name="rec_basis" >
     <v>       0.00000000       0.08143009      -0.01994742 </v>
     <v>       0.10937686      -0.00000000       0.00000000 </v>
     <v>       0.00000000       0.00000000      -0.08849011 </v>
    </varray>
   </crystal>
   <varray name="positions" >
    <v>       0.65957031       0.99933944       0.15873824 </v>
    <v>       0.65924885       0.99797789       0.65653157 </v>
    <v>       0.65805817       0.33127143       0.15983486 </v>
    <v>       0.65890586       0.33114818       0.65722053 </v>
    <v>       0.65996865       0.66686059       0.15897610 </v>
    <v>       0.65894696       0.66462652       0.65785654 </v>
    <v>       0.84623473       0.16246037       0.34569896 </v>
    <v>       0.84020159       0.16449788       0.84219312 </v>
    <v>       0.84184237       0.49941757       0.34511579 </v>
    <v>       0.84082552       0.49963509       0.84283422 </v>
    <v>       0.84551462       0.83372035       0.34600139 </v>
    <v>       0.84036781       0.83246671       0.84363702 </v>
    <v>       0.59048359       0.16262136       0.39788353 </v>
    <v>       0.59144102       0.16474359       0.89941515 </v>
    <v>       0.59393248       0.50089077       0.40020214 </v>
    <v>       0.59256701       0.49782457       0.89981090 </v>
    <v>       0.58903022       0.83396678       0.39763661 </v>
    <v>       0.59051209       0.83146827       0.89916766 </v>
    <v>       0.90991491       0.00596937       0.10365784 </v>
    <v>       0.91111956       0.99758589       0.60241461 </v>
    <v>       0.89881103       0.34808351       0.09949484 </v>
    <v>       0.90965984       0.33109529       0.60402278 </v>
    <v>       0.90863128       0.67594657       0.10327984 </v>
    <v>       0.90946401       0.66502952       0.60371631 </v>
    <v>       0.15976808       0.16066112       0.65408797 </v>
    <v>       0.15657258       0.50741722       0.16126261 </v>
    <v>       0.15928055       0.49789807       0.65850506 </v>
    <v>       0.16119539       0.83348160       0.14963257 </v>
    <v>       0.16014457       0.83283477       0.65278767 </v>
    <v>       0.33097403       0.00176735       0.34497507 </v>
    <v>       0.34012831       0.99774377       0.84552147 </v>
    <v>       0.34720725       0.33122349       0.34384987 </v>
    <v>       0.34132313       0.33017380       0.84501632 </v>
    <v>       0.34085720       0.66549798       0.34553393 </v>
    <v>       0.34083102       0.66375444       0.84433280 </v>
    <v>       0.11785818       0.99170466       0.38066877 </v>
    <v>       0.09184568       0.99161692       0.89678678 </v>
    <v>       0.08589751       0.32650213       0.40174329 </v>
    <v>       0.09054308       0.32355412       0.89809311 </v>
    <v>       0.08947579       0.66722389       0.39871660 </v>
    <v>       0.09064507       0.66065250       0.89567699 </v>
    <v>       0.40676769       0.16445782       0.10620815 </v>
    <v>       0.40922837       0.16504019       0.60472153 </v>
    <v>       0.40944557       0.49905092       0.10351338 </v>
    <v>       0.40750030       0.49714600       0.60225732 </v>
    <v>       0.40870498       0.83310546       0.10395071 </v>
    <v>       0.41063136       0.83074703       0.60528418 </v>
    <v>       0.99472347       0.18303794       0.12313204 </v>
    <v>       0.99731827       0.16500719       0.62898087 </v>
    <v>       0.99407760       0.50703889       0.12654331 </v>
    <v>       0.99677197       0.49811987       0.63042301 </v>
    <v>       0.99975099       0.84111874       0.12980051 </v>
    <v>       0.99754293       0.83053605       0.62934464 </v>
    <v>       0.49943270       0.99875200       0.37527513 </v>
    <v>       0.50320248       0.99851292       0.87454667 </v>
    <v>       0.50795832       0.33386126       0.37604642 </v>
    <v>       0.50407238       0.33179711       0.87479686 </v>
    <v>       0.50324336       0.66475161       0.37249562 </v>
    <v>       0.50385951       0.66363474       0.87503736 </v>
    <v>       0.67408318       0.16499501       0.28238305 </v>
    <v>       0.67234590       0.16411413       0.78116078 </v>
    <v>       0.67411146       0.50013577       0.28231510 </v>
    <v>       0.67261005       0.49848751       0.78122448 </v>
    <v>       0.67377172       0.83370170       0.28244835 </v>
    <v>       0.67235713       0.83179636       0.78166834 </v>
    <v>       0.82914097       0.00152200       0.21977053 </v>
    <v>       0.82790882       0.99724101       0.71973010 </v>
    <v>       0.82753371       0.33340196       0.22182860 </v>
    <v>       0.82784705       0.33082486       0.72053586 </v>
    <v>       0.82872957       0.66859782       0.22112242 </v>
    <v>       0.82791745       0.66412611       0.72097028 </v>
    <v>       0.83106114       0.99846540       0.44712307 </v>
    <v>       0.83368308       0.00051271       0.94773001 </v>
    <v>       0.83648341       0.33040754       0.44641969 </v>
    <v>       0.82851645       0.33322964       0.94355681 </v>
    <v>       0.83353920       0.66557348       0.44700953 </v>
    <v>       0.83206650       0.66683855       0.94690069 </v>
    <v>       0.66913274       0.16600818       0.05599899 </v>
    <v>       0.66811869       0.16475803       0.55481282 </v>
    <v>       0.66983906       0.49840239       0.05693858 </v>
    <v>       0.67093426       0.49847078       0.55622367 </v>
    <v>       0.66862010       0.83266701       0.05567618 </v>
    <v>       0.66677590       0.83071251       0.55467129 </v>
    <v>       0.49654832       0.99900442       0.12883627 </v>
    <v>       0.49668481       0.99861511       0.62890771 </v>
    <v>       0.49602766       0.33185111       0.12867672 </v>
    <v>       0.49676273       0.33198388       0.62838289 </v>
    <v>       0.49649584       0.66588772       0.12956360 </v>
    <v>       0.49665038       0.66244377       0.62830912 </v>
    <v>       0.00890274       0.15454354       0.36934414 </v>
    <v>       0.00293223       0.15901800       0.87486156 </v>
    <v>       0.00415565       0.49773985       0.37334306 </v>
    <v>       0.00505153       0.49194481       0.87832749 </v>
    <v>       0.00685697       0.83595545       0.37414827 </v>
    <v>       0.00209507       0.82641563       0.87277228 </v>
    <v>       0.17289556       0.99673846       0.77970096 </v>
    <v>       0.16086460       0.33373906       0.27352431 </v>
    <v>       0.17283309       0.32943138       0.78316069 </v>
    <v>       0.17224841       0.66596438       0.28116728 </v>
    <v>       0.17285054       0.66368773       0.78032944 </v>
    <v>       0.33462637       0.16939815       0.22923655 </v>
    <v>       0.32805183       0.16484974       0.72187060 </v>
    <v>       0.32462850       0.49580453       0.21900567 </v>
    <v>       0.32765283       0.49651542       0.72092887 </v>
    <v>       0.32477050       0.83346930       0.22098527 </v>
    <v>       0.32851468       0.82998521       0.72136281 </v>
    <v>       0.32973229       0.17201817       0.44902626 </v>
    <v>       0.33125748       0.16537530       0.94865406 </v>
    <v>       0.33079839       0.49570535       0.44446358 </v>
    <v>       0.32938350       0.49644666       0.94780580 </v>
    <v>       0.33488087       0.82847200       0.44895184 </v>
    <v>       0.33339743       0.82978849       0.94704477 </v>
    <v>       0.17262170       0.99075352       0.04938441 </v>
    <v>       0.16790831       0.99744261       0.55238611 </v>
    <v>       0.15652099       0.31661364       0.06622885 </v>
    <v>       0.16746040       0.33174153       0.55577459 </v>
    <v>       0.16780997       0.66136189       0.05300734 </v>
    <v>       0.16903906       0.66250280       0.55451541 </v>
    <v>       0.14009076       0.18706322       0.16553786 </v>
   </varray>
  </structure>
  <varray name="primitive_index" >
   <v type="int" >        1 </v>
   <v type="int" >        2 </v>
   <v type="int" >        3 </v>
   <v type="int" >        4 </v>
   <v type="int" >        5 </v>
   <v type="int" >        6 </v>
   <v type="int" >        7 </v>
   <v type="int" >        8 </v>
   <v type="int" >        9 </v>
   <v type="int" >       10 </v>
   <v type="int" >       11 </v>
   <v type="int" >       12 </v>
   <v type="int" >       13 </v>
   <v type="int" >       14 </v>
   <v type="int" >       15 </v>
   <v type="int" >       16 </v>
   <v type="int" >       17 </v>
   <v type="int" >       18 </v>
   <v type="int" >       19 </v>
   <v type="int" >       20 </v>
   <v type="int" >       21 </v>
   <v type="int" >       22 </v>
   <v type="int" >       23 </v>
   <v type="int" >       24 </v>
   <v type="int" >       25 </v>
   <v type="int" >       26 </v>
   <v type="int" >       27 </v>
   <v type="int" >       28 </v>
   <v type="int" >       29 </v>
   <v type="int" >       30 </v>
   <v type="int" >       31 </v>
   <v type="int" >       32 </v>
   <v type="int" >       33 </v>
   <v type="int" >       34 </v>
   <v type="int" >       35 </v>
   <v type="int" >       36 </v>
   <v type="int" >       37 </v>
   <v type="int" >       38 </v>
   <v type="int" >       39 </v>
   <v type="int" >       40 </v>
   <v type="int" >       41 </v>
   <v type="int" >       42 </v>
   <v type="int" >       43 </v>
   <v type="int" >       44 </v>
   <v type="int" >       45 </v>
   <v type="int" >       46 </v>
   <v type="int" >       47 </v>
   <v type="int" >       48 </v>
   <v type="int" >       49 </v>
   <v type="int" >       50 </v>
   <v type="int" >       51 </v>
   <v type="int" >       52 </v>
   <v type="int" >       53 </v>
   <v type="int" >       54 </v>
   <v type="int" >       55 </v>
   <v type="int" >       56 </v>
   <v type="int" >       57 </v>
   <v type="int" >       58 </v>
   <v type="int" >       59 </v>
   <v type="int" >       60 </v>
   <v type="int" >       61 </v>
   <v type="int" >       62 </v>
   <v type="int" >       63 </v>
   <v type="int" >       64 </v>
   <v type="int" >       65 </v>
   <v type="int" >       66 </v>
   <v type="int" >       67 </v>
   <v type="int" >       68 </v>
   <v type="int" >       69 </v>
   <v type="int" >       70 </v>
   <v type="int" >       71 </v>
   <v type="int" >       72 </v>
   <v type="int" >       73 </v>
   <v type="int" >       74 </v>
   <v type="int" >       75 </v>
   <v type="int" >       76 </v>
   <v type="int" >       77 </v>
   <v type="int" >       78 </v>
   <v type="int" >       79 </v>
   <v type="int" >       80 </v>
   <v type="int" >       81 </v>
   <v type="int" >       82 </v>
   <v type="int" >       83 </v>
   <v type="int" >       84 </v>
   <v type="int" >       85 </v>
   <v type="int" >       86 </v>
   <v type="int" >       87 </v>
   <v type="int" >       88 </v>
   <v type="int" >       89 </v>
   <v type="int" >       90 </v>
   <v type="int" >       91 </v>
   <v type="int" >       92 </v>
   <v type="int" >       93 </v>
   <v type="int" >       94 </v>
   <v type="int" >       95 </v>
   <v type="int" >       96 </v>
   <v type="int" >       97 </v>
   <v type="int" >       98 </v>
   <v type="int" >       99 </v>
   <v type="int" >      100 </v>
   <v type="int" >      101 </v>
   <v type="int" >      102 </v>
   <v type="int" >      103 </v>
   <v type="int" >      104 </v>
   <v type="int" >      105 </v>
   <v type="int" >      106 </v>
   <v type="int" >      107 </v>
   <v type="int" >      108 </v>
   <v type="int" >      109 </v>
   <v type="int" >      110 </v>
   <v type="int" >      111 </v>
   <v type="int" >      112 </v>
   <v type="int" >      113 </v>
   <v type="int" >      114 </v>
   <v type="int" >      115 </v>
   <v type="int" >      116 </v>
   <v type="int" >      117 </v>
   <v type="int" >      118 </v>
   <v type="int" >      119 </v>
  </varray>
 </primitive_cell>
 <kpoints>
  <generation param="Gamma">
   <v type="int" name="divisions">       2        2        2 </v>
   <v name="usershift">      0.00000000       0.00000000       0.00000000 </v>
   <v name="genvec1">      0.50000000       0.00000000       0.00000000 </v>
   <v name="genvec2">      0.00000000       0.50000000       0.00000000 </v>
   <v name="genvec3">      0.00000000       0.00000000       0.50000000 </v>
   <v name="shift">      0.00000000       0.00000000       0.00000000 </v>
  </generation>
  <varray name="kpointlist" >
   <v>       0.00000000       0.00000000       0.00000000 </v>
   <v>       0.50000000       0.00000000       0.00000000 </v>
   <v>       0.00000000       0.50000000       0.00000000 </v>
   <v>       0.50000000       0.50000000       0.00000000 </v>
   <v>       0.00000000       0.00000000       0.50000000 </v>
   <v>       0.50000000       0.00000000       0.50000000 </v>
   <v>       0.00000000       0.50000000       0.50000000 </v>
   <v>       0.50000000       0.50000000       0.50000000 </v>
  </varray>
  <varray name="weights" >
   <v>       0.12500000 </v>
   <v>       0.12500000 </v>
   <v>       0.12500000 </v>
   <v>       0.12500000 </v>
   <v>       0.12500000 </v>
   <v>       0.12500000 </v>
   <v>       0.12500000 </v>
   <v>       0.12500000 </v>
  </varray>
 </kpoints>
 <parameters>
  <separator name="general" >
   <i type="string" name="SYSTEM">unknown system</i>
   <i type="logical" name="LCOMPAT"> F  </i>
  </separator>
  <separator name="electronic" >
   <i type="string" name="PREC">normal</i>
   <i name="ENMAX">    450.00000000</i>
   <i name="ENAUG">    605.39200000</i>
   <i name="EDIFF">      0.00001000</i>
   <i type="int" name="IALGO">    58</i>
   <i type="int" name="IWAVPR">    10</i>
   <i type="int" name="NBANDS">   625</i>
   <i type="int" name="NBANDSLOW">    -1</i>
   <i type="int" name="NBANDSHIGH">    -1</i>
   <i name="NELECT">   1043.00000000</i>
   <i type="int" name="TURBO">     0</i>
   <i type="int" name="IRESTART">     0</i>
   <i type="int" name="NREBOOT">     0</i>
   <i type="int" name="NMIN">     0</i>
   <i name="EREF">      0.00000000</i>
   <separator name="electronic smearing" >
    <i type="int" name="ISMEAR">     0</i>
    <i name="SIGMA">      0.05000000</i>
    <i name="KSPACING">      0.50000000</i>
    <i type="logical" name="KGAMMA"> T  </i>
    <i type="logical" name="KBLOWUP"> T  </i>
   </separator>
   <separator name="electronic projectors" >
    <i type="logical" name="LREAL"> T  </i>
    <v name="ROPT">     -0.00050000     -0.00050000     -0.00050000</v>
    <i type="int" name="LMAXPAW">  -100</i>
    <i type="int" name="LMAXMIX">     2</i>
    <i type="logical" name="NLSPLINE"> F  </i>
   </separator>
   <separator name="electronic startup" >
    <i type="int" name="ISTART">     0</i>
    <i type="int" name="ICHARG">     0</i>
    <i type="int" name="INIWAV">     1</i>
   </separator>
   <separator name="electronic spin" >
    <i type="int" name="ISPIN">     1</i>
    <i type="logical" name="LNONCOLLINEAR"> F  </i>
    <v name="MAGMOM">      1.00000000      1.00000000      1.00000000      1.00000000      1.00000000      1.00000000      1.00000000      1.00000000      1.00000000      1.00000000      1.00000000      1.00000000      1.00000000      1.00000000      1.00000000      1.00000000      1.00000000      1.00000000      1.00000000      1.00000000
      1.00000000      1.00000000      1.00000000      1.00000000      1.00000000      1.00000000      1.00000000      1.00000000      1.00000000      1.00000000      1.00000000      1.00000000      1.00000000      1.00000000      1.00000000      1.00000000      1.00000000      1.00000000      1.00000000      1.00000000
      1.00000000      1.00000000      1.00000000      1.00000000      1.00000000      1.00000000      1.00000000      1.00000000      1.00000000      1.00000000      1.00000000      1.00000000      1.00000000      1.00000000      1.00000000      1.00000000      1.00000000      1.00000000      1.00000000      1.00000000
      1.00000000      1.00000000      1.00000000      1.00000000      1.00000000      1.00000000      1.00000000      1.00000000      1.00000000      1.00000000      1.00000000      1.00000000      1.00000000      1.00000000      1.00000000      1.00000000      1.00000000      1.00000000      1.00000000      1.00000000
      1.00000000      1.00000000      1.00000000      1.00000000      1.00000000      1.00000000      1.00000000      1.00000000      1.00000000      1.00000000      1.00000000      1.00000000      1.00000000      1.00000000      1.00000000      1.00000000      1.00000000      1.00000000      1.00000000      1.00000000
      1.00000000      1.00000000      1.00000000      1.00000000      1.00000000      1.00000000      1.00000000      1.00000000      1.00000000      1.00000000      1.00000000      1.00000000      1.00000000      1.00000000      1.00000000      1.00000000      1.00000000      1.00000000      1.00000000</v>
    <i name="NUPDOWN">     -1.00000000</i>
    <i type="logical" name="LSORBIT"> F  </i>
    <v name="SAXIS">      0.00000000      0.00000000      1.00000000</v>
    <i type="logical" name="LSPIRAL"> F  </i>
    <v name="QSPIRAL">      0.00000000      0.00000000      0.00000000</v>
    <i type="logical" name="LZEROZ"> F  </i>
   </separator>
   <separator name="electronic exchange-correlation" >
    <i type="logical" name="LASPH"> F  </i>
    <i type="logical" name="LMETAGGA"> F  </i>
   </separator>
   <separator name="electronic convergence" >
    <i type="int" name="NELM">   500</i>
    <i type="int" name="NELMDL">    -5</i>
    <i type="int" name="NELMIN">     2</i>
    <i name="ENINI">    450.00000000</i>
    <separator name="electronic convergence detail" >
     <i type="logical" name="LDIAG"> T  </i>
     <i type="logical" name="LSUBROT"> F  </i>
     <i name="WEIMIN">      0.00000000</i>
     <i name="EBREAK">      0.00000000</i>
     <i name="DEPER">      0.30000000</i>
     <i type="int" name="NRMM">     4</i>
     <i name="TIME">      0.40000000</i>
    </separator>
   </separator>
   <separator name="electronic mixer" >
    <i name="AMIX">      0.40000000</i>
    <i name="BMIX">      1.00000000</i>
    <i name="AMIN">      0.10000000</i>
    <i name="AMIX_MAG">      1.60000000</i>
    <i name="BMIX_MAG">      1.00000000</i>
    <separator name="electronic mixer details" >
     <i type="int" name="IMIX">     4</i>
     <i type="logical" name="MIXFIRST"> F  </i>
     <i type="int" name="MAXMIX">   -45</i>
     <i name="WC">    100.00000000</i>
     <i type="int" name="INIMIX">     1</i>
     <i type="int" name="MIXPRE">     1</i>
     <i type="int" name="MREMOVE">     5</i>
    </separator>
   </separator>
   <separator name="electronic dipolcorrection" >
    <i type="logical" name="LDIPOL"> F  </i>
    <i type="logical" name="LMONO"> F  </i>
    <i type="int" name="IDIPOL">     0</i>
    <i name="EPSILON">      1.00000000</i>
    <v name="DIPOL">   -100.00000000   -100.00000000   -100.00000000</v>
    <i name="EFIELD">      0.00000000</i>
   </separator>
  </separator>
  <separator name="grids" >
   <i type="int" name="NGX">    64</i>
   <i type="int" name="NGY">    48</i>
   <i type="int" name="NGZ">    60</i>
   <i type="int" name="NGXF">   128</i>
   <i type="int" name="NGYF">    96</i>
   <i type="int" name="NGZF">   120</i>
   <i type="logical" name="ADDGRID"> F  </i>
  </separator>
  <separator name="ionic" >
   <i type="int" name="NSW">     0</i>
   <i type="int" name="IBRION">    -1</i>
   <i type="int" name="MDALGO">     0</i>
   <i type="int" name="ISIF">     2</i>
   <i name="PSTRESS">      0.00000000</i>
   <i name="EDIFFG">     -0.00500000</i>
   <i type="int" name="NFREE">     0</i>
   <i name="POTIM">      0.50000000</i>
   <i name="SMASS">     -3.00000000</i>
   <i name="SCALEE">      1.00000000</i>
  </separator>
  <separator name="ionic md" >
   <i name="TEBEG">      0.00010000</i>
   <i name="TEEND">      0.00010000</i>
   <i type="int" name="NBLOCK">     1</i>
   <i type="int" name="KBLOCK">     1</i>
   <i type="int" name="NPACO">   256</i>
   <i name="APACO">     10.00000000</i>
  </separator>
  <separator name="symmetry" >
   <i type="int" name="ISYM">     3</i>
   <i name="SYMPREC">      0.00001000</i>
  </separator>
  <separator name="dos" >
   <i type="int" name="LORBIT">     0</i>
   <v name="RWIGS">     -1.00000000     -1.00000000     -1.00000000</v>
   <i type="int" name="NEDOS">   301</i>
   <i name="EMIN">     10.00000000</i>
   <i name="EMAX">    -10.00000000</i>
   <i name="EFERMI">      0.00000000</i>
  </separator>
  <separator name="writing" >
   <i type="int" name="NWRITE">     2</i>
   <i type="logical" name="LWAVE"> T  </i>
   <i type="logical" name="LDOWNSAMPLE"> F  </i>
   <i type="logical" name="LCHARG"> T  </i>
   <i type="logical" name="LPARD"> F  </i>
   <i type="logical" name="LVTOT"> F  </i>
   <i type="logical" name="LVHAR"> F  </i>
   <i type="logical" name="LELF"> F  </i>
   <i type="logical" name="LOPTICS"> F  </i>
   <v name="STM">      0.00000000      0.00000000      0.00000000      0.00000000      0.00000000      0.00000000      0.00000000</v>
  </separator>
  <separator name="performance" >
   <i type="int" name="NPAR">     1</i>
   <i type="int" name="NSIM">     4</i>
   <i type="int" name="NBLK">    -1</i>
   <i type="logical" name="LPLANE"> T  </i>
   <i type="logical" name="LSCALAPACK"> T  </i>
   <i type="logical" name="LSCAAWARE"> F  </i>
   <i type="logical" name="LSCALU"> F  </i>
   <i type="logical" name="LASYNC"> F  </i>
   <i type="logical" name="LORBITALREAL"> F  </i>
  </separator>
  <separator name="miscellaneous" >
   <i type="int" name="IDIOT">     3</i>
   <i type="int" name="PHON_NSTRUCT">    -1</i>
   <i type="logical" name="LMUSIC"> F  </i>
   <v name="POMASS">     69.72300000     16.00000000     30.97400000</v>
   <v name="DARWINR">      0.00000000      0.00000000      0.00000000</v>
   <v name="DARWINV">      1.00000000      1.00000000      1.00000000</v>
   <i type="logical" name="LCORR"> T  </i>
  </separator>
  <i type="logical" name="GGA_COMPAT"> T  </i>
  <i type="logical" name="LBERRY"> F  </i>
  <i type="int" name="ICORELEVEL">     0</i>
  <i type="logical" name="LDAU"> F  </i>
  <i type="int" name="I_CONSTRAINED_M">     0</i>
  <separator name="electronic exchange-correlation" >
   <i type="string" name="GGA">--</i>
   <i type="int" name="VOSKOWN">     0</i>
   <i type="logical" name="LHFCALC"> T  </i>
   <i type="string" name="PRECFOCK">fast</i>
   <i type="logical" name="LSYMGRAD"> F  </i>
   <i type="logical" name="LHFONE"> F  </i>
   <i type="logical" name="LRHFCALC"> F  </i>
   <i type="logical" name="LTHOMAS"> F  </i>
   <i type="logical" name="LMODELHF"> F  </i>
   <i type="logical" name="LFOCKACE"> T  </i>
   <i name="ENCUT4O">     -1.00000000</i>
   <i type="int" name="EXXOEP">     0</i>
   <i type="int" name="FOURORBIT">     0</i>
   <i name="AEXX">      0.32000000</i>
   <i name="HFALPHA">     -1.00000000</i>
   <i name="MCALPHA">      0.00000000</i>
   <i name="ALDAX">      0.68000000</i>
   <i name="AGGAX">      0.68000000</i>
   <i name="ALDAC">      1.00000000</i>
   <i name="AGGAC">      1.00000000</i>
   <i type="int" name="NKREDX">     1</i>
   <i type="int" name="NKREDY">     1</i>
   <i type="int" name="NKREDZ">     1</i>
   <i type="logical" name="SHIFTRED"> F  </i>
   <i type="logical" name="ODDONLY"> F  </i>
   <i type="logical" name="EVENONLY"> F  </i>
   <i type="int" name="LMAXFOCK">     4</i>
   <i type="int" name="NMAXFOCKAE">     1</i>
   <i type="logical" name="LFOCKAEDFT"> F  </i>
   <i name="HFSCREEN">      0.20000000</i>
   <i name="HFSCREENC">      0.20000000</i>
   <i type="int" name="NBANDSGWLOW">     1</i>
  </separator>
  <separator name="vdW DFT" >
   <i type="logical" name="LUSE_VDW"> F  </i>
   <i type="int" name="IVDW_NL">     1</i>
   <i type="logical" name="LSPIN_VDW"> F  </i>
   <i name="Zab_VDW">     -0.84910000</i>
   <i name="PARAM1">      0.12340000</i>
   <i name="PARAM2">      1.00000000</i>
   <i name="PARAM3">      0.00000000</i>
  </separator>
  <separator name="model GW" >
   <i type="int" name="MODEL_GW">     0</i>
   <i name="MODEL_EPS0">      6.39733692</i>
   <i name="MODEL_ALPHA">      1.00000000</i>
  </separator>
  <separator name="linear response parameters" >
   <i type="logical" name="LEPSILON"> F  </i>
   <i type="logical" name="LRPA"> F  </i>
   <i type="logical" name="LNABLA"> F  </i>
   <i type="logical" name="LVEL"> F  </i>
   <i name="CSHIFT">      0.10000000</i>
   <i name="OMEGAMAX">     -1.00000000</i>
   <i name="DEG_THRESHOLD">      0.00200000</i>
   <i name="RTIME">     -0.10000000</i>
   <i name="WPLASMAI">      0.00000000</i>
   <v name="DFIELD">      0.00000000      0.00000000      0.00000000</v>
   <v name="WPLASMA">      0.00000000      0.00000000      0.00000000      0.00000000      0.00000000      0.00000000      0.00000000      0.00000000      0.00000000</v>
  </separator>
  <separator name="orbital magnetization" >
   <i type="logical" name="NUCIND"> F  </i>
   <v name="MAGPOS">      0.00000000      0.00000000      0.00000000</v>
   <i type="logical" name="LNICSALL"> T  </i>
   <i type="logical" name="ORBITALMAG"> F  </i>
   <i type="logical" name="LMAGBLOCH"> F  </i>
   <i type="logical" name="LCHIMAG"> F  </i>
   <i type="logical" name="LGAUGE"> T  </i>
   <i type="int" name="MAGATOM">     0</i>
   <v name="MAGDIPOL">      0.00000000      0.00000000      0.00000000</v>
   <v name="AVECCONST">      0.00000000      0.00000000      0.00000000</v>
  </separator>
  <separator name="response functions" >
   <i type="logical" name="LALL_IN_ONE"> F  </i>
   <i type="int" name="IALL_IN_ONE">    -1</i>
   <i type="int" name="NBANDS_WAVE">    -1</i>
   <i type="logical" name="LFINITE_TEMPERATURE"> F  </i>
   <i type="logical" name="LADDER"> F  </i>
   <i type="logical" name="LRPAFORCE"> F  </i>
   <i type="logical" name="LFXC"> F  </i>
   <i type="logical" name="LHARTREE"> T  </i>
   <i type="int" name="IBSE">     0</i>
   <v type="int" name="KPOINT">    -1     0     0     0</v>
   <i type="logical" name="LTCTC"> F  </i>
   <i type="logical" name="LTCTE"> F  </i>
   <i type="logical" name="LTETE"> F  </i>
   <i type="logical" name="LTRIPLET"> F  </i>
   <i type="logical" name="LFXCEPS"> F  </i>
   <i type="logical" name="LFXHEG"> F  </i>
   <i type="int" name="NATURALO">     2</i>
   <i type="logical" name="LHOLEGF"> F  </i>
   <i type="logical" name="L2ORDER"> F  </i>
   <i type="logical" name="LDMP1"> F  </i>
   <i type="logical" name="LMP2LT"> F  </i>
   <i type="logical" name="LSMP2LT"> F  </i>
   <i type="logical" name="LGWLF"> F  </i>
   <i name="ENCUTGW">     -1.60000002</i>
   <i name="ENCUTGWSOFT">     -1.60000002</i>
   <i name="ENCUTLF">     -1.00000000</i>
   <i type="logical" name="LESF_SPLINES"> F  </i>
   <i type="int" name="LMAXMP2">    -1</i>
   <i name="SCISSOR">      0.00000000</i>
   <i type="int" name="NOMEGA">     0</i>
   <i type="int" name="NOMEGAR">     0</i>
   <i type="int" name="NBANDSGW">    -1</i>
   <i type="int" name="NBANDSO">    -1</i>
   <i type="int" name="NBANDSV">    -1</i>
   <i type="int" name="NELMGW">     1</i>
   <i type="int" name="NELMHF">     1</i>
   <i type="int" name="DIM">     3</i>
   <i type="int" name="IESPILON">     4</i>
   <i type="int" name="ANTIRES">     0</i>
   <i name="OMEGAMAX">    -30.00000000</i>
   <i name="OMEGAMIN">    -30.00000000</i>
   <i name="OMEGATL">   -200.00000000</i>
   <i type="int" name="OMEGAGRID">     0</i>
   <i name="CSHIFT">     -0.10000000</i>
   <i type="logical" name="LSELFENERGY"> F  </i>
   <i type="logical" name="LSPECTRAL"> F  </i>
   <i type="logical" name="LSPECTRALGW"> F  </i>
   <i type="logical" name="LSINGLES"> F  </i>
   <i type="logical" name="LFERMIGW"> F  </i>
   <i type="logical" name="ODDONLYGW"> F  </i>
   <i type="logical" name="EVENONLYGW"> F  </i>
   <i type="int" name="NKREDLFX">     1</i>
   <i type="int" name="NKREDLFY">     1</i>
   <i type="int" name="NKREDLFZ">     1</i>
   <i type="int" name="MAXMEM">  2800</i>
   <i type="int" name="TELESCOPE">     0</i>
   <i type="int" name="NTAUPAR">    -1</i>
   <i type="int" name="NOMEGAPAR">    -1</i>
   <i name="DAMP_NEWTON">      0.80000001</i>
   <i name="LAMBDA">      1.00000000</i>
  </separator>
  <separator name="External order field" >
   <i name="OFIELD_KAPPA">      0.00000000</i>
   <v name="OFIELD_K">      0.00000000      0.00000000      0.00000000</v>
   <i name="OFIELD_Q6_NEAR">      0.00000000</i>
   <i name="OFIELD_Q6_FAR">      0.00000000</i>
   <i name="OFIELD_A">      0.00000000</i>
  </separator>
  <separator name="optional k-points parameters" >
   <i type="int" name="KPOINTS_OPT_MODE">     1</i>
   <i type="logical" name="LKPOINTS_OPT"> F  </i>
  </separator>
 </parameters>
 <atominfo>
  <atoms>     119 </atoms>
  <types>       3 </types>
  <array name="atoms" >
   <dimension dim="1">ion</dimension>
   <field type="string">element</field>
   <field type="int">atomtype</field>
   <set>
    <rc><c>Ga</c><c>   1</c></rc>
    <rc><c>Ga</c><c>   1</c></rc>
    <rc><c>Ga</c><c>   1</c></rc>
    <rc><c>Ga</c><c>   1</c></rc>
    <rc><c>Ga</c><c>   1</c></rc>
    <rc><c>Ga</c><c>   1</c></rc>
    <rc><c>Ga</c><c>   1</c></rc>
    <rc><c>Ga</c><c>   1</c></rc>
    <rc><c>Ga</c><c>   1</c></rc>
    <rc><c>Ga</c><c>   1</c></rc>
    <rc><c>Ga</c><c>   1</c></rc>
    <rc><c>Ga</c><c>   1</c></rc>
    <rc><c>Ga</c><c>   1</c></rc>
    <rc><c>Ga</c><c>   1</c></rc>
    <rc><c>Ga</c><c>   1</c></rc>
    <rc><c>Ga</c><c>   1</c></rc>
    <rc><c>Ga</c><c>   1</c></rc>
    <rc><c>Ga</c><c>   1</c></rc>
    <rc><c>Ga</c><c>   1</c></rc>
    <rc><c>Ga</c><c>   1</c></rc>
    <rc><c>Ga</c><c>   1</c></rc>
    <rc><c>Ga</c><c>   1</c></rc>
    <rc><c>Ga</c><c>   1</c></rc>
    <rc><c>Ga</c><c>   1</c></rc>
    <rc><c>Ga</c><c>   1</c></rc>
    <rc><c>Ga</c><c>   1</c></rc>
    <rc><c>Ga</c><c>   1</c></rc>
    <rc><c>Ga</c><c>   1</c></rc>
    <rc><c>Ga</c><c>   1</c></rc>
    <rc><c>Ga</c><c>   1</c></rc>
    <rc><c>Ga</c><c>   1</c></rc>
    <rc><c>Ga</c><c>   1</c></rc>
    <rc><c>Ga</c><c>   1</c></rc>
    <rc><c>Ga</c><c>   1</c></rc>
    <rc><c>Ga</c><c>   1</c></rc>
    <rc><c>Ga</c><c>   1</c></rc>
    <rc><c>Ga</c><c>   1</c></rc>
    <rc><c>Ga</c><c>   1</c></rc>
    <rc><c>Ga</c><c>   1</c></rc>
    <rc><c>Ga</c><c>   1</c></rc>
    <rc><c>Ga</c><c>   1</c></rc>
    <rc><c>Ga</c><c>   1</c></rc>
    <rc><c>Ga</c><c>   1</c></rc>
    <rc><c>Ga</c><c>   1</c></rc>
    <rc><c>Ga</c><c>   1</c></rc>
    <rc><c>Ga</c><c>   1</c></rc>
    <rc><c>Ga</c><c>   1</c></rc>
    <rc><c>O </c><c>   2</c></rc>
    <rc><c>O </c><c>   2</c></rc>
    <rc><c>O </c><c>   2</c></rc>
    <rc><c>O </c><c>   2</c></rc>
    <rc><c>O </c><c>   2</c></rc>
    <rc><c>O </c><c>   2</c></rc>
    <rc><c>O </c><c>   2</c></rc>
    <rc><c>O </c><c>   2</c></rc>
    <rc><c>O </c><c>   2</c></rc>
    <rc><c>O </c><c>   2</c></rc>
    <rc><c>O </c><c>   2</c></rc>
    <rc><c>O </c><c>   2</c></rc>
    <rc><c>O </c><c>   2</c></rc>
    <rc><c>O </c><c>   2</c></rc>
    <rc><c>O </c><c>   2</c></rc>
    <rc><c>O </c><c>   2</c></rc>
    <rc><c>O </c><c>   2</c></rc>
    <rc><c>O </c><c>   2</c></rc>
    <rc><c>O </c><c>   2</c></rc>
    <rc><c>O </c><c>   2</c></rc>
    <rc><c>O </c><c>   2</c></rc>
    <rc><c>O </c><c>   2</c></rc>
    <rc><c>O </c><c>   2</c></rc>
    <rc><c>O </c><c>   2</c></rc>
    <rc><c>O </c><c>   2</c></rc>
    <rc><c>O </c><c>   2</c></rc>
    <rc><c>O </c><c>   2</c></rc>
    <rc><c>O </c><c>   2</c></rc>
    <rc><c>O </c><c>   2</c></rc>
    <rc><c>O </c><c>   2</c></rc>
    <rc><c>O </c><c>   2</c></rc>
    <rc><c>O </c><c>   2</c></rc>
    <rc><c>O </c><c>   2</c></rc>
    <rc><c>O </c><c>   2</c></rc>
    <rc><c>O </c><c>   2</c></rc>
    <rc><c>O </c><c>   2</c></rc>
    <rc><c>O </c><c>   2</c></rc>
    <rc><c>O </c><c>   2</c></rc>
    <rc><c>O </c><c>   2</c></rc>
    <rc><c>O </c><c>   2</c></rc>
    <rc><c>O </c><c>   2</c></rc>
    <rc><c>O </c><c>   2</c></rc>
    <rc><c>O </c><c>   2</c></rc>
    <rc><c>O </c><c>   2</c></rc>
    <rc><c>O </c><c>   2</c></rc>
    <rc><c>O </c><c>   2</c></rc>
    <rc><c>O </c><c>   2</c></rc>
    <rc><c>O </c><c>   2</c></rc>
    <rc><c>O </c><c>   2</c></rc>
    <rc><c>O </c><c>   2</c></rc>
    <rc><c>O </c><c>   2</c></rc>
    <rc><c>O </c><c>   2</c></rc>
    <rc><c>O </c><c>   2</c></rc>
    <rc><c>O </c><c>   2</c></rc>
    <rc><c>O </c><c>   2</c></rc>
    <rc><c>O </c><c>   2</c></rc>
    <rc><c>O </c><c>   2</c></rc>
    <rc><c>O </c><c>   2</c></rc>
    <rc><c>O </c><c>   2</c></rc>
    <rc><c>O </c><c>   2</c></rc>
    <rc><c>O </c><c>   2</c></rc>
    <rc><c>O </c><c>   2</c></rc>
    <rc><c>O </c><c>   2</c></rc>
    <rc><c>O </c><c>   2</c></rc>
    <rc><c>O </c><c>   2</c></rc>
    <rc><c>O </c><c>   2</c></rc>
    <rc><c>O </c><c>   2</c></rc>
    <rc><c>O </c><c>   2</c></rc>
    <rc><c>O </c><c>   2</c></rc>
    <rc><c>O </c><c>   2</c></rc>
    <rc><c>O </c><c>   2</c></rc>
    <rc><c>P </c><c>   3</c></rc>
   </set>
  </array>
  <array name="atomtypes" >
   <dimension dim="1">type</dimension>
   <field type="int">atomspertype</field>
   <field type="string">element</field>
   <field>mass</field>
   <field>valence</field>
   <field type="string">pseudopotential</field>
   <set>
    <rc><c>  47</c><c>Ga</c><c>     69.72300000</c><c>     13.00000000</c><c>  PAW_PBE Ga_d 06Jul2010                </c></rc>
    <rc><c>  71</c><c>O </c><c>     16.00000000</c><c>      6.00000000</c><c>   PAW_PBE O 08Apr2002                  </c></rc>
    <rc><c>   1</c><c>P </c><c>     30.97400000</c><c>      5.00000000</c><c>  PAW_PBE P 06Sep2000                   </c></rc>
   </set>
  </array>
 </atominfo>
 <structure name="initialpos" >
  <crystal>
   <varray name="basis" >
    <v>       0.00000000      12.28047342       0.00000000 </v>
    <v>       9.14270205       0.00000000       0.00000000 </v>
    <v>       0.00000000      -2.76826177     -11.30069772 </v>
   </varray>
   <i name="volume">   1268.80515525 </i>
   <varray name="rec_basis" >
    <v>       0.00000000       0.08143009      -0.01994742 </v>
    <v>       0.10937686      -0.00000000       0.00000000 </v>
    <v>       0.00000000       0.00000000      -0.08849011 </v>
   </varray>
  </crystal>
  <varray name="positions" >
   <v>       0.65957031       0.99933944       0.15873824 </v>
   <v>       0.65924885       0.99797789       0.65653157 </v>
   <v>       0.65805817       0.33127143       0.15983486 </v>
   <v>       0.65890586       0.33114818       0.65722053 </v>
   <v>       0.65996865       0.66686059       0.15897610 </v>
   <v>       0.65894696       0.66462652       0.65785654 </v>
   <v>       0.84623473       0.16246037       0.34569896 </v>
   <v>       0.84020159       0.16449788       0.84219312 </v>
   <v>       0.84184237       0.49941757       0.34511579 </v>
   <v>       0.84082552       0.49963509       0.84283422 </v>
   <v>       0.84551462       0.83372035       0.34600139 </v>
   <v>       0.84036781       0.83246671       0.84363702 </v>
   <v>       0.59048359       0.16262136       0.39788353 </v>
   <v>       0.59144102       0.16474359       0.89941515 </v>
   <v>       0.59393248       0.50089077       0.40020214 </v>
   <v>       0.59256701       0.49782457       0.89981090 </v>
   <v>       0.58903022       0.83396678       0.39763661 </v>
   <v>       0.59051209       0.83146827       0.89916766 </v>
   <v>       0.90991491       0.00596937       0.10365784 </v>
   <v>       0.91111956       0.99758589       0.60241461 </v>
   <v>       0.89881103       0.34808351       0.09949484 </v>
   <v>       0.90965984       0.33109529       0.60402278 </v>
   <v>       0.90863128       0.67594657       0.10327984 </v>
   <v>       0.90946401       0.66502952       0.60371631 </v>
   <v>       0.15976808       0.16066112       0.65408797 </v>
   <v>       0.15657258       0.50741722       0.16126261 </v>
   <v>       0.15928055       0.49789807       0.65850506 </v>
   <v>       0.16119539       0.83348160       0.14963257 </v>
   <v>       0.16014457       0.83283477       0.65278767 </v>
   <v>       0.33097403       0.00176735       0.34497507 </v>
   <v>       0.34012831       0.99774377       0.84552147 </v>
   <v>       0.34720725       0.33122349       0.34384987 </v>
   <v>       0.34132313       0.33017380       0.84501632 </v>
   <v>       0.34085720       0.66549798       0.34553393 </v>
   <v>       0.34083102       0.66375444       0.84433280 </v>
   <v>       0.11785818       0.99170466       0.38066877 </v>
   <v>       0.09184568       0.99161692       0.89678678 </v>
   <v>       0.08589751       0.32650213       0.40174329 </v>
   <v>       0.09054308       0.32355412       0.89809311 </v>
   <v>       0.08947579       0.66722389       0.39871660 </v>
   <v>       0.09064507       0.66065250       0.89567699 </v>
   <v>       0.40676769       0.16445782       0.10620815 </v>
   <v>       0.40922837       0.16504019       0.60472153 </v>
   <v>       0.40944557       0.49905092       0.10351338 </v>
   <v>       0.40750030       0.49714600       0.60225732 </v>
   <v>       0.40870498       0.83310546       0.10395071 </v>
   <v>       0.41063136       0.83074703       0.60528418 </v>
   <v>       0.99472347       0.18303794       0.12313204 </v>
   <v>       0.99731827       0.16500719       0.62898087 </v>
   <v>       0.99407760       0.50703889       0.12654331 </v>
   <v>       0.99677197       0.49811987       0.63042301 </v>
   <v>       0.99975099       0.84111874       0.12980051 </v>
   <v>       0.99754293       0.83053605       0.62934464 </v>
   <v>       0.49943270       0.99875200       0.37527513 </v>
   <v>       0.50320248       0.99851292       0.87454667 </v>
   <v>       0.50795832       0.33386126       0.37604642 </v>
   <v>       0.50407238       0.33179711       0.87479686 </v>
   <v>       0.50324336       0.66475161       0.37249562 </v>
   <v>       0.50385951       0.66363474       0.87503736 </v>
   <v>       0.67408318       0.16499501       0.28238305 </v>
   <v>       0.67234590       0.16411413       0.78116078 </v>
   <v>       0.67411146       0.50013577       0.28231510 </v>
   <v>       0.67261005       0.49848751       0.78122448 </v>
   <v>       0.67377172       0.83370170       0.28244835 </v>
   <v>       0.67235713       0.83179636       0.78166834 </v>
   <v>       0.82914097       0.00152200       0.21977053 </v>
   <v>       0.82790882       0.99724101       0.71973010 </v>
   <v>       0.82753371       0.33340196       0.22182860 </v>
   <v>       0.82784705       0.33082486       0.72053586 </v>
   <v>       0.82872957       0.66859782       0.22112242 </v>
   <v>       0.82791745       0.66412611       0.72097028 </v>
   <v>       0.83106114       0.99846540       0.44712307 </v>
   <v>       0.83368308       0.00051271       0.94773001 </v>
   <v>       0.83648341       0.33040754       0.44641969 </v>
   <v>       0.82851645       0.33322964       0.94355681 </v>
   <v>       0.83353920       0.66557348       0.44700953 </v>
   <v>       0.83206650       0.66683855       0.94690069 </v>
   <v>       0.66913274       0.16600818       0.05599899 </v>
   <v>       0.66811869       0.16475803       0.55481282 </v>
   <v>       0.66983906       0.49840239       0.05693858 </v>
   <v>       0.67093426       0.49847078       0.55622367 </v>
   <v>       0.66862010       0.83266701       0.05567618 </v>
   <v>       0.66677590       0.83071251       0.55467129 </v>
   <v>       0.49654832       0.99900442       0.12883627 </v>
   <v>       0.49668481       0.99861511       0.62890771 </v>
   <v>       0.49602766       0.33185111       0.12867672 </v>
   <v>       0.49676273       0.33198388       0.62838289 </v>
   <v>       0.49649584       0.66588772       0.12956360 </v>
   <v>       0.49665038       0.66244377       0.62830912 </v>
   <v>       0.00890274       0.15454354       0.36934414 </v>
   <v>       0.00293223       0.15901800       0.87486156 </v>
   <v>       0.00415565       0.49773985       0.37334306 </v>
   <v>       0.00505153       0.49194481       0.87832749 </v>
   <v>       0.00685697       0.83595545       0.37414827 </v>
   <v>       0.00209507       0.82641563       0.87277228 </v>
   <v>       0.17289556       0.99673846       0.77970096 </v>
   <v>       0.16086460       0.33373906       0.27352431 </v>
   <v>       0.17283309       0.32943138       0.78316069 </v>
   <v>       0.17224841       0.66596438       0.28116728 </v>
   <v>       0.17285054       0.66368773       0.78032944 </v>
   <v>       0.33462637       0.16939815       0.22923655 </v>
   <v>       0.32805183       0.16484974       0.72187060 </v>
   <v>       0.32462850       0.49580453       0.21900567 </v>
   <v>       0.32765283       0.49651542       0.72092887 </v>
   <v>       0.32477050       0.83346930       0.22098527 </v>
   <v>       0.32851468       0.82998521       0.72136281 </v>
   <v>       0.32973229       0.17201817       0.44902626 </v>
   <v>       0.33125748       0.16537530       0.94865406 </v>
   <v>       0.33079839       0.49570535       0.44446358 </v>
   <v>       0.32938350       0.49644666       0.94780580 </v>
   <v>       0.33488087       0.82847200       0.44895184 </v>
   <v>       0.33339743       0.82978849       0.94704477 </v>
   <v>       0.17262170       0.99075352       0.04938441 </v>
   <v>       0.16790831       0.99744261       0.55238611 </v>
   <v>       0.15652099       0.31661364       0.06622885 </v>
   <v>       0.16746040       0.33174153       0.55577459 </v>
   <v>       0.16780997       0.66136189       0.05300734 </v>
   <v>       0.16903906       0.66250280       0.55451541 </v>
   <v>       0.14009076       0.18706322       0.16553786 </v>
  </varray>
 </structure>
 <calculation>
  <scstep>
   <time name="total">    4.35    4.36</time>
   <energy>
    <i name="alphaZ">   5376.25786726 </i>
    <i name="ewald"> -86817.82309395 </i>
    <i name="hartreedc">  -2073.59936903 </i>
    <i name="XCdc">   2756.17120193 </i>
    <i name="pawpsdc"> 333932.92479511 </i>
    <i name="pawaedc">-362685.04726889 </i>
    <i name="eentropy">     -0.00879313 </i>
    <i name="bandstr"> -40333.32174841 </i>
    <i name="atom"> 131500.23896116 </i>
    <i name="e_fr_energy"> -18344.20744794 </i>
    <i name="e_wo_entrp"> -18344.19865481 </i>
    <i name="e_0_energy"> -18344.20305138 </i>
   </energy>
  </scstep>
  <scstep>
   <time name="total">    3.10    3.10</time>
   <energy>
    <i name="e_fr_energy"> -62821.02412401 </i>
    <i name="e_wo_entrp"> -62821.01021083 </i>
    <i name="e_0_energy"> -62821.01716742 </i>
   </energy>
  </scstep>
  <scstep>
   <time name="total">    3.33    3.33</time>
   <energy>
    <i name="e_fr_energy"> -67854.86794053 </i>
    <i name="e_wo_entrp"> -67854.83367011 </i>
    <i name="e_0_energy"> -67854.85080532 </i>
   </energy>
  </scstep>
  <scstep>
   <time name="total">    3.75    3.75</time>
   <energy>
    <i name="e_fr_energy"> -68559.07501824 </i>
    <i name="e_wo_entrp"> -68559.04103935 </i>
    <i name="e_0_energy"> -68559.05802880 </i>
   </energy>
  </scstep>
  <scstep>
   <time name="total">  231.02  231.01</time>
   <energy>
    <i name="e_fr_energy"> -38962.44226938 </i>
    <i name="e_wo_entrp"> -38962.41450180 </i>
    <i name="e_0_energy"> -38962.42838559 </i>
   </energy>
  </scstep>
  <scstep>
   <time name="total">  459.96  459.94</time>
   <energy>
    <i name="e_fr_energy">  33029.70975356 </i>
    <i name="e_wo_entrp">  33029.72854671 </i>
    <i name="e_0_energy">  33029.71915013 </i>
   </energy>
  </scstep>
  <scstep>
   <time name="total">  460.92  460.90</time>
   <energy>
    <i name="e_fr_energy">  11818.23863581 </i>
    <i name="e_wo_entrp">  11818.27320908 </i>
    <i name="e_0_energy">  11818.25592244 </i>
   </energy>
  </scstep>
  <scstep>
   <time name="total">  460.65  460.67</time>
   <energy>
    <i name="e_fr_energy">   5421.81564372 </i>
    <i name="e_wo_entrp">   5421.84371435 </i>
    <i name="e_0_energy">   5421.82967903 </i>
   </energy>
  </scstep>
  <scstep>
   <time name="total">  459.85  459.87</time>
   <energy>
    <i name="e_fr_energy">   3423.78522167 </i>
    <i name="e_wo_entrp">   3423.79364758 </i>
    <i name="e_0_energy">   3423.78943462 </i>
   </energy>
  </scstep>
  <scstep>
   <time name="total">  459.75  459.77</time>
   <energy>
    <i name="e_fr_energy">   1741.06312888 </i>
    <i name="e_wo_entrp">   1741.08042530 </i>
    <i name="e_0_energy">   1741.07177709 </i>
   </energy>
  </scstep>
  <scstep>
   <time name="total">  459.89  459.91</time>
   <energy>
    <i name="e_fr_energy">    448.87873731 </i>
    <i name="e_wo_entrp">    448.89415467 </i>
    <i name="e_0_energy">    448.88644599 </i>
   </energy>
  </scstep>
  <scstep>
   <time name="total">  459.62  459.61</time>
   <energy>
    <i name="e_fr_energy">   -188.68448068 </i>
    <i name="e_wo_entrp">   -188.67566232 </i>
    <i name="e_0_energy">   -188.68007150 </i>
   </energy>
  </scstep>
  <scstep>
   <time name="total">  459.53  459.54</time>
   <energy>
    <i name="e_fr_energy">   -581.13462249 </i>
    <i name="e_wo_entrp">   -581.12627471 </i>
    <i name="e_0_energy">   -581.13044860 </i>
   </energy>
  </scstep>
  <scstep>
   <time name="total">  459.52  459.52</time>
   <energy>
    <i name="e_fr_energy">   -764.62811420 </i>
    <i name="e_wo_entrp">   -764.62615419 </i>
    <i name="e_0_energy">   -764.62713419 </i>
   </energy>
  </scstep>
  <scstep>
   <time name="total">  459.55  459.59</time>
   <energy>
    <i name="e_fr_energy">   -825.33245638 </i>
    <i name="e_wo_entrp">   -825.32376689 </i>
    <i name="e_0_energy">   -825.32811163 </i>
   </energy>
  </scstep>
  <scstep>
   <time name="total">  459.58  459.59</time>
   <energy>
    <i name="e_fr_energy">   -864.75394415 </i>
    <i name="e_wo_entrp">   -864.74825050 </i>
    <i name="e_0_energy">   -864.75109733 </i>
   </energy>
  </scstep>
  <scstep>
   <time name="total">  459.35  459.35</time>
   <energy>
    <i name="e_fr_energy">   -890.14695522 </i>
    <i name="e_wo_entrp">   -890.14260263 </i>
    <i name="e_0_energy">   -890.14477892 </i>
   </energy>
  </scstep>
  <scstep>
   <time name="total">  459.56  459.59</time>
   <energy>
    <i name="e_fr_energy">   -907.64297056 </i>
    <i name="e_wo_entrp">   -907.63942353 </i>
    <i name="e_0_energy">   -907.64119705 </i>
   </energy>
  </scstep>
  <scstep>
   <time name="total">  459.43  459.44</time>
   <energy>
    <i name="e_fr_energy">   -919.12449250 </i>
    <i name="e_wo_entrp">   -919.11744969 </i>
    <i name="e_0_energy">   -919.12097109 </i>
   </energy>
  </scstep>
  <scstep>
   <time name="total">  459.14  459.19</time>
   <energy>
    <i name="e_fr_energy">   -926.43407098 </i>
    <i name="e_wo_entrp">   -926.42751299 </i>
    <i name="e_0_energy">   -926.43079199 </i>
   </energy>
  </scstep>
  <scstep>
   <time name="total">  459.31  459.33</time>
   <energy>
    <i name="e_fr_energy">   -931.13639945 </i>
    <i name="e_wo_entrp">   -931.12968410 </i>
    <i name="e_0_energy">   -931.13304177 </i>
   </energy>
  </scstep>
  <scstep>
   <time name="total">  459.36  459.38</time>
   <energy>
    <i name="e_fr_energy">   -933.93515858 </i>
    <i name="e_wo_entrp">   -933.92823279 </i>
    <i name="e_0_energy">   -933.93169568 </i>
   </energy>
  </scstep>
  <scstep>
   <time name="total">  459.31  459.34</time>
   <energy>
    <i name="e_fr_energy">   -935.50947770 </i>
    <i name="e_wo_entrp">   -935.50253022 </i>
    <i name="e_0_energy">   -935.50600396 </i>
   </energy>
  </scstep>
  <scstep>
   <time name="total">  459.21  459.21</time>
   <energy>
    <i name="e_fr_energy">   -936.54891559 </i>
    <i name="e_wo_entrp">   -936.54211364 </i>
    <i name="e_0_energy">   -936.54551462 </i>
   </energy>
  </scstep>
  <scstep>
   <time name="total">  459.68  459.71</time>
   <energy>
    <i name="e_fr_energy">   -937.13990035 </i>
    <i name="e_wo_entrp">   -937.13321896 </i>
    <i name="e_0_energy">   -937.13655965 </i>
   </energy>
  </scstep>
  <scstep>
   <time name="total">  459.44  459.43</time>
   <energy>
    <i name="e_fr_energy">   -937.52811136 </i>
    <i name="e_wo_entrp">   -937.52126125 </i>
    <i name="e_0_energy">   -937.52468630 </i>
   </energy>
  </scstep>
  <scstep>
   <time name="total">  459.09  459.09</time>
   <energy>
    <i name="e_fr_energy">   -937.80886554 </i>
    <i name="e_wo_entrp">   -937.80185201 </i>
    <i name="e_0_energy">   -937.80535877 </i>
   </energy>
  </scstep>
  <scstep>
   <time name="total">  459.50  459.52</time>
   <energy>
    <i name="e_fr_energy">   -937.97608644 </i>
    <i name="e_wo_entrp">   -937.96904208 </i>
    <i name="e_0_energy">   -937.97256426 </i>
   </energy>
  </scstep>
  <scstep>
   <time name="total">  459.39  459.40</time>
   <energy>
    <i name="e_fr_energy">   -938.07484224 </i>
    <i name="e_wo_entrp">   -938.06781430 </i>
    <i name="e_0_energy">   -938.07132827 </i>
   </energy>
  </scstep>
  <scstep>
   <time name="total">  459.33  459.31</time>
   <energy>
    <i name="e_fr_energy">   -938.13987921 </i>
    <i name="e_wo_entrp">   -938.13288184 </i>
    <i name="e_0_energy">   -938.13638052 </i>
   </energy>
  </scstep>
  <scstep>
   <time name="total">  459.33  459.34</time>
   <energy>
    <i name="e_fr_energy">   -938.17662744 </i>
    <i name="e_wo_entrp">   -938.16964094 </i>
    <i name="e_0_energy">   -938.17313419 </i>
   </energy>
  </scstep>
  <scstep>
   <time name="total">  459.57  459.59</time>
   <energy>
    <i name="e_fr_energy">   -938.19974071 </i>
    <i name="e_wo_entrp">   -938.19274260 </i>
    <i name="e_0_energy">   -938.19624165 </i>
   </energy>
  </scstep>
  <scstep>
   <time name="total">  459.41  459.40</time>
   <energy>
    <i name="e_fr_energy">   -938.21665873 </i>
    <i name="e_wo_entrp">   -938.20965152 </i>
    <i name="e_0_energy">   -938.21315512 </i>
   </energy>
  </scstep>
  <scstep>
   <time name="total">  459.09  459.11</time>
   <energy>
    <i name="e_fr_energy">   -938.22764009 </i>
    <i name="e_wo_entrp">   -938.22063681 </i>
    <i name="e_0_energy">   -938.22413845 </i>
   </energy>
  </scstep>
  <scstep>
   <time name="total">  459.71  459.70</time>
   <energy>
    <i name="e_fr_energy">   -938.23453028 </i>
    <i name="e_wo_entrp">   -938.22753696 </i>
    <i name="e_0_energy">   -938.23103362 </i>
   </energy>
  </scstep>
  <scstep>
   <time name="total">  459.80  459.79</time>
   <energy>
    <i name="e_fr_energy">   -938.23904324 </i>
    <i name="e_wo_entrp">   -938.23205413 </i>
    <i name="e_0_energy">   -938.23554868 </i>
   </energy>
  </scstep>
  <scstep>
   <time name="total">  459.36  459.36</time>
   <energy>
    <i name="e_fr_energy">   -938.24168553 </i>
    <i name="e_wo_entrp">   -938.23468540 </i>
    <i name="e_0_energy">   -938.23818546 </i>
   </energy>
  </scstep>
  <scstep>
   <time name="total">  459.44  459.43</time>
   <energy>
    <i name="e_fr_energy">   -938.24475973 </i>
    <i name="e_wo_entrp">   -938.23776208 </i>
    <i name="e_0_energy">   -938.24126090 </i>
   </energy>
  </scstep>
  <scstep>
   <time name="total">  459.44  459.45</time>
   <energy>
    <i name="e_fr_energy">   -938.24582159 </i>
    <i name="e_wo_entrp">   -938.23882588 </i>
    <i name="e_0_energy">   -938.24232374 </i>
   </energy>
  </scstep>
  <scstep>
   <time name="total">  459.52  459.53</time>
   <energy>
    <i name="e_fr_energy">   -938.24623535 </i>
    <i name="e_wo_entrp">   -938.23923839 </i>
    <i name="e_0_energy">   -938.24273687 </i>
   </energy>
  </scstep>
  <scstep>
   <time name="total">  459.08  459.10</time>
   <energy>
    <i name="e_fr_energy">   -938.24640517 </i>
    <i name="e_wo_entrp">   -938.23940669 </i>
    <i name="e_0_energy">   -938.24290593 </i>
   </energy>
  </scstep>
  <scstep>
   <time name="total">  459.45  459.46</time>
   <energy>
    <i name="e_fr_energy">   -938.24646430 </i>
    <i name="e_wo_entrp">   -938.23946599 </i>
    <i name="e_0_energy">   -938.24296514 </i>
   </energy>
  </scstep>
  <scstep>
   <time name="total">  459.47  459.45</time>
   <energy>
    <i name="e_fr_energy">   -938.24647996 </i>
    <i name="e_wo_entrp">   -938.23948222 </i>
    <i name="e_0_energy">   -938.24298109 </i>
   </energy>
  </scstep>
  <scstep>
   <time name="total">  684.99  684.99</time>
   <energy>
    <i name="alphaZ">   5376.25786726 </i>
    <i name="ewald"> -86817.82309395 </i>
    <i name="hartreedc"> -33730.89501876 </i>
    <i name="XCdc">   2871.51756859 </i>
    <i name="pawpsdc"> 120238.88024654 </i>
    <i name="pawaedc">-135477.50815366 </i>
    <i name="eentropy">     -0.00699754 </i>
    <i name="bandstr">  -8734.66965599 </i>
    <i name="atom"> 131500.23896116 </i>
    <i name="e_fr_energy">   -938.24648660 </i>
    <i name="e_wo_entrp">   -938.23948905 </i>
    <i name="e_0_energy">   -938.24298782 </i>
   </energy>
  </scstep>
  <structure>
   <crystal>
    <varray name="basis" >
     <v>       0.00000000      12.28047342       0.00000000 </v>
     <v>       9.14270205       0.00000000       0.00000000 </v>
     <v>       0.00000000      -2.76826177     -11.30069772 </v>
    </varray>
    <i name="volume">   1268.80515525 </i>
    <varray name="rec_basis" >
     <v>       0.00000000       0.08143009      -0.01994742 </v>
     <v>       0.10937686      -0.00000000       0.00000000 </v>
     <v>       0.00000000       0.00000000      -0.08849011 </v>
    </varray>
   </crystal>
   <varray name="positions" >
    <v>       0.65957031       0.99933944       0.15873824 </v>
    <v>       0.65924885       0.99797789       0.65653157 </v>
    <v>       0.65805817       0.33127143       0.15983486 </v>
    <v>       0.65890586       0.33114818       0.65722053 </v>
    <v>       0.65996865       0.66686059       0.15897610 </v>
    <v>       0.65894696       0.66462652       0.65785654 </v>
    <v>       0.84623473       0.16246037       0.34569896 </v>
    <v>       0.84020159       0.16449788       0.84219312 </v>
    <v>       0.84184237       0.49941757       0.34511579 </v>
    <v>       0.84082552       0.49963509       0.84283422 </v>
    <v>       0.84551462       0.83372035       0.34600139 </v>
    <v>       0.84036781       0.83246671       0.84363702 </v>
    <v>       0.59048359       0.16262136       0.39788353 </v>
    <v>       0.59144102       0.16474359       0.89941515 </v>
    <v>       0.59393248       0.50089077       0.40020214 </v>
    <v>       0.59256701       0.49782457       0.89981090 </v>
    <v>       0.58903022       0.83396678       0.39763661 </v>
    <v>       0.59051209       0.83146827       0.89916766 </v>
    <v>       0.90991491       0.00596937       0.10365784 </v>
    <v>       0.91111956       0.99758589       0.60241461 </v>
    <v>       0.89881103       0.34808351       0.09949484 </v>
    <v>       0.90965984       0.33109529       0.60402278 </v>
    <v>       0.90863128       0.67594657       0.10327984 </v>
    <v>       0.90946401       0.66502952       0.60371631 </v>
    <v>       0.15976808       0.16066112       0.65408797 </v>
    <v>       0.15657258       0.50741722       0.16126261 </v>
    <v>       0.15928055       0.49789807       0.65850506 </v>
    <v>       0.16119539       0.83348160       0.14963257 </v>
    <v>       0.16014457       0.83283477       0.65278767 </v>
    <v>       0.33097403       0.00176735       0.34497507 </v>
    <v>       0.34012831       0.99774377       0.84552147 </v>
    <v>       0.34720725       0.33122349       0.34384987 </v>
    <v>       0.34132313       0.33017380       0.84501632 </v>
    <v>       0.34085720       0.66549798       0.34553393 </v>
    <v>       0.34083102       0.66375444       0.84433280 </v>
    <v>       0.11785818       0.99170466       0.38066877 </v>
    <v>       0.09184568       0.99161692       0.89678678 </v>
    <v>       0.08589751       0.32650213       0.40174329 </v>
    <v>       0.09054308       0.32355412       0.89809311 </v>
    <v>       0.08947579       0.66722389       0.39871660 </v>
    <v>       0.09064507       0.66065250       0.89567699 </v>
    <v>       0.40676769       0.16445782       0.10620815 </v>
    <v>       0.40922837       0.16504019       0.60472153 </v>
    <v>       0.40944557       0.49905092       0.10351338 </v>
    <v>       0.40750030       0.49714600       0.60225732 </v>
    <v>       0.40870498       0.83310546       0.10395071 </v>
    <v>       0.41063136       0.83074703       0.60528418 </v>
    <v>       0.99472347       0.18303794       0.12313204 </v>
    <v>       0.99731827       0.16500719       0.62898087 </v>
    <v>       0.99407760       0.50703889       0.12654331 </v>
    <v>       0.99677197       0.49811987       0.63042301 </v>
    <v>       0.99975099       0.84111874       0.12980051 </v>
    <v>       0.99754293       0.83053605       0.62934464 </v>
    <v>       0.49943270       0.99875200       0.37527513 </v>
    <v>       0.50320248       0.99851292       0.87454667 </v>
    <v>       0.50795832       0.33386126       0.37604642 </v>
    <v>       0.50407238       0.33179711       0.87479686 </v>
    <v>       0.50324336       0.66475161       0.37249562 </v>
    <v>       0.50385951       0.66363474       0.87503736 </v>
    <v>       0.67408318       0.16499501       0.28238305 </v>
    <v>       0.67234590       0.16411413       0.78116078 </v>
    <v>       0.67411146       0.50013577       0.28231510 </v>
    <v>       0.67261005       0.49848751       0.78122448 </v>
    <v>       0.67377172       0.83370170       0.28244835 </v>
    <v>       0.67235713       0.83179636       0.78166834 </v>
    <v>       0.82914097       0.00152200       0.21977053 </v>
    <v>       0.82790882       0.99724101       0.71973010 </v>
    <v>       0.82753371       0.33340196       0.22182860 </v>
    <v>       0.82784705       0.33082486       0.72053586 </v>
    <v>       0.82872957       0.66859782       0.22112242 </v>
    <v>       0.82791745       0.66412611       0.72097028 </v>
    <v>       0.83106114       0.99846540       0.44712307 </v>
    <v>       0.83368308       0.00051271       0.94773001 </v>
    <v>       0.83648341       0.33040754       0.44641969 </v>
    <v>       0.82851645       0.33322964       0.94355681 </v>
    <v>       0.83353920       0.66557348       0.44700953 </v>
    <v>       0.83206650       0.66683855       0.94690069 </v>
    <v>       0.66913274       0.16600818       0.05599899 </v>
    <v>       0.66811869       0.16475803       0.55481282 </v>
    <v>       0.66983906       0.49840239       0.05693858 </v>
    <v>       0.67093426       0.49847078       0.55622367 </v>
    <v>       0.66862010       0.83266701       0.05567618 </v>
    <v>       0.66677590       0.83071251       0.55467129 </v>
    <v>       0.49654832       0.99900442       0.12883627 </v>
    <v>       0.49668481       0.99861511       0.62890771 </v>
    <v>       0.49602766       0.33185111       0.12867672 </v>
    <v>       0.49676273       0.33198388       0.62838289 </v>
    <v>       0.49649584       0.66588772       0.12956360 </v>
    <v>       0.49665038       0.66244377       0.62830912 </v>
    <v>       0.00890274       0.15454354       0.36934414 </v>
    <v>       0.00293223       0.15901800       0.87486156 </v>
    <v>       0.00415565       0.49773985       0.37334306 </v>
    <v>       0.00505153       0.49194481       0.87832749 </v>
    <v>       0.00685697       0.83595545       0.37414827 </v>
    <v>       0.00209507       0.82641563       0.87277228 </v>
    <v>       0.17289556       0.99673846       0.77970096 </v>
    <v>       0.16086460       0.33373906       0.27352431 </v>
    <v>       0.17283309       0.32943138       0.78316069 </v>
    <v>       0.17224841       0.66596438       0.28116728 </v>
    <v>       0.17285054       0.66368773       0.78032944 </v>
    <v>       0.33462637       0.16939815       0.22923655 </v>
    <v>       0.32805183       0.16484974       0.72187060 </v>
    <v>       0.32462850       0.49580453       0.21900567 </v>
    <v>       0.32765283       0.49651542       0.72092887 </v>
    <v>       0.32477050       0.83346930       0.22098527 </v>
    <v>       0.32851468       0.82998521       0.72136281 </v>
    <v>       0.32973229       0.17201817       0.44902626 </v>
    <v>       0.33125748       0.16537530       0.94865406 </v>
    <v>       0.33079839       0.49570535       0.44446358 </v>
    <v>       0.32938350       0.49644666       0.94780580 </v>
    <v>       0.33488087       0.82847200       0.44895184 </v>
    <v>       0.33339743       0.82978849       0.94704477 </v>
    <v>       0.17262170       0.99075352       0.04938441 </v>
    <v>       0.16790831       0.99744261       0.55238611 </v>
    <v>       0.15652099       0.31661364       0.06622885 </v>
    <v>       0.16746040       0.33174153       0.55577459 </v>
    <v>       0.16780997       0.66136189       0.05300734 </v>
    <v>       0.16903906       0.66250280       0.55451541 </v>
    <v>       0.14009076       0.18706322       0.16553786 </v>
   </varray>
  </structure>
  <varray name="forces" >
   <v>       0.00155526       0.05960874       0.00422413 </v>
   <v>       0.00707132       0.05955114       0.01335742 </v>
   <v>      -0.01900955       0.04937953       0.01611525 </v>
   <v>      -0.00344608       0.05803719       0.01347010 </v>
   <v>       0.00706293       0.06934952       0.00607237 </v>
   <v>      -0.00802179       0.05994253       0.01254174 </v>
   <v>      -0.06432408      -0.07090273      -0.02071244 </v>
   <v>      -0.01442243      -0.07583615       0.00393092 </v>
   <v>      -0.00903778      -0.07726043      -0.01598666 </v>
   <v>      -0.01099519      -0.10339633       0.00958787 </v>
   <v>       0.01316651      -0.03211218      -0.04347309 </v>
   <v>      -0.01022748      -0.05317999       0.00410501 </v>
   <v>       0.03449781      -0.02405209       0.00068919 </v>
   <v>      -0.00113698      -0.03303066       0.01181273 </v>
   <v>      -0.03781824      -0.02889038       0.02054950 </v>
   <v>       0.00119721      -0.03698651       0.02574449 </v>
   <v>      -0.00408090      -0.03074851      -0.00036624 </v>
   <v>       0.00701044      -0.02214965       0.00651368 </v>
   <v>      -0.10129716      -0.05641055       0.01734306 </v>
   <v>      -0.00056636       0.03150461       0.00140468 </v>
   <v>      -0.02020581       0.05778240      -0.00972113 </v>
   <v>      -0.01336128       0.02299297      -0.02550470 </v>
   <v>      -0.05268697       0.01440260      -0.00984187 </v>
   <v>       0.01318965       0.02786541      -0.02221938 </v>
   <v>      -0.06176318       0.06429885       0.03833780 </v>
   <v>       0.13963815       0.03474161      -0.08199900 </v>
   <v>       0.01732472       0.08233229       0.00809152 </v>
   <v>      -0.04251385       0.17510189       0.23513142 </v>
   <v>       0.04831062       0.06161736       0.03978904 </v>
   <v>       0.03569037       0.14757257      -0.05921875 </v>
   <v>      -0.00995467      -0.08223635      -0.01747751 </v>
   <v>      -0.10696126       0.08921038      -0.02504850 </v>
   <v>      -0.02610098      -0.07422517      -0.00698465 </v>
   <v>       0.06553492      -0.07495157      -0.06097421 </v>
   <v>       0.03218861      -0.07397473      -0.00733390 </v>
   <v>      -0.04867090      -0.38794479      -0.39407606 </v>
   <v>       0.00120155       0.04533113      -0.07919909 </v>
   <v>      -0.02120261      -0.02853952      -0.01374697 </v>
   <v>      -0.02756371      -0.11723397       0.14490799 </v>
   <v>       0.04255361       0.00460218      -0.00192404 </v>
   <v>       0.02562304      -0.01037330       0.00450801 </v>
   <v>      -0.00297513       0.01230743      -0.05899315 </v>
   <v>       0.01996585       0.00607060       0.00754398 </v>
   <v>      -0.02182757       0.02305962      -0.00372045 </v>
   <v>      -0.00790975       0.03922898      -0.03873394 </v>
   <v>       0.00966967       0.01760294       0.00332657 </v>
   <v>      -0.00304086       0.00677387       0.02972583 </v>
   <v>       0.08149165       0.18809509      -0.05810662 </v>
   <v>       0.00580750      -0.17962914       0.13084976 </v>
   <v>      -0.01357698      -0.19432546       0.10288317 </v>
   <v>      -0.00391798      -0.16394063       0.13751096 </v>
   <v>      -0.02329721      -0.19023810       0.13961263 </v>
   <v>      -0.00428350      -0.18771929       0.14084150 </v>
   <v>      -0.00474883       0.30876642      -0.11998716 </v>
   <v>      -0.00634736       0.18199929      -0.11187714 </v>
   <v>       0.00939140       0.13554661      -0.09486942 </v>
   <v>      -0.00262325       0.17210573      -0.11138177 </v>
   <v>      -0.00491802       0.16717300      -0.12593018 </v>
   <v>       0.00784757       0.17701956      -0.10815484 </v>
   <v>       0.00100359      -0.08575912      -0.07041343 </v>
   <v>       0.00908725      -0.01739322      -0.10543384 </v>
   <v>      -0.00068445      -0.02510280      -0.12448792 </v>
   <v>       0.01043339      -0.02054720      -0.11158563 </v>
   <v>      -0.00535936      -0.07589463      -0.07388788 </v>
   <v>      -0.00753066      -0.02134856      -0.10624213 </v>
   <v>       0.03231852       0.07330584       0.12155677 </v>
   <v>       0.00345564       0.01687812       0.08126633 </v>
   <v>       0.05432069       0.07953820       0.18387042 </v>
   <v>      -0.00649573       0.04747314       0.10632449 </v>
   <v>       0.01894853       0.06126431       0.12382458 </v>
   <v>      -0.02211183       0.03934883       0.09295102 </v>
   <v>      -0.00183655       0.44648598      -0.05933075 </v>
   <v>       0.02025983       0.38054771      -0.09246726 </v>
   <v>       0.00993557       0.38117842      -0.08148889 </v>
   <v>       0.06370699       0.39042136      -0.15113666 </v>
   <v>      -0.02614093       0.40452351      -0.07850657 </v>
   <v>       0.03084848       0.39102169      -0.08972660 </v>
   <v>      -0.00255632      -0.39005078       0.06351097 </v>
   <v>      -0.00773788      -0.39702343       0.05253698 </v>
   <v>      -0.00125989      -0.38195182       0.07457906 </v>
   <v>       0.01385710      -0.41664265       0.08263725 </v>
   <v>      -0.01440358      -0.39159808       0.05854887 </v>
   <v>       0.01354102      -0.39138573       0.05651698 </v>
   <v>      -0.02023420      -0.16910300       0.10096507 </v>
   <v>      -0.00474391      -0.16338911       0.10777811 </v>
   <v>       0.03994745      -0.13369498       0.09179823 </v>
   <v>       0.00192110      -0.16163853       0.11558935 </v>
   <v>      -0.01623642      -0.16811361       0.11761331 </v>
   <v>       0.01574560      -0.16371133       0.11042563 </v>
   <v>       0.28582780       0.09544850      -0.07090517 </v>
   <v>       0.07734235       0.17888294      -0.08552222 </v>
   <v>      -0.02007728       0.12606866      -0.12697521 </v>
   <v>       0.01157416       0.18813999      -0.05473169 </v>
   <v>      -0.23970975       0.08908137      -0.03997551 </v>
   <v>       0.00075056       0.17105683      -0.09937513 </v>
   <v>      -0.00135971      -0.02275916      -0.10851050 </v>
   <v>      -0.26899259      -0.12244035       0.28617881 </v>
   <v>       0.02179229      -0.07522242      -0.17547302 </v>
   <v>      -0.13960557      -0.03252533      -0.05232068 </v>
   <v>      -0.06046284      -0.05519081      -0.13410436 </v>
   <v>       0.08176419       0.29636531      -0.04429983 </v>
   <v>       0.00677821       0.04178961       0.12099387 </v>
   <v>      -0.00470038       0.01905784       0.09395906 </v>
   <v>       0.01019801       0.02880062       0.11843469 </v>
   <v>      -0.04507977      -0.00231488       0.16004589 </v>
   <v>      -0.00493270       0.05050016       0.13492164 </v>
   <v>       0.00304613       0.42820337      -0.10647885 </v>
   <v>       0.01740330       0.39538180      -0.05924156 </v>
   <v>       0.01001944       0.41532631      -0.05483313 </v>
   <v>       0.00331995       0.41519641      -0.08776057 </v>
   <v>      -0.06668173       0.39738307      -0.13144512 </v>
   <v>       0.00372168       0.38222996      -0.07057642 </v>
   <v>      -0.44418689      -0.43405483       0.32695514 </v>
   <v>      -0.01384677      -0.26809303      -0.12538974 </v>
   <v>      -0.33632065      -0.41542353      -0.25605424 </v>
   <v>      -0.01813395      -0.42406685       0.09649125 </v>
   <v>      -0.02171985      -0.41274275       0.01297655 </v>
   <v>       0.02683218      -0.41397892       0.06702761 </v>
   <v>       1.11128652      -0.41842427       0.26544312 </v>
  </varray>
  <varray name="stress" >
   <v>     -27.28826841      -2.34711352      -0.50800380 </v>
   <v>      -2.34711304     -28.84054377      -0.08836572 </v>
   <v>      -0.50800349      -0.08836486     -21.66178713 </v>
  </varray>
  <energy>
   <i name="e_fr_energy">   -938.24648660 </i>
   <i name="e_wo_entrp">   -938.23948905 </i>
   <i name="e_0_energy">   -938.24298782 </i>
  </energy>
  <time name="totalsc">18965.7918968.42</time>
  <eigenvalues>
   <array>
    <dimension dim="1">band</dimension>
    <dimension dim="2">kpoint</dimension>
    <dimension dim="3">spin</dimension>
    <field>eigene</field>
    <field>occ</field>
    <set>
     <set comment="spin 1">
      <set comment="kpoint 1">
       <r>  -19.7519    1.0000 </r>
       <r>  -18.6157    1.0000 </r>
       <r>  -18.5601    1.0000 </r>
       <r>  -18.3760    1.0000 </r>
       <r>  -18.2744    1.0000 </r>
       <r>  -18.1607    1.0000 </r>
       <r>  -18.1085    1.0000 </r>
       <r>  -18.0037    1.0000 </r>
       <r>  -17.9404    1.0000 </r>
       <r>  -17.9197    1.0000 </r>
       <r>  -17.8659    1.0000 </r>
       <r>  -17.8146    1.0000 </r>
       <r>  -17.7937    1.0000 </r>
       <r>  -17.7537    1.0000 </r>
       <r>  -17.7290    1.0000 </r>
       <r>  -17.7002    1.0000 </r>
       <r>  -17.6772    1.0000 </r>
       <r>  -17.6704    1.0000 </r>
       <r>  -17.6377    1.0000 </r>
       <r>  -17.6100    1.0000 </r>
       <r>  -17.5684    1.0000 </r>
       <r>  -17.5383    1.0000 </r>
       <r>  -17.5173    1.0000 </r>
       <r>  -17.5089    1.0000 </r>
       <r>  -17.4798    1.0000 </r>
       <r>  -17.4707    1.0000 </r>
       <r>  -17.4619    1.0000 </r>
       <r>  -17.4353    1.0000 </r>
       <r>  -17.4222    1.0000 </r>
       <r>  -17.3659    1.0000 </r>
       <r>  -17.3500    1.0000 </r>
       <r>  -17.3374    1.0000 </r>
       <r>  -17.3264    1.0000 </r>
       <r>  -17.3053    1.0000 </r>
       <r>  -17.2987    1.0000 </r>
       <r>  -17.2810    1.0000 </r>
       <r>  -17.2651    1.0000 </r>
       <r>  -17.2486    1.0000 </r>
       <r>  -17.2071    1.0000 </r>
       <r>  -17.1950    1.0000 </r>
       <r>  -17.1794    1.0000 </r>
       <r>  -17.1623    1.0000 </r>
       <r>  -17.1593    1.0000 </r>
       <r>  -17.1406    1.0000 </r>
       <r>  -17.1133    1.0000 </r>
       <r>  -17.1023    1.0000 </r>
       <r>  -17.0846    1.0000 </r>
       <r>  -17.0763    1.0000 </r>
       <r>  -17.0657    1.0000 </r>
       <r>  -17.0405    1.0000 </r>
       <r>  -17.0172    1.0000 </r>
       <r>  -16.9924    1.0000 </r>
       <r>  -16.9806    1.0000 </r>
       <r>  -16.9740    1.0000 </r>
       <r>  -16.9548    1.0000 </r>
       <r>  -16.9281    1.0000 </r>
       <r>  -16.9136    1.0000 </r>
       <r>  -16.9115    1.0000 </r>
       <r>  -16.9014    1.0000 </r>
       <r>  -16.8924    1.0000 </r>
       <r>  -16.8832    1.0000 </r>
       <r>  -16.8787    1.0000 </r>
       <r>  -16.8631    1.0000 </r>
       <r>  -16.8435    1.0000 </r>
       <r>  -16.8368    1.0000 </r>
       <r>  -16.8256    1.0000 </r>
       <r>  -16.7844    1.0000 </r>
       <r>  -16.7635    1.0000 </r>
       <r>  -16.7272    1.0000 </r>
       <r>  -16.3346    1.0000 </r>
       <r>  -16.3266    1.0000 </r>
       <r>  -13.3250    1.0000 </r>
       <r>  -13.2787    1.0000 </r>
       <r>  -13.2626    1.0000 </r>
       <r>  -13.2275    1.0000 </r>
       <r>  -13.2124    1.0000 </r>
       <r>  -13.1799    1.0000 </r>
       <r>  -13.1701    1.0000 </r>
       <r>  -13.1688    1.0000 </r>
       <r>  -13.1538    1.0000 </r>
       <r>  -13.1489    1.0000 </r>
       <r>  -13.1365    1.0000 </r>
       <r>  -13.1235    1.0000 </r>
       <r>  -13.1173    1.0000 </r>
       <r>  -13.0864    1.0000 </r>
       <r>  -13.0694    1.0000 </r>
       <r>  -13.0585    1.0000 </r>
       <r>  -13.0526    1.0000 </r>
       <r>  -13.0389    1.0000 </r>
       <r>  -13.0199    1.0000 </r>
       <r>  -13.0153    1.0000 </r>
       <r>  -13.0097    1.0000 </r>
       <r>  -12.9984    1.0000 </r>
       <r>  -12.9953    1.0000 </r>
       <r>  -12.9917    1.0000 </r>
       <r>  -12.9888    1.0000 </r>
       <r>  -12.9871    1.0000 </r>
       <r>  -12.9811    1.0000 </r>
       <r>  -12.9801    1.0000 </r>
       <r>  -12.9790    1.0000 </r>
       <r>  -12.9679    1.0000 </r>
       <r>  -12.9636    1.0000 </r>
       <r>  -12.9565    1.0000 </r>
       <r>  -12.9488    1.0000 </r>
       <r>  -12.9440    1.0000 </r>
       <r>  -12.9416    1.0000 </r>
       <r>  -12.9323    1.0000 </r>
       <r>  -12.9286    1.0000 </r>
       <r>  -12.9273    1.0000 </r>
       <r>  -12.9216    1.0000 </r>
       <r>  -12.9189    1.0000 </r>
       <r>  -12.9164    1.0000 </r>
       <r>  -12.9122    1.0000 </r>
       <r>  -12.9102    1.0000 </r>
       <r>  -12.9048    1.0000 </r>
       <r>  -12.9012    1.0000 </r>
       <r>  -12.8997    1.0000 </r>
       <r>  -12.8973    1.0000 </r>
       <r>  -12.8935    1.0000 </r>
       <r>  -12.8920    1.0000 </r>
       <r>  -12.8894    1.0000 </r>
       <r>  -12.8870    1.0000 </r>
       <r>  -12.8844    1.0000 </r>
       <r>  -12.8812    1.0000 </r>
       <r>  -12.8788    1.0000 </r>
       <r>  -12.8742    1.0000 </r>
       <r>  -12.8736    1.0000 </r>
       <r>  -12.8713    1.0000 </r>
       <r>  -12.8645    1.0000 </r>
       <r>  -12.8639    1.0000 </r>
       <r>  -12.8621    1.0000 </r>
       <r>  -12.8598    1.0000 </r>
       <r>  -12.8550    1.0000 </r>
       <r>  -12.8517    1.0000 </r>
       <r>  -12.8509    1.0000 </r>
       <r>  -12.8466    1.0000 </r>
       <r>  -12.8421    1.0000 </r>
       <r>  -12.8382    1.0000 </r>
       <r>  -12.8365    1.0000 </r>
       <r>  -12.8320    1.0000 </r>
       <r>  -12.8314    1.0000 </r>
       <r>  -12.8259    1.0000 </r>
       <r>  -12.8236    1.0000 </r>
       <r>  -12.8219    1.0000 </r>
       <r>  -12.8182    1.0000 </r>
       <r>  -12.8086    1.0000 </r>
       <r>  -12.8066    1.0000 </r>
       <r>  -12.8021    1.0000 </r>
       <r>  -12.8012    1.0000 </r>
       <r>  -12.7982    1.0000 </r>
       <r>  -12.7937    1.0000 </r>
       <r>  -12.7908    1.0000 </r>
       <r>  -12.7877    1.0000 </r>
       <r>  -12.7856    1.0000 </r>
       <r>  -12.7798    1.0000 </r>
       <r>  -12.7752    1.0000 </r>
       <r>  -12.7729    1.0000 </r>
       <r>  -12.7686    1.0000 </r>
       <r>  -12.7658    1.0000 </r>
       <r>  -12.7605    1.0000 </r>
       <r>  -12.7591    1.0000 </r>
       <r>  -12.7570    1.0000 </r>
       <r>  -12.7545    1.0000 </r>
       <r>  -12.7518    1.0000 </r>
       <r>  -12.7487    1.0000 </r>
       <r>  -12.7476    1.0000 </r>
       <r>  -12.7428    1.0000 </r>
       <r>  -12.7411    1.0000 </r>
       <r>  -12.7404    1.0000 </r>
       <r>  -12.7352    1.0000 </r>
       <r>  -12.7323    1.0000 </r>
       <r>  -12.7297    1.0000 </r>
       <r>  -12.7283    1.0000 </r>
       <r>  -12.7242    1.0000 </r>
       <r>  -12.7221    1.0000 </r>
       <r>  -12.7206    1.0000 </r>
       <r>  -12.7168    1.0000 </r>
       <r>  -12.7163    1.0000 </r>
       <r>  -12.7127    1.0000 </r>
       <r>  -12.7091    1.0000 </r>
       <r>  -12.7068    1.0000 </r>
       <r>  -12.7048    1.0000 </r>
       <r>  -12.7023    1.0000 </r>
       <r>  -12.6964    1.0000 </r>
       <r>  -12.6942    1.0000 </r>
       <r>  -12.6919    1.0000 </r>
       <r>  -12.6887    1.0000 </r>
       <r>  -12.6855    1.0000 </r>
       <r>  -12.6819    1.0000 </r>
       <r>  -12.6769    1.0000 </r>
       <r>  -12.6733    1.0000 </r>
       <r>  -12.6695    1.0000 </r>
       <r>  -12.6658    1.0000 </r>
       <r>  -12.6647    1.0000 </r>
       <r>  -12.6603    1.0000 </r>
       <r>  -12.6566    1.0000 </r>
       <r>  -12.6555    1.0000 </r>
       <r>  -12.6500    1.0000 </r>
       <r>  -12.6440    1.0000 </r>
       <r>  -12.6427    1.0000 </r>
       <r>  -12.6418    1.0000 </r>
       <r>  -12.6402    1.0000 </r>
       <r>  -12.6357    1.0000 </r>
       <r>  -12.6300    1.0000 </r>
       <r>  -12.6280    1.0000 </r>
       <r>  -12.6251    1.0000 </r>
       <r>  -12.6236    1.0000 </r>
       <r>  -12.6223    1.0000 </r>
       <r>  -12.6196    1.0000 </r>
       <r>  -12.6157    1.0000 </r>
       <r>  -12.6123    1.0000 </r>
       <r>  -12.6115    1.0000 </r>
       <r>  -12.6096    1.0000 </r>
       <r>  -12.6086    1.0000 </r>
       <r>  -12.6073    1.0000 </r>
       <r>  -12.6036    1.0000 </r>
       <r>  -12.6007    1.0000 </r>
       <r>  -12.5980    1.0000 </r>
       <r>  -12.5945    1.0000 </r>
       <r>  -12.5941    1.0000 </r>
       <r>  -12.5900    1.0000 </r>
       <r>  -12.5897    1.0000 </r>
       <r>  -12.5881    1.0000 </r>
       <r>  -12.5833    1.0000 </r>
       <r>  -12.5804    1.0000 </r>
       <r>  -12.5788    1.0000 </r>
       <r>  -12.5753    1.0000 </r>
       <r>  -12.5737    1.0000 </r>
       <r>  -12.5710    1.0000 </r>
       <r>  -12.5676    1.0000 </r>
       <r>  -12.5653    1.0000 </r>
       <r>  -12.5631    1.0000 </r>
       <r>  -12.5615    1.0000 </r>
       <r>  -12.5571    1.0000 </r>
       <r>  -12.5545    1.0000 </r>
       <r>  -12.5519    1.0000 </r>
       <r>  -12.5475    1.0000 </r>
       <r>  -12.5419    1.0000 </r>
       <r>  -12.5395    1.0000 </r>
       <r>  -12.5335    1.0000 </r>
       <r>  -12.5292    1.0000 </r>
[...]
       <r>   -13.3447     4.5106   142.6102 </r>
       <r>   -13.2094    68.4586   151.8710 </r>
       <r>   -13.0742   142.4644   171.1432 </r>
       <r>   -12.9389   320.7250   214.5299 </r>
       <r>   -12.8036   603.4045   296.1565 </r>
       <r>   -12.6683   660.2288   385.4702 </r>
       <r>   -12.5330   676.3281   476.9617 </r>
       <r>   -12.3978   332.2055   521.9014 </r>
       <r>   -12.2625   137.2208   540.4642 </r>
       <r>   -12.1272   106.3389   554.8494 </r>
       <r>   -11.9919   108.9220   569.5840 </r>
       <r>   -11.8567   128.4113   586.9551 </r>
       <r>   -11.7214   119.3470   603.1000 </r>
       <r>   -11.5861    49.6440   609.8157 </r>
       <r>   -11.4508    15.9097   611.9679 </r>
       <r>   -11.3156     0.2373   612.0000 </r>
       <r>   -11.1803     0.0000   612.0000 </r>
       <r>   -11.0450     0.0000   612.0000 </r>
       <r>   -10.9097     0.0000   612.0000 </r>
       <r>   -10.7744     0.0000   612.0000 </r>
       <r>   -10.6392     0.0000   612.0000 </r>
       <r>   -10.5039     0.0000   612.0000 </r>
       <r>   -10.3686     0.0000   612.0000 </r>
       <r>   -10.2333     0.0000   612.0000 </r>
       <r>   -10.0981     0.0000   612.0000 </r>
       <r>    -9.9628     0.0000   612.0000 </r>
       <r>    -9.8275     0.0000   612.0000 </r>
       <r>    -9.6922     0.0000   612.0000 </r>
       <r>    -9.5570     0.0000   612.0000 </r>
       <r>    -9.4217     0.0000   612.0000 </r>
       <r>    -9.2864     0.0000   612.0000 </r>
       <r>    -9.1511     0.0000   612.0000 </r>
       <r>    -9.0158     0.0000   612.0000 </r>
       <r>    -8.8806     0.0000   612.0000 </r>
       <r>    -8.7453     0.0000   612.0000 </r>
       <r>    -8.6100     0.0000   612.0000 </r>
       <r>    -8.4747     0.0000   612.0000 </r>
       <r>    -8.3395     0.0000   612.0000 </r>
       <r>    -8.2042     0.0000   612.0000 </r>
       <r>    -8.0689     0.0000   612.0000 </r>
       <r>    -7.9336     0.0000   612.0000 </r>
       <r>    -7.7984     0.0000   612.0000 </r>
       <r>    -7.6631     0.0000   612.0000 </r>
       <r>    -7.5278     3.2665   612.4419 </r>
       <r>    -7.3925    11.4996   613.9975 </r>
       <r>    -7.2572     0.0184   614.0000 </r>
       <r>    -7.1220     0.0000   614.0000 </r>
       <r>    -6.9867     0.0000   614.0000 </r>
       <r>    -6.8514     0.0000   614.0000 </r>
       <r>    -6.7161     0.0000   614.0000 </r>
       <r>    -6.5809     0.0000   614.0000 </r>
       <r>    -6.4456     0.0000   614.0000 </r>
       <r>    -6.3103     0.0000   614.0000 </r>
       <r>    -6.1750     0.0000   614.0000 </r>
       <r>    -6.0398     0.0000   614.0000 </r>
       <r>    -5.9045     0.0000   614.0000 </r>
       <r>    -5.7692     0.0000   614.0000 </r>
       <r>    -5.6339     0.0000   614.0000 </r>
       <r>    -5.4986     0.0000   614.0000 </r>
       <r>    -5.3634     0.0000   614.0000 </r>
       <r>    -5.2281     0.3164   614.0428 </r>
       <r>    -5.0928    10.4147   615.4517 </r>
       <r>    -4.9575    20.8520   618.2725 </r>
       <r>    -4.8223    25.2895   621.6936 </r>
       <r>    -4.6870    26.5860   625.2900 </r>
       <r>    -4.5517    33.6983   629.8486 </r>
       <r>    -4.4164    37.6964   634.9481 </r>
       <r>    -4.2812    43.9191   640.8893 </r>
       <r>    -4.1459    50.4455   647.7134 </r>
       <r>    -4.0106    45.8237   653.9123 </r>
       <r>    -3.8753    46.6144   660.2182 </r>
       <r>    -3.7400    50.1791   667.0062 </r>
       <r>    -3.6048    43.3036   672.8642 </r>
       <r>    -3.4695    28.4913   676.7184 </r>
       <r>    -3.3342    32.8474   681.1619 </r>
       <r>    -3.1989    35.9584   686.0262 </r>
       <r>    -3.0637    37.2042   691.0591 </r>
       <r>    -2.9284    34.6466   695.7460 </r>
       <r>    -2.7931    40.1142   701.1725 </r>
       <r>    -2.6578    32.5119   705.5706 </r>
       <r>    -2.5226    36.4747   710.5048 </r>
       <r>    -2.3873    35.9392   715.3665 </r>
       <r>    -2.2520    43.2906   721.2228 </r>
       <r>    -2.1167    44.0811   727.1859 </r>
       <r>    -1.9814    40.6271   732.6818 </r>
       <r>    -1.8462    48.1489   739.1952 </r>
       <r>    -1.7109    63.7388   747.8176 </r>
       <r>    -1.5756    65.0846   756.6221 </r>
       <r>    -1.4403    57.6874   764.4258 </r>
       <r>    -1.3051    62.3361   772.8585 </r>
       <r>    -1.1698    60.1623   780.9970 </r>
       <r>    -1.0345    46.7363   787.3194 </r>
       <r>    -0.8992    58.3599   795.2141 </r>
       <r>    -0.7640    74.2301   805.2557 </r>
       <r>    -0.6287    65.3845   814.1007 </r>
       <r>    -0.4934    75.6453   824.3338 </r>
       <r>    -0.3581    62.0472   832.7273 </r>
       <r>    -0.2229    67.2034   841.8184 </r>
       <r>    -0.0876    67.5479   850.9561 </r>
       <r>     0.0477    76.1247   861.2540 </r>
       <r>     0.1830    81.3807   872.2629 </r>
       <r>     0.3183    71.3815   881.9192 </r>
       <r>     0.4535    65.1671   890.7348 </r>
       <r>     0.5888    85.7875   902.3398 </r>
       <r>     0.7241    81.0955   913.3102 </r>
       <r>     0.8594    91.6113   925.7031 </r>
       <r>     0.9946    89.3015   937.7835 </r>
       <r>     1.1299    89.5952   949.9036 </r>
       <r>     1.2652   119.0471   966.0080 </r>
       <r>     1.4005   113.0935   981.3069 </r>
       <r>     1.5357   117.7000   997.2290 </r>
       <r>     1.6710   106.6630  1011.6580 </r>
       <r>     1.8063    72.3721  1021.4483 </r>
       <r>     1.9416    56.1225  1029.0404 </r>
       <r>     2.0769    41.4747  1034.6509 </r>
       <r>     2.2121    22.8174  1037.7376 </r>
       <r>     2.3474     1.9397  1038.0000 </r>
       <r>     2.4827     0.0001  1038.0000 </r>
       <r>     2.6180     0.0000  1038.0000 </r>
       <r>     2.7532     0.0000  1038.0000 </r>
       <r>     2.8885     0.0000  1038.0000 </r>
       <r>     3.0238     0.0000  1038.0000 </r>
       <r>     3.1591     0.1042  1038.0141 </r>
       <r>     3.2943     3.2586  1038.4549 </r>
       <r>     3.4296    10.3965  1039.8613 </r>
       <r>     3.5649     1.0252  1040.0000 </r>
       <r>     3.7002     0.0000  1040.0000 </r>
       <r>     3.8355     0.0000  1040.0000 </r>
       <r>     3.9707     0.0000  1040.0000 </r>
       <r>     4.1060     0.0000  1040.0000 </r>
       <r>     4.2413     0.0000  1040.0000 </r>
       <r>     4.3766     0.0000  1040.0000 </r>
       <r>     4.5118     0.0000  1040.0000 </r>
       <r>     4.6471     0.0000  1040.0000 </r>
       <r>     4.7824     0.0006  1040.0001 </r>
       <r>     4.9177     5.4208  1040.7334 </r>
       <r>     5.0529     9.3494  1041.9981 </r>
       <r>     5.1882     0.0137  1042.0000 </r>
       <r>     5.3235     0.0000  1042.0000 </r>
       <r>     5.4588     0.0000  1042.0000 </r>
       <r>     5.5941     0.0000  1042.0000 </r>
       <r>     5.7293     0.0000  1042.0000 </r>
       <r>     5.8646     0.0000  1042.0000 </r>
       <r>     5.9999     0.0000  1042.0000 </r>
       <r>     6.1352     0.0000  1042.0000 </r>
       <r>     6.2704     0.0000  1042.0000 </r>
       <r>     6.4057     0.0000  1042.0000 </r>
       <r>     6.5410     0.0000  1042.0000 </r>
       <r>     6.6763     0.0001  1042.0000 </r>
       <r>     6.8115     0.7828  1042.1059 </r>
       <r>     6.9468     1.0650  1042.2500 </r>
       <r>     7.0821     0.0003  1042.2500 </r>
       <r>     7.2174     0.0252  1042.2534 </r>
       <r>     7.3527     1.7265  1042.4870 </r>
       <r>     7.4879     1.4355  1042.6812 </r>
       <r>     7.6232     0.6447  1042.7684 </r>
       <r>     7.7585     3.6120  1043.2570 </r>
       <r>     7.8938     3.6449  1043.7501 </r>
       <r>     8.0290     1.8168  1043.9958 </r>
       <r>     8.1643     2.3365  1044.3119 </r>
       <r>     8.2996     6.9911  1045.2576 </r>
       <r>     8.4349     3.6183  1045.7471 </r>
       <r>     8.5701     4.3532  1046.3360 </r>
       <r>     8.7054     7.8876  1047.4030 </r>
       <r>     8.8407     4.4638  1048.0068 </r>
       <r>     8.9760    10.1457  1049.3793 </r>
       <r>     9.1113     7.8561  1050.4421 </r>
       <r>     9.2465     6.9367  1051.3804 </r>
       <r>     9.3818     9.1107  1052.6129 </r>
       <r>     9.5171     8.1658  1053.7176 </r>
       <r>     9.6524    12.0249  1055.3443 </r>
       <r>     9.7876    12.4505  1057.0285 </r>
       <r>     9.9229    14.9658  1059.0531 </r>
       <r>    10.0582    15.5799  1061.1607 </r>
       <r>    10.1935    20.5939  1063.9465 </r>
       <r>    10.3287    23.9706  1067.1892 </r>
       <r>    10.4640    22.1337  1070.1834 </r>
       <r>    10.5993    36.1537  1075.0741 </r>
       <r>    10.7346    40.2072  1080.5132 </r>
       <r>    10.8698    37.1698  1085.5415 </r>
       <r>    11.0051    26.5927  1089.1388 </r>
       <r>    11.1404    30.0692  1093.2065 </r>
       <r>    11.2757    27.5712  1096.9362 </r>
       <r>    11.4110    35.3480  1101.7180 </r>
       <r>    11.5462    31.3549  1105.9596 </r>
       <r>    11.6815    33.4827  1110.4890 </r>
       <r>    11.8168    39.3998  1115.8189 </r>
       <r>    11.9521    33.7661  1120.3867 </r>
       <r>    12.0873    28.5041  1124.2426 </r>
       <r>    12.2226    35.6748  1129.0686 </r>
       <r>    12.3579    40.0378  1134.4848 </r>
       <r>    12.4932    44.7125  1140.5333 </r>
       <r>    12.6284    30.7012  1144.6865 </r>
       <r>    12.7637    20.4882  1147.4581 </r>
       <r>    12.8990    26.8144  1151.0854 </r>
       <r>    13.0343    36.6240  1156.0398 </r>
       <r>    13.1696    36.5059  1160.9782 </r>
       <r>    13.3048    36.9633  1165.9785 </r>
       <r>    13.4401    29.3864  1169.9538 </r>
       <r>    13.5754    28.2056  1173.7694 </r>
       <r>    13.7107    32.8557  1178.2140 </r>
       <r>    13.8459    30.1540  1182.2931 </r>
       <r>    13.9812    28.4756  1186.1452 </r>
       <r>    14.1165    28.5735  1190.0105 </r>
       <r>    14.2518    21.8691  1192.9689 </r>
       <r>    14.3870    30.5479  1197.1013 </r>
       <r>    14.5223    28.7551  1200.9912 </r>
       <r>    14.6576    19.9142  1203.6852 </r>
       <r>    14.7929    27.5103  1207.4067 </r>
       <r>    14.9282    26.5921  1211.0040 </r>
       <r>    15.0634    25.2313  1214.4172 </r>
       <r>    15.1987    23.0623  1217.5370 </r>
       <r>    15.3340    19.6677  1220.1976 </r>
       <r>    15.4693    23.1945  1223.3352 </r>
       <r>    15.6045    21.9487  1226.3044 </r>
       <r>    15.7398    21.8140  1229.2553 </r>
       <r>    15.8751    17.0081  1231.5561 </r>
       <r>    16.0104    17.9551  1233.9850 </r>
       <r>    16.1456    20.3339  1236.7358 </r>
       <r>    16.2809    18.8871  1239.2907 </r>
       <r>    16.4162    18.2830  1241.7640 </r>
       <r>    16.5515    13.8347  1243.6355 </r>
       <r>    16.6868    11.9814  1245.2563 </r>
       <r>    16.8220    15.8358  1247.3986 </r>
       <r>    16.9573     8.6287  1248.5658 </r>
       <r>    17.0926     7.3346  1249.5580 </r>
       <r>    17.2279     3.2534  1249.9981 </r>
       <r>    17.3631     0.0138  1250.0000 </r>
       <r>    17.4984     0.0000  1250.0000 </r>
       <r>    17.6337     0.0000  1250.0000 </r>
       <r>    17.7690     0.0000  1250.0000 </r>
       <r>    17.9042     0.0000  1250.0000 </r>
       <r>    18.0395     0.0000  1250.0000 </r>
       <r>    18.1748     0.0000  1250.0000 </r>
       <r>    18.3101     0.0000  1250.0000 </r>
       <r>    18.4454     0.0000  1250.0000 </r>
       <r>    18.5806     0.0000  1250.0000 </r>
       <r>    18.7159     0.0000  1250.0000 </r>
       <r>    18.8512     0.0000  1250.0000 </r>
       <r>    18.9865     0.0000  1250.0000 </r>
      </set>
     </set>
    </array>
   </total>
  </dos>
 </calculation>
 <structure name="finalpos" >
  <crystal>
   <varray name="basis" >
    <v>       0.00000000      12.28047342       0.00000000 </v>
    <v>       9.14270205       0.00000000       0.00000000 </v>
    <v>       0.00000000      -2.76826177     -11.30069772 </v>
   </varray>
   <i name="volume">   1268.80515525 </i>
   <varray name="rec_basis" >
    <v>       0.00000000       0.08143009      -0.01994742 </v>
    <v>       0.10937686      -0.00000000       0.00000000 </v>
    <v>       0.00000000       0.00000000      -0.08849011 </v>
   </varray>
  </crystal>
  <varray name="positions" >
   <v>       0.65957031       0.99933944       0.15873824 </v>
   <v>       0.65924885       0.99797789       0.65653157 </v>
   <v>       0.65805817       0.33127143       0.15983486 </v>
   <v>       0.65890586       0.33114818       0.65722053 </v>
   <v>       0.65996865       0.66686059       0.15897610 </v>
   <v>       0.65894696       0.66462652       0.65785654 </v>
   <v>       0.84623473       0.16246037       0.34569896 </v>
   <v>       0.84020159       0.16449788       0.84219312 </v>
   <v>       0.84184237       0.49941757       0.34511579 </v>
   <v>       0.84082552       0.49963509       0.84283422 </v>
   <v>       0.84551462       0.83372035       0.34600139 </v>
   <v>       0.84036781       0.83246671       0.84363702 </v>
   <v>       0.59048359       0.16262136       0.39788353 </v>
   <v>       0.59144102       0.16474359       0.89941515 </v>
   <v>       0.59393248       0.50089077       0.40020214 </v>
   <v>       0.59256701       0.49782457       0.89981090 </v>
   <v>       0.58903022       0.83396678       0.39763661 </v>
   <v>       0.59051209       0.83146827       0.89916766 </v>
   <v>       0.90991491       0.00596937       0.10365784 </v>
   <v>       0.91111956       0.99758589       0.60241461 </v>
   <v>       0.89881103       0.34808351       0.09949484 </v>
   <v>       0.90965984       0.33109529       0.60402278 </v>
   <v>       0.90863128       0.67594657       0.10327984 </v>
   <v>       0.90946401       0.66502952       0.60371631 </v>
   <v>       0.15976808       0.16066112       0.65408797 </v>
   <v>       0.15657258       0.50741722       0.16126261 </v>
   <v>       0.15928055       0.49789807       0.65850506 </v>
   <v>       0.16119539       0.83348160       0.14963257 </v>
   <v>       0.16014457       0.83283477       0.65278767 </v>
   <v>       0.33097403       0.00176735       0.34497507 </v>
   <v>       0.34012831       0.99774377       0.84552147 </v>
   <v>       0.34720725       0.33122349       0.34384987 </v>
   <v>       0.34132313       0.33017380       0.84501632 </v>
   <v>       0.34085720       0.66549798       0.34553393 </v>
   <v>       0.34083102       0.66375444       0.84433280 </v>
   <v>       0.11785818       0.99170466       0.38066877 </v>
   <v>       0.09184568       0.99161692       0.89678678 </v>
   <v>       0.08589751       0.32650213       0.40174329 </v>
   <v>       0.09054308       0.32355412       0.89809311 </v>
   <v>       0.08947579       0.66722389       0.39871660 </v>
   <v>       0.09064507       0.66065250       0.89567699 </v>
   <v>       0.40676769       0.16445782       0.10620815 </v>
   <v>       0.40922837       0.16504019       0.60472153 </v>
   <v>       0.40944557       0.49905092       0.10351338 </v>
   <v>       0.40750030       0.49714600       0.60225732 </v>
   <v>       0.40870498       0.83310546       0.10395071 </v>
   <v>       0.41063136       0.83074703       0.60528418 </v>
   <v>       0.99472347       0.18303794       0.12313204 </v>
   <v>       0.99731827       0.16500719       0.62898087 </v>
   <v>       0.99407760       0.50703889       0.12654331 </v>
   <v>       0.99677197       0.49811987       0.63042301 </v>
   <v>       0.99975099       0.84111874       0.12980051 </v>
   <v>       0.99754293       0.83053605       0.62934464 </v>
   <v>       0.49943270       0.99875200       0.37527513 </v>
   <v>       0.50320248       0.99851292       0.87454667 </v>
   <v>       0.50795832       0.33386126       0.37604642 </v>
   <v>       0.50407238       0.33179711       0.87479686 </v>
   <v>       0.50324336       0.66475161       0.37249562 </v>
   <v>       0.50385951       0.66363474       0.87503736 </v>
   <v>       0.67408318       0.16499501       0.28238305 </v>
   <v>       0.67234590       0.16411413       0.78116078 </v>
   <v>       0.67411146       0.50013577       0.28231510 </v>
   <v>       0.67261005       0.49848751       0.78122448 </v>
   <v>       0.67377172       0.83370170       0.28244835 </v>
   <v>       0.67235713       0.83179636       0.78166834 </v>
   <v>       0.82914097       0.00152200       0.21977053 </v>
   <v>       0.82790882       0.99724101       0.71973010 </v>
   <v>       0.82753371       0.33340196       0.22182860 </v>
   <v>       0.82784705       0.33082486       0.72053586 </v>
   <v>       0.82872957       0.66859782       0.22112242 </v>
   <v>       0.82791745       0.66412611       0.72097028 </v>
   <v>       0.83106114       0.99846540       0.44712307 </v>
   <v>       0.83368308       0.00051271       0.94773001 </v>
   <v>       0.83648341       0.33040754       0.44641969 </v>
   <v>       0.82851645       0.33322964       0.94355681 </v>
   <v>       0.83353920       0.66557348       0.44700953 </v>
   <v>       0.83206650       0.66683855       0.94690069 </v>
   <v>       0.66913274       0.16600818       0.05599899 </v>
   <v>       0.66811869       0.16475803       0.55481282 </v>
   <v>       0.66983906       0.49840239       0.05693858 </v>
   <v>       0.67093426       0.49847078       0.55622367 </v>
   <v>       0.66862010       0.83266701       0.05567618 </v>
   <v>       0.66677590       0.83071251       0.55467129 </v>
   <v>       0.49654832       0.99900442       0.12883627 </v>
   <v>       0.49668481       0.99861511       0.62890771 </v>
   <v>       0.49602766       0.33185111       0.12867672 </v>
   <v>       0.49676273       0.33198388       0.62838289 </v>
   <v>       0.49649584       0.66588772       0.12956360 </v>
   <v>       0.49665038       0.66244377       0.62830912 </v>
   <v>       0.00890274       0.15454354       0.36934414 </v>
   <v>       0.00293223       0.15901800       0.87486156 </v>
   <v>       0.00415565       0.49773985       0.37334306 </v>
   <v>       0.00505153       0.49194481       0.87832749 </v>
   <v>       0.00685697       0.83595545       0.37414827 </v>
   <v>       0.00209507       0.82641563       0.87277228 </v>
   <v>       0.17289556       0.99673846       0.77970096 </v>
   <v>       0.16086460       0.33373906       0.27352431 </v>
   <v>       0.17283309       0.32943138       0.78316069 </v>
   <v>       0.17224841       0.66596438       0.28116728 </v>
   <v>       0.17285054       0.66368773       0.78032944 </v>
   <v>       0.33462637       0.16939815       0.22923655 </v>
   <v>       0.32805183       0.16484974       0.72187060 </v>
   <v>       0.32462850       0.49580453       0.21900567 </v>
   <v>       0.32765283       0.49651542       0.72092887 </v>
   <v>       0.32477050       0.83346930       0.22098527 </v>
   <v>       0.32851468       0.82998521       0.72136281 </v>
   <v>       0.32973229       0.17201817       0.44902626 </v>
   <v>       0.33125748       0.16537530       0.94865406 </v>
   <v>       0.33079839       0.49570535       0.44446358 </v>
   <v>       0.32938350       0.49644666       0.94780580 </v>
   <v>       0.33488087       0.82847200       0.44895184 </v>
   <v>       0.33339743       0.82978849       0.94704477 </v>
   <v>       0.17262170       0.99075352       0.04938441 </v>
   <v>       0.16790831       0.99744261       0.55238611 </v>
   <v>       0.15652099       0.31661364       0.06622885 </v>
   <v>       0.16746040       0.33174153       0.55577459 </v>
   <v>       0.16780997       0.66136189       0.05300734 </v>
   <v>       0.16903906       0.66250280       0.55451541 </v>
   <v>       0.14009076       0.18706322       0.16553786 </v>
  </varray>
 </structure>
</modeling>
