<?xml version="1.0" encoding="ISO-8859-1"?>
<modeling>
 <generator>
  <i name="program" type="string">vasp </i>
  <i name="version" type="string">6.4.2  </i>
  <i name="subversion" type="string">20Jul23 (build Nov 12 2023 22:16:35) complex                          parallel </i>
  <i name="platform" type="string">LinuxNV </i>
  <i name="date" type="string">2025 03 16 </i>
  <i name="time" type="string">23:27:01 </i>
 </generator>
 <incar>
  <i type="int" name="ISTART">     0</i>
  <i type="string" name="PREC">Normal</i>
  <i type="string" name="ALGO">All</i>
  <i type="int" name="ISPIN">     1</i>
  <i type="int" name="ICHARG">     0</i>
  <i type="int" name="NELM">   500</i>
  <i type="int" name="IBRION">    -1</i>
  <i name="EDIFF">      0.00001000</i>
  <i name="EDIFFG">     -0.00500000</i>
  <i type="int" name="NSW">     0</i>
  <i type="int" name="ISIF">     2</i>
  <i name="ENCUT">    450.00000000</i>
  <i name="NELECT">   1056.00000000</i>
  <i type="string" name="LREAL">Auto</i>
  <i type="logical" name="LPLANE"> T  </i>
  <i name="TIME">      0.40000000</i>
  <i type="int" name="ISMEAR">     0</i>
  <i name="SIGMA">      0.05000000</i>
  <i type="logical" name="LWAVE"> T  </i>
  <i type="logical" name="LCHARG"> T  </i>
  <i name="HFSCREEN">      0.20000000</i>
  <i type="logical" name="LHFCALC"> T  </i>
  <i type="int" name="LMAXFOCK">     4</i>
  <i name="AEXX">      0.32000000</i>
  <i type="string" name="PRECFOCK">Fast</i>
 </incar>
 <primitive_cell>
  <structure name="primitive_cell" >
   <crystal>
    <varray name="basis" >
     <v>       0.00000000      12.28047342       0.00000000 </v>
     <v>       9.14270205       0.00000000       0.00000000 </v>
     <v>       0.00000000      -2.76826177     -11.30069772 </v>
    </varray>
    <i name="volume">   1268.80515525 </i>
    <varray name="rec_basis" >
     <v>       0.00000000       0.08143009      -0.01994742 </v>
     <v>       0.10937686      -0.00000000       0.00000000 </v>
     <v>       0.00000000       0.00000000      -0.08849011 </v>
    </varray>
   </crystal>
   <varray name="positions" >
    <v>       0.64677555       0.00477655       0.15485943 </v>
    <v>       0.66545090       0.00495812       0.66261345 </v>
    <v>       0.64648163       0.33376377       0.15608782 </v>
    <v>       0.66489513       0.32761834       0.65968366 </v>
    <v>       0.64439819       0.67184451       0.15795552 </v>
    <v>       0.66516753       0.66424191       0.66163160 </v>
    <v>       0.83079788       0.17102179       0.34129924 </v>
    <v>       0.85624051       0.16090346       0.85755479 </v>
    <v>       0.83093513       0.49904471       0.34062730 </v>
    <v>       0.84881178       0.49487377       0.84086777 </v>
    <v>       0.82877802       0.83460303       0.34475697 </v>
    <v>       0.84277342       0.82736099       0.84908006 </v>
    <v>       0.57396532       0.16710045       0.39351406 </v>
    <v>       0.58352607       0.17117553       0.89667172 </v>
    <v>       0.59481652       0.50689729       0.40569662 </v>
    <v>       0.60000655       0.50451709       0.89792064 </v>
    <v>       0.58731024       0.83370842       0.40310184 </v>
    <v>       0.59419012       0.83730011       0.89810953 </v>
    <v>       0.90533890       0.98983173       0.11014877 </v>
    <v>       0.90055669       0.96750471       0.60204000 </v>
    <v>       0.90951362       0.36052912       0.10222268 </v>
    <v>       0.91306450       0.33432676       0.60185255 </v>
    <v>       0.89254613       0.62239254       0.10522525 </v>
    <v>       0.89902315       0.70418609       0.59762153 </v>
    <v>       0.14923271       0.16236785       0.66782332 </v>
    <v>       0.17795445       0.47682773       0.15748502 </v>
    <v>       0.14781373       0.50260131       0.65578559 </v>
    <v>       0.13371538       0.82815920       0.12997736 </v>
    <v>       0.17628224       0.83279584       0.64710102 </v>
    <v>       0.33056134       0.00409554       0.33291065 </v>
    <v>       0.34016260       0.00706516       0.84877200 </v>
    <v>       0.34088992       0.33237825       0.35051497 </v>
    <v>       0.34048062       0.34102674       0.83394802 </v>
    <v>       0.33400512       0.67080125       0.34028403 </v>
    <v>       0.34704319       0.66689803       0.83307274 </v>
    <v>       0.08514041       0.00141223       0.39778468 </v>
    <v>       0.11798687       0.98145261       0.94526138 </v>
    <v>       0.08681001       0.33016262       0.39502985 </v>
    <v>       0.10485636       0.33019038       0.93229954 </v>
    <v>       0.08539113       0.66635219       0.38948246 </v>
    <v>       0.09100220       0.66443549       0.89217214 </v>
    <v>       0.36773585       0.18366288       0.09444891 </v>
    <v>       0.41000238       0.16598526       0.60563704 </v>
    <v>       0.40175768       0.50535797       0.09670550 </v>
    <v>       0.41328458       0.49888420       0.60093465 </v>
    <v>       0.38918330       0.86076884       0.09560038 </v>
    <v>       0.41639723       0.83382095       0.59482750 </v>
    <v>       0.95518635       0.17251049       0.13317615 </v>
    <v>       0.98683861       0.15382529       0.63141874 </v>
    <v>       0.04928629       0.40294476       0.06342997 </v>
    <v>       0.98515802       0.51673968       0.61168671 </v>
    <v>       0.97127872       0.80188068       0.12488809 </v>
    <v>       0.02986404       0.83371736       0.63840317 </v>
    <v>       0.49692304       0.99346586       0.39108991 </v>
    <v>       0.50312520       0.99821191       0.86167611 </v>
    <v>       0.50650487       0.34606919       0.39613719 </v>
    <v>       0.50794808       0.34587954       0.85983421 </v>
    <v>       0.50154789       0.66718258       0.38499384 </v>
    <v>       0.51030464       0.66850295       0.86325423 </v>
    <v>       0.65862312       0.16938720       0.27955922 </v>
    <v>       0.67140121       0.16779138       0.78276782 </v>
    <v>       0.65738127       0.50233063       0.27664055 </v>
    <v>       0.67442788       0.49561443       0.77748020 </v>
    <v>       0.65849570       0.83700614       0.28013474 </v>
    <v>       0.67539713       0.83271047       0.78071618 </v>
    <v>       0.81451868       0.99340182       0.22083579 </v>
    <v>       0.82934613       0.01029584       0.73302928 </v>
    <v>       0.81236726       0.33483090       0.22572525 </v>
    <v>       0.83223200       0.32736888       0.72035069 </v>
    <v>       0.81030037       0.67247502       0.22197384 </v>
    <v>       0.82699813       0.65554229       0.72460693 </v>
    <v>       0.81884024       0.00841596       0.43941862 </v>
    <v>       0.82899948       0.99070043       0.95114129 </v>
    <v>       0.82233188       0.33649685       0.44900043 </v>
    <v>       0.82767457       0.33342492       0.94045309 </v>
    <v>       0.81466825       0.65984939       0.43852784 </v>
    <v>       0.82202958       0.65823820       0.94252419 </v>
    <v>       0.66327472       0.17093778       0.05279984 </v>
    <v>       0.66468127       0.16470156       0.55112673 </v>
    <v>       0.66173656       0.50416919       0.05707398 </v>
    <v>       0.67445515       0.49904529       0.55980053 </v>
    <v>       0.66303101       0.83555866       0.05594234 </v>
    <v>       0.66276548       0.83390589       0.55966069 </v>
    <v>       0.49162728       0.01232263       0.12445041 </v>
    <v>       0.50106702       0.00156501       0.63020676 </v>
    <v>       0.48818734       0.33903365       0.12343222 </v>
    <v>       0.50057639       0.33194284       0.62829163 </v>
    <v>       0.48442095       0.67937402       0.12061635 </v>
    <v>       0.50224617       0.66499642       0.62806416 </v>
    <v>       0.99171214       0.17060246       0.38931830 </v>
    <v>       0.02191924       0.15563765       0.89800530 </v>
    <v>       0.99464588       0.49870466       0.35966776 </v>
    <v>       0.00877757       0.49288987       0.85256814 </v>
    <v>       0.99269554       0.83038486       0.38250555 </v>
    <v>       0.99552323       0.82099932       0.85902759 </v>
    <v>       0.18003083       0.00736565       0.79529303 </v>
    <v>       0.18004930       0.35312353       0.29388061 </v>
    <v>       0.17149300       0.33357399       0.78817374 </v>
    <v>       0.16447215       0.65858247       0.27050976 </v>
    <v>       0.18036712       0.66004170       0.78026572 </v>
    <v>       0.37757423       0.17947953       0.25592359 </v>
    <v>       0.32327978       0.17123831       0.71421710 </v>
    <v>       0.33855744       0.50712329       0.22952800 </v>
    <v>       0.32627695       0.49939479       0.71112428 </v>
    <v>       0.33803871       0.82323371       0.22910150 </v>
    <v>       0.33397895       0.83218196       0.71197555 </v>
    <v>       0.32871367       0.17111635       0.45486544 </v>
    <v>       0.37480600       0.18181462       0.93465168 </v>
    <v>       0.33247974       0.50536375       0.44853677 </v>
    <v>       0.34734022       0.50882074       0.93542582 </v>
    <v>       0.32410468       0.83283151       0.44654888 </v>
    <v>       0.34585177       0.82592786       0.93368594 </v>
    <v>       0.27310748       0.02063481       0.05284337 </v>
    <v>       0.17032714       0.00946407       0.55469342 </v>
    <v>       0.24529345       0.33688448       0.05431154 </v>
    <v>       0.15227318       0.33199583       0.55755943 </v>
    <v>       0.17566677       0.64896886       0.04952166 </v>
    <v>       0.17162596       0.65852467       0.54477634 </v>
    <v>       0.14905879       0.04008073       0.23878753 </v>
   </varray>
  </structure>
  <varray name="primitive_index" >
   <v type="int" >        1 </v>
   <v type="int" >        2 </v>
   <v type="int" >        3 </v>
   <v type="int" >        4 </v>
   <v type="int" >        5 </v>
   <v type="int" >        6 </v>
   <v type="int" >        7 </v>
   <v type="int" >        8 </v>
   <v type="int" >        9 </v>
   <v type="int" >       10 </v>
   <v type="int" >       11 </v>
   <v type="int" >       12 </v>
   <v type="int" >       13 </v>
   <v type="int" >       14 </v>
   <v type="int" >       15 </v>
   <v type="int" >       16 </v>
   <v type="int" >       17 </v>
   <v type="int" >       18 </v>
   <v type="int" >       19 </v>
   <v type="int" >       20 </v>
   <v type="int" >       21 </v>
   <v type="int" >       22 </v>
   <v type="int" >       23 </v>
   <v type="int" >       24 </v>
   <v type="int" >       25 </v>
   <v type="int" >       26 </v>
   <v type="int" >       27 </v>
   <v type="int" >       28 </v>
   <v type="int" >       29 </v>
   <v type="int" >       30 </v>
   <v type="int" >       31 </v>
   <v type="int" >       32 </v>
   <v type="int" >       33 </v>
   <v type="int" >       34 </v>
   <v type="int" >       35 </v>
   <v type="int" >       36 </v>
   <v type="int" >       37 </v>
   <v type="int" >       38 </v>
   <v type="int" >       39 </v>
   <v type="int" >       40 </v>
   <v type="int" >       41 </v>
   <v type="int" >       42 </v>
   <v type="int" >       43 </v>
   <v type="int" >       44 </v>
   <v type="int" >       45 </v>
   <v type="int" >       46 </v>
   <v type="int" >       47 </v>
   <v type="int" >       48 </v>
   <v type="int" >       49 </v>
   <v type="int" >       50 </v>
   <v type="int" >       51 </v>
   <v type="int" >       52 </v>
   <v type="int" >       53 </v>
   <v type="int" >       54 </v>
   <v type="int" >       55 </v>
   <v type="int" >       56 </v>
   <v type="int" >       57 </v>
   <v type="int" >       58 </v>
   <v type="int" >       59 </v>
   <v type="int" >       60 </v>
   <v type="int" >       61 </v>
   <v type="int" >       62 </v>
   <v type="int" >       63 </v>
   <v type="int" >       64 </v>
   <v type="int" >       65 </v>
   <v type="int" >       66 </v>
   <v type="int" >       67 </v>
   <v type="int" >       68 </v>
   <v type="int" >       69 </v>
   <v type="int" >       70 </v>
   <v type="int" >       71 </v>
   <v type="int" >       72 </v>
   <v type="int" >       73 </v>
   <v type="int" >       74 </v>
   <v type="int" >       75 </v>
   <v type="int" >       76 </v>
   <v type="int" >       77 </v>
   <v type="int" >       78 </v>
   <v type="int" >       79 </v>
   <v type="int" >       80 </v>
   <v type="int" >       81 </v>
   <v type="int" >       82 </v>
   <v type="int" >       83 </v>
   <v type="int" >       84 </v>
   <v type="int" >       85 </v>
   <v type="int" >       86 </v>
   <v type="int" >       87 </v>
   <v type="int" >       88 </v>
   <v type="int" >       89 </v>
   <v type="int" >       90 </v>
   <v type="int" >       91 </v>
   <v type="int" >       92 </v>
   <v type="int" >       93 </v>
   <v type="int" >       94 </v>
   <v type="int" >       95 </v>
   <v type="int" >       96 </v>
   <v type="int" >       97 </v>
   <v type="int" >       98 </v>
   <v type="int" >       99 </v>
   <v type="int" >      100 </v>
   <v type="int" >      101 </v>
   <v type="int" >      102 </v>
   <v type="int" >      103 </v>
   <v type="int" >      104 </v>
   <v type="int" >      105 </v>
   <v type="int" >      106 </v>
   <v type="int" >      107 </v>
   <v type="int" >      108 </v>
   <v type="int" >      109 </v>
   <v type="int" >      110 </v>
   <v type="int" >      111 </v>
   <v type="int" >      112 </v>
   <v type="int" >      113 </v>
   <v type="int" >      114 </v>
   <v type="int" >      115 </v>
   <v type="int" >      116 </v>
   <v type="int" >      117 </v>
   <v type="int" >      118 </v>
   <v type="int" >      119 </v>
  </varray>
 </primitive_cell>
 <kpoints>
  <generation param="Gamma">
   <v type="int" name="divisions">       2        2        2 </v>
   <v name="usershift">      0.00000000       0.00000000       0.00000000 </v>
   <v name="genvec1">      0.50000000       0.00000000       0.00000000 </v>
   <v name="genvec2">      0.00000000       0.50000000       0.00000000 </v>
   <v name="genvec3">      0.00000000       0.00000000       0.50000000 </v>
   <v name="shift">      0.00000000       0.00000000       0.00000000 </v>
  </generation>
  <varray name="kpointlist" >
   <v>       0.00000000       0.00000000       0.00000000 </v>
   <v>       0.50000000       0.00000000       0.00000000 </v>
   <v>       0.00000000       0.50000000       0.00000000 </v>
   <v>       0.50000000       0.50000000       0.00000000 </v>
   <v>       0.00000000       0.00000000       0.50000000 </v>
   <v>       0.50000000       0.00000000       0.50000000 </v>
   <v>       0.00000000       0.50000000       0.50000000 </v>
   <v>       0.50000000       0.50000000       0.50000000 </v>
  </varray>
  <varray name="weights" >
   <v>       0.12500000 </v>
   <v>       0.12500000 </v>
   <v>       0.12500000 </v>
   <v>       0.12500000 </v>
   <v>       0.12500000 </v>
   <v>       0.12500000 </v>
   <v>       0.12500000 </v>
   <v>       0.12500000 </v>
  </varray>
 </kpoints>
 <parameters>
  <separator name="general" >
   <i type="string" name="SYSTEM">unknown system</i>
   <i type="logical" name="LCOMPAT"> F  </i>
  </separator>
  <separator name="electronic" >
   <i type="string" name="PREC">normal</i>
   <i name="ENMAX">    450.00000000</i>
   <i name="ENAUG">    605.39200000</i>
   <i name="EDIFF">      0.00001000</i>
   <i type="int" name="IALGO">    58</i>
   <i type="int" name="IWAVPR">    10</i>
   <i type="int" name="NBANDS">   633</i>
   <i type="int" name="NBANDSLOW">    -1</i>
   <i type="int" name="NBANDSHIGH">    -1</i>
   <i name="NELECT">   1056.00000000</i>
   <i type="int" name="TURBO">     0</i>
   <i type="int" name="IRESTART">     0</i>
   <i type="int" name="NREBOOT">     0</i>
   <i type="int" name="NMIN">     0</i>
   <i name="EREF">      0.00000000</i>
   <separator name="electronic smearing" >
    <i type="int" name="ISMEAR">     0</i>
    <i name="SIGMA">      0.05000000</i>
    <i name="KSPACING">      0.50000000</i>
    <i type="logical" name="KGAMMA"> T  </i>
    <i type="logical" name="KBLOWUP"> T  </i>
   </separator>
   <separator name="electronic projectors" >
    <i type="logical" name="LREAL"> T  </i>
    <v name="ROPT">     -0.00050000     -0.00050000     -0.00050000</v>
    <i type="int" name="LMAXPAW">  -100</i>
    <i type="int" name="LMAXMIX">     2</i>
    <i type="logical" name="NLSPLINE"> F  </i>
   </separator>
   <separator name="electronic startup" >
    <i type="int" name="ISTART">     0</i>
    <i type="int" name="ICHARG">     0</i>
    <i type="int" name="INIWAV">     1</i>
   </separator>
   <separator name="electronic spin" >
    <i type="int" name="ISPIN">     1</i>
    <i type="logical" name="LNONCOLLINEAR"> F  </i>
    <v name="MAGMOM">      1.00000000      1.00000000      1.00000000      1.00000000      1.00000000      1.00000000      1.00000000      1.00000000      1.00000000      1.00000000      1.00000000      1.00000000      1.00000000      1.00000000      1.00000000      1.00000000      1.00000000      1.00000000      1.00000000      1.00000000
      1.00000000      1.00000000      1.00000000      1.00000000      1.00000000      1.00000000      1.00000000      1.00000000      1.00000000      1.00000000      1.00000000      1.00000000      1.00000000      1.00000000      1.00000000      1.00000000      1.00000000      1.00000000      1.00000000      1.00000000
      1.00000000      1.00000000      1.00000000      1.00000000      1.00000000      1.00000000      1.00000000      1.00000000      1.00000000      1.00000000      1.00000000      1.00000000      1.00000000      1.00000000      1.00000000      1.00000000      1.00000000      1.00000000      1.00000000      1.00000000
      1.00000000      1.00000000      1.00000000      1.00000000      1.00000000      1.00000000      1.00000000      1.00000000      1.00000000      1.00000000      1.00000000      1.00000000      1.00000000      1.00000000      1.00000000      1.00000000      1.00000000      1.00000000      1.00000000      1.00000000
      1.00000000      1.00000000      1.00000000      1.00000000      1.00000000      1.00000000      1.00000000      1.00000000      1.00000000      1.00000000      1.00000000      1.00000000      1.00000000      1.00000000      1.00000000      1.00000000      1.00000000      1.00000000      1.00000000      1.00000000
      1.00000000      1.00000000      1.00000000      1.00000000      1.00000000      1.00000000      1.00000000      1.00000000      1.00000000      1.00000000      1.00000000      1.00000000      1.00000000      1.00000000      1.00000000      1.00000000      1.00000000      1.00000000      1.00000000</v>
    <i name="NUPDOWN">     -1.00000000</i>
    <i type="logical" name="LSORBIT"> F  </i>
    <v name="SAXIS">      0.00000000      0.00000000      1.00000000</v>
    <i type="logical" name="LSPIRAL"> F  </i>
    <v name="QSPIRAL">      0.00000000      0.00000000      0.00000000</v>
    <i type="logical" name="LZEROZ"> F  </i>
   </separator>
   <separator name="electronic exchange-correlation" >
    <i type="logical" name="LASPH"> F  </i>
    <i type="logical" name="LMETAGGA"> F  </i>
   </separator>
   <separator name="electronic convergence" >
    <i type="int" name="NELM">   500</i>
    <i type="int" name="NELMDL">    -5</i>
    <i type="int" name="NELMIN">     2</i>
    <i name="ENINI">    450.00000000</i>
    <separator name="electronic convergence detail" >
     <i type="logical" name="LDIAG"> T  </i>
     <i type="logical" name="LSUBROT"> F  </i>
     <i name="WEIMIN">      0.00000000</i>
     <i name="EBREAK">      0.00000000</i>
     <i name="DEPER">      0.30000000</i>
     <i type="int" name="NRMM">     4</i>
     <i name="TIME">      0.40000000</i>
    </separator>
   </separator>
   <separator name="electronic mixer" >
    <i name="AMIX">      0.40000000</i>
    <i name="BMIX">      1.00000000</i>
    <i name="AMIN">      0.10000000</i>
    <i name="AMIX_MAG">      1.60000000</i>
    <i name="BMIX_MAG">      1.00000000</i>
    <separator name="electronic mixer details" >
     <i type="int" name="IMIX">     4</i>
     <i type="logical" name="MIXFIRST"> F  </i>
     <i type="int" name="MAXMIX">   -45</i>
     <i name="WC">    100.00000000</i>
     <i type="int" name="INIMIX">     1</i>
     <i type="int" name="MIXPRE">     1</i>
     <i type="int" name="MREMOVE">     5</i>
    </separator>
   </separator>
   <separator name="electronic dipolcorrection" >
    <i type="logical" name="LDIPOL"> F  </i>
    <i type="logical" name="LMONO"> F  </i>
    <i type="int" name="IDIPOL">     0</i>
    <i name="EPSILON">      1.00000000</i>
    <v name="DIPOL">   -100.00000000   -100.00000000   -100.00000000</v>
    <i name="EFIELD">      0.00000000</i>
   </separator>
  </separator>
  <separator name="grids" >
   <i type="int" name="NGX">    64</i>
   <i type="int" name="NGY">    48</i>
   <i type="int" name="NGZ">    60</i>
   <i type="int" name="NGXF">   128</i>
   <i type="int" name="NGYF">    96</i>
   <i type="int" name="NGZF">   120</i>
   <i type="logical" name="ADDGRID"> F  </i>
  </separator>
  <separator name="ionic" >
   <i type="int" name="NSW">     0</i>
   <i type="int" name="IBRION">    -1</i>
   <i type="int" name="MDALGO">     0</i>
   <i type="int" name="ISIF">     2</i>
   <i name="PSTRESS">      0.00000000</i>
   <i name="EDIFFG">     -0.00500000</i>
   <i type="int" name="NFREE">     0</i>
   <i name="POTIM">      0.50000000</i>
   <i name="SMASS">     -3.00000000</i>
   <i name="SCALEE">      1.00000000</i>
  </separator>
  <separator name="ionic md" >
   <i name="TEBEG">      0.00010000</i>
   <i name="TEEND">      0.00010000</i>
   <i type="int" name="NBLOCK">     1</i>
   <i type="int" name="KBLOCK">     1</i>
   <i type="int" name="NPACO">   256</i>
   <i name="APACO">     10.00000000</i>
  </separator>
  <separator name="symmetry" >
   <i type="int" name="ISYM">     3</i>
   <i name="SYMPREC">      0.00001000</i>
  </separator>
  <separator name="dos" >
   <i type="int" name="LORBIT">     0</i>
   <v name="RWIGS">     -1.00000000     -1.00000000     -1.00000000</v>
   <i type="int" name="NEDOS">   301</i>
   <i name="EMIN">     10.00000000</i>
   <i name="EMAX">    -10.00000000</i>
   <i name="EFERMI">      0.00000000</i>
  </separator>
  <separator name="writing" >
   <i type="int" name="NWRITE">     2</i>
   <i type="logical" name="LWAVE"> T  </i>
   <i type="logical" name="LDOWNSAMPLE"> F  </i>
   <i type="logical" name="LCHARG"> T  </i>
   <i type="logical" name="LPARD"> F  </i>
   <i type="logical" name="LVTOT"> F  </i>
   <i type="logical" name="LVHAR"> F  </i>
   <i type="logical" name="LELF"> F  </i>
   <i type="logical" name="LOPTICS"> F  </i>
   <v name="STM">      0.00000000      0.00000000      0.00000000      0.00000000      0.00000000      0.00000000      0.00000000</v>
  </separator>
  <separator name="performance" >
   <i type="int" name="NPAR">     1</i>
   <i type="int" name="NSIM">     4</i>
   <i type="int" name="NBLK">    -1</i>
   <i type="logical" name="LPLANE"> T  </i>
   <i type="logical" name="LSCALAPACK"> T  </i>
   <i type="logical" name="LSCAAWARE"> F  </i>
   <i type="logical" name="LSCALU"> F  </i>
   <i type="logical" name="LASYNC"> F  </i>
   <i type="logical" name="LORBITALREAL"> F  </i>
  </separator>
  <separator name="miscellaneous" >
   <i type="int" name="IDIOT">     3</i>
   <i type="int" name="PHON_NSTRUCT">    -1</i>
   <i type="logical" name="LMUSIC"> F  </i>
   <v name="POMASS">     69.72300000     16.00000000     30.97400000</v>
   <v name="DARWINR">      0.00000000      0.00000000      0.00000000</v>
   <v name="DARWINV">      1.00000000      1.00000000      1.00000000</v>
   <i type="logical" name="LCORR"> T  </i>
  </separator>
  <i type="logical" name="GGA_COMPAT"> T  </i>
  <i type="logical" name="LBERRY"> F  </i>
  <i type="int" name="ICORELEVEL">     0</i>
  <i type="logical" name="LDAU"> F  </i>
  <i type="int" name="I_CONSTRAINED_M">     0</i>
  <separator name="electronic exchange-correlation" >
   <i type="string" name="GGA">--</i>
   <i type="int" name="VOSKOWN">     0</i>
   <i type="logical" name="LHFCALC"> T  </i>
   <i type="string" name="PRECFOCK">fast</i>
   <i type="logical" name="LSYMGRAD"> F  </i>
   <i type="logical" name="LHFONE"> F  </i>
   <i type="logical" name="LRHFCALC"> F  </i>
   <i type="logical" name="LTHOMAS"> F  </i>
   <i type="logical" name="LMODELHF"> F  </i>
   <i type="logical" name="LFOCKACE"> T  </i>
   <i name="ENCUT4O">     -1.00000000</i>
   <i type="int" name="EXXOEP">     0</i>
   <i type="int" name="FOURORBIT">     0</i>
   <i name="AEXX">      0.32000000</i>
   <i name="HFALPHA">     -1.00000000</i>
   <i name="MCALPHA">      0.00000000</i>
   <i name="ALDAX">      0.68000000</i>
   <i name="AGGAX">      0.68000000</i>
   <i name="ALDAC">      1.00000000</i>
   <i name="AGGAC">      1.00000000</i>
   <i type="int" name="NKREDX">     1</i>
   <i type="int" name="NKREDY">     1</i>
   <i type="int" name="NKREDZ">     1</i>
   <i type="logical" name="SHIFTRED"> F  </i>
   <i type="logical" name="ODDONLY"> F  </i>
   <i type="logical" name="EVENONLY"> F  </i>
   <i type="int" name="LMAXFOCK">     4</i>
   <i type="int" name="NMAXFOCKAE">     1</i>
   <i type="logical" name="LFOCKAEDFT"> F  </i>
   <i name="HFSCREEN">      0.20000000</i>
   <i name="HFSCREENC">      0.20000000</i>
   <i type="int" name="NBANDSGWLOW">     1</i>
  </separator>
  <separator name="vdW DFT" >
   <i type="logical" name="LUSE_VDW"> F  </i>
   <i type="int" name="IVDW_NL">     1</i>
   <i type="logical" name="LSPIN_VDW"> F  </i>
   <i name="Zab_VDW">     -0.84910000</i>
   <i name="PARAM1">      0.12340000</i>
   <i name="PARAM2">      1.00000000</i>
   <i name="PARAM3">      0.00000000</i>
  </separator>
  <separator name="model GW" >
   <i type="int" name="MODEL_GW">     0</i>
   <i name="MODEL_EPS0">      6.39733692</i>
   <i name="MODEL_ALPHA">      1.00000000</i>
  </separator>
  <separator name="linear response parameters" >
   <i type="logical" name="LEPSILON"> F  </i>
   <i type="logical" name="LRPA"> F  </i>
   <i type="logical" name="LNABLA"> F  </i>
   <i type="logical" name="LVEL"> F  </i>
   <i name="CSHIFT">      0.10000000</i>
   <i name="OMEGAMAX">     -1.00000000</i>
   <i name="DEG_THRESHOLD">      0.00200000</i>
   <i name="RTIME">     -0.10000000</i>
   <i name="WPLASMAI">      0.00000000</i>
   <v name="DFIELD">      0.00000000      0.00000000      0.00000000</v>
   <v name="WPLASMA">      0.00000000      0.00000000      0.00000000      0.00000000      0.00000000      0.00000000      0.00000000      0.00000000      0.00000000</v>
  </separator>
  <separator name="orbital magnetization" >
   <i type="logical" name="NUCIND"> F  </i>
   <v name="MAGPOS">      0.00000000      0.00000000      0.00000000</v>
   <i type="logical" name="LNICSALL"> T  </i>
   <i type="logical" name="ORBITALMAG"> F  </i>
   <i type="logical" name="LMAGBLOCH"> F  </i>
   <i type="logical" name="LCHIMAG"> F  </i>
   <i type="logical" name="LGAUGE"> T  </i>
   <i type="int" name="MAGATOM">     0</i>
   <v name="MAGDIPOL">      0.00000000      0.00000000      0.00000000</v>
   <v name="AVECCONST">      0.00000000      0.00000000      0.00000000</v>
  </separator>
  <separator name="response functions" >
   <i type="logical" name="LALL_IN_ONE"> F  </i>
   <i type="int" name="IALL_IN_ONE">    -1</i>
   <i type="int" name="NBANDS_WAVE">    -1</i>
   <i type="logical" name="LFINITE_TEMPERATURE"> F  </i>
   <i type="logical" name="LADDER"> F  </i>
   <i type="logical" name="LRPAFORCE"> F  </i>
   <i type="logical" name="LFXC"> F  </i>
   <i type="logical" name="LHARTREE"> T  </i>
   <i type="int" name="IBSE">     0</i>
   <v type="int" name="KPOINT">    -1     0     0     0</v>
   <i type="logical" name="LTCTC"> F  </i>
   <i type="logical" name="LTCTE"> F  </i>
   <i type="logical" name="LTETE"> F  </i>
   <i type="logical" name="LTRIPLET"> F  </i>
   <i type="logical" name="LFXCEPS"> F  </i>
   <i type="logical" name="LFXHEG"> F  </i>
   <i type="int" name="NATURALO">     2</i>
   <i type="logical" name="LHOLEGF"> F  </i>
   <i type="logical" name="L2ORDER"> F  </i>
   <i type="logical" name="LDMP1"> F  </i>
   <i type="logical" name="LMP2LT"> F  </i>
   <i type="logical" name="LSMP2LT"> F  </i>
   <i type="logical" name="LGWLF"> F  </i>
   <i name="ENCUTGW">     -1.60000002</i>
   <i name="ENCUTGWSOFT">     -1.60000002</i>
   <i name="ENCUTLF">     -1.00000000</i>
   <i type="logical" name="LESF_SPLINES"> F  </i>
   <i type="int" name="LMAXMP2">    -1</i>
   <i name="SCISSOR">      0.00000000</i>
   <i type="int" name="NOMEGA">     0</i>
   <i type="int" name="NOMEGAR">     0</i>
   <i type="int" name="NBANDSGW">    -1</i>
   <i type="int" name="NBANDSO">    -1</i>
   <i type="int" name="NBANDSV">    -1</i>
   <i type="int" name="NELMGW">     1</i>
   <i type="int" name="NELMHF">     1</i>
   <i type="int" name="DIM">     3</i>
   <i type="int" name="IESPILON">     4</i>
   <i type="int" name="ANTIRES">     0</i>
   <i name="OMEGAMAX">    -30.00000000</i>
   <i name="OMEGAMIN">    -30.00000000</i>
   <i name="OMEGATL">   -200.00000000</i>
   <i type="int" name="OMEGAGRID">     0</i>
   <i name="CSHIFT">     -0.10000000</i>
   <i type="logical" name="LSELFENERGY"> F  </i>
   <i type="logical" name="LSPECTRAL"> F  </i>
   <i type="logical" name="LSPECTRALGW"> F  </i>
   <i type="logical" name="LSINGLES"> F  </i>
   <i type="logical" name="LFERMIGW"> F  </i>
   <i type="logical" name="ODDONLYGW"> F  </i>
   <i type="logical" name="EVENONLYGW"> F  </i>
   <i type="int" name="NKREDLFX">     1</i>
   <i type="int" name="NKREDLFY">     1</i>
   <i type="int" name="NKREDLFZ">     1</i>
   <i type="int" name="MAXMEM">  2800</i>
   <i type="int" name="TELESCOPE">     0</i>
   <i type="int" name="NTAUPAR">    -1</i>
   <i type="int" name="NOMEGAPAR">    -1</i>
   <i name="DAMP_NEWTON">      0.80000001</i>
   <i name="LAMBDA">      1.00000000</i>
  </separator>
  <separator name="External order field" >
   <i name="OFIELD_KAPPA">      0.00000000</i>
   <v name="OFIELD_K">      0.00000000      0.00000000      0.00000000</v>
   <i name="OFIELD_Q6_NEAR">      0.00000000</i>
   <i name="OFIELD_Q6_FAR">      0.00000000</i>
   <i name="OFIELD_A">      0.00000000</i>
  </separator>
  <separator name="optional k-points parameters" >
   <i type="int" name="KPOINTS_OPT_MODE">     1</i>
   <i type="logical" name="LKPOINTS_OPT"> F  </i>
  </separator>
 </parameters>
 <atominfo>
  <atoms>     119 </atoms>
  <types>       3 </types>
  <array name="atoms" >
   <dimension dim="1">ion</dimension>
   <field type="string">element</field>
   <field type="int">atomtype</field>
   <set>
    <rc><c>Ga</c><c>   1</c></rc>
    <rc><c>Ga</c><c>   1</c></rc>
    <rc><c>Ga</c><c>   1</c></rc>
    <rc><c>Ga</c><c>   1</c></rc>
    <rc><c>Ga</c><c>   1</c></rc>
    <rc><c>Ga</c><c>   1</c></rc>
    <rc><c>Ga</c><c>   1</c></rc>
    <rc><c>Ga</c><c>   1</c></rc>
    <rc><c>Ga</c><c>   1</c></rc>
    <rc><c>Ga</c><c>   1</c></rc>
    <rc><c>Ga</c><c>   1</c></rc>
    <rc><c>Ga</c><c>   1</c></rc>
    <rc><c>Ga</c><c>   1</c></rc>
    <rc><c>Ga</c><c>   1</c></rc>
    <rc><c>Ga</c><c>   1</c></rc>
    <rc><c>Ga</c><c>   1</c></rc>
    <rc><c>Ga</c><c>   1</c></rc>
    <rc><c>Ga</c><c>   1</c></rc>
    <rc><c>Ga</c><c>   1</c></rc>
    <rc><c>Ga</c><c>   1</c></rc>
    <rc><c>Ga</c><c>   1</c></rc>
    <rc><c>Ga</c><c>   1</c></rc>
    <rc><c>Ga</c><c>   1</c></rc>
    <rc><c>Ga</c><c>   1</c></rc>
    <rc><c>Ga</c><c>   1</c></rc>
    <rc><c>Ga</c><c>   1</c></rc>
    <rc><c>Ga</c><c>   1</c></rc>
    <rc><c>Ga</c><c>   1</c></rc>
    <rc><c>Ga</c><c>   1</c></rc>
    <rc><c>Ga</c><c>   1</c></rc>
    <rc><c>Ga</c><c>   1</c></rc>
    <rc><c>Ga</c><c>   1</c></rc>
    <rc><c>Ga</c><c>   1</c></rc>
    <rc><c>Ga</c><c>   1</c></rc>
    <rc><c>Ga</c><c>   1</c></rc>
    <rc><c>Ga</c><c>   1</c></rc>
    <rc><c>Ga</c><c>   1</c></rc>
    <rc><c>Ga</c><c>   1</c></rc>
    <rc><c>Ga</c><c>   1</c></rc>
    <rc><c>Ga</c><c>   1</c></rc>
    <rc><c>Ga</c><c>   1</c></rc>
    <rc><c>Ga</c><c>   1</c></rc>
    <rc><c>Ga</c><c>   1</c></rc>
    <rc><c>Ga</c><c>   1</c></rc>
    <rc><c>Ga</c><c>   1</c></rc>
    <rc><c>Ga</c><c>   1</c></rc>
    <rc><c>Ga</c><c>   1</c></rc>
    <rc><c>O </c><c>   2</c></rc>
    <rc><c>O </c><c>   2</c></rc>
    <rc><c>O </c><c>   2</c></rc>
    <rc><c>O </c><c>   2</c></rc>
    <rc><c>O </c><c>   2</c></rc>
    <rc><c>O </c><c>   2</c></rc>
    <rc><c>O </c><c>   2</c></rc>
    <rc><c>O </c><c>   2</c></rc>
    <rc><c>O </c><c>   2</c></rc>
    <rc><c>O </c><c>   2</c></rc>
    <rc><c>O </c><c>   2</c></rc>
    <rc><c>O </c><c>   2</c></rc>
    <rc><c>O </c><c>   2</c></rc>
    <rc><c>O </c><c>   2</c></rc>
    <rc><c>O </c><c>   2</c></rc>
    <rc><c>O </c><c>   2</c></rc>
    <rc><c>O </c><c>   2</c></rc>
    <rc><c>O </c><c>   2</c></rc>
    <rc><c>O </c><c>   2</c></rc>
    <rc><c>O </c><c>   2</c></rc>
    <rc><c>O </c><c>   2</c></rc>
    <rc><c>O </c><c>   2</c></rc>
    <rc><c>O </c><c>   2</c></rc>
    <rc><c>O </c><c>   2</c></rc>
    <rc><c>O </c><c>   2</c></rc>
    <rc><c>O </c><c>   2</c></rc>
    <rc><c>O </c><c>   2</c></rc>
    <rc><c>O </c><c>   2</c></rc>
    <rc><c>O </c><c>   2</c></rc>
    <rc><c>O </c><c>   2</c></rc>
    <rc><c>O </c><c>   2</c></rc>
    <rc><c>O </c><c>   2</c></rc>
    <rc><c>O </c><c>   2</c></rc>
    <rc><c>O </c><c>   2</c></rc>
    <rc><c>O </c><c>   2</c></rc>
    <rc><c>O </c><c>   2</c></rc>
    <rc><c>O </c><c>   2</c></rc>
    <rc><c>O </c><c>   2</c></rc>
    <rc><c>O </c><c>   2</c></rc>
    <rc><c>O </c><c>   2</c></rc>
    <rc><c>O </c><c>   2</c></rc>
    <rc><c>O </c><c>   2</c></rc>
    <rc><c>O </c><c>   2</c></rc>
    <rc><c>O </c><c>   2</c></rc>
    <rc><c>O </c><c>   2</c></rc>
    <rc><c>O </c><c>   2</c></rc>
    <rc><c>O </c><c>   2</c></rc>
    <rc><c>O </c><c>   2</c></rc>
    <rc><c>O </c><c>   2</c></rc>
    <rc><c>O </c><c>   2</c></rc>
    <rc><c>O </c><c>   2</c></rc>
    <rc><c>O </c><c>   2</c></rc>
    <rc><c>O </c><c>   2</c></rc>
    <rc><c>O </c><c>   2</c></rc>
    <rc><c>O </c><c>   2</c></rc>
    <rc><c>O </c><c>   2</c></rc>
    <rc><c>O </c><c>   2</c></rc>
    <rc><c>O </c><c>   2</c></rc>
    <rc><c>O </c><c>   2</c></rc>
    <rc><c>O </c><c>   2</c></rc>
    <rc><c>O </c><c>   2</c></rc>
    <rc><c>O </c><c>   2</c></rc>
    <rc><c>O </c><c>   2</c></rc>
    <rc><c>O </c><c>   2</c></rc>
    <rc><c>O </c><c>   2</c></rc>
    <rc><c>O </c><c>   2</c></rc>
    <rc><c>O </c><c>   2</c></rc>
    <rc><c>O </c><c>   2</c></rc>
    <rc><c>O </c><c>   2</c></rc>
    <rc><c>O </c><c>   2</c></rc>
    <rc><c>O </c><c>   2</c></rc>
    <rc><c>P </c><c>   3</c></rc>
   </set>
  </array>
  <array name="atomtypes" >
   <dimension dim="1">type</dimension>
   <field type="int">atomspertype</field>
   <field type="string">element</field>
   <field>mass</field>
   <field>valence</field>
   <field type="string">pseudopotential</field>
   <set>
    <rc><c>  47</c><c>Ga</c><c>     69.72300000</c><c>     13.00000000</c><c>  PAW_PBE Ga_d 06Jul2010                </c></rc>
    <rc><c>  71</c><c>O </c><c>     16.00000000</c><c>      6.00000000</c><c>   PAW_PBE O 08Apr2002                  </c></rc>
    <rc><c>   1</c><c>P </c><c>     30.97400000</c><c>      5.00000000</c><c>  PAW_PBE P 06Sep2000                   </c></rc>
   </set>
  </array>
 </atominfo>
 <structure name="initialpos" >
  <crystal>
   <varray name="basis" >
    <v>       0.00000000      12.28047342       0.00000000 </v>
    <v>       9.14270205       0.00000000       0.00000000 </v>
    <v>       0.00000000      -2.76826177     -11.30069772 </v>
   </varray>
   <i name="volume">   1268.80515525 </i>
   <varray name="rec_basis" >
    <v>       0.00000000       0.08143009      -0.01994742 </v>
    <v>       0.10937686      -0.00000000       0.00000000 </v>
    <v>       0.00000000       0.00000000      -0.08849011 </v>
   </varray>
  </crystal>
  <varray name="positions" >
   <v>       0.64677555       0.00477655       0.15485943 </v>
   <v>       0.66545090       0.00495812       0.66261345 </v>
   <v>       0.64648163       0.33376377       0.15608782 </v>
   <v>       0.66489513       0.32761834       0.65968366 </v>
   <v>       0.64439819       0.67184451       0.15795552 </v>
   <v>       0.66516753       0.66424191       0.66163160 </v>
   <v>       0.83079788       0.17102179       0.34129924 </v>
   <v>       0.85624051       0.16090346       0.85755479 </v>
   <v>       0.83093513       0.49904471       0.34062730 </v>
   <v>       0.84881178       0.49487377       0.84086777 </v>
   <v>       0.82877802       0.83460303       0.34475697 </v>
   <v>       0.84277342       0.82736099       0.84908006 </v>
   <v>       0.57396532       0.16710045       0.39351406 </v>
   <v>       0.58352607       0.17117553       0.89667172 </v>
   <v>       0.59481652       0.50689729       0.40569662 </v>
   <v>       0.60000655       0.50451709       0.89792064 </v>
   <v>       0.58731024       0.83370842       0.40310184 </v>
   <v>       0.59419012       0.83730011       0.89810953 </v>
   <v>       0.90533890       0.98983173       0.11014877 </v>
   <v>       0.90055669       0.96750471       0.60204000 </v>
   <v>       0.90951362       0.36052912       0.10222268 </v>
   <v>       0.91306450       0.33432676       0.60185255 </v>
   <v>       0.89254613       0.62239254       0.10522525 </v>
   <v>       0.89902315       0.70418609       0.59762153 </v>
   <v>       0.14923271       0.16236785       0.66782332 </v>
   <v>       0.17795445       0.47682773       0.15748502 </v>
   <v>       0.14781373       0.50260131       0.65578559 </v>
   <v>       0.13371538       0.82815920       0.12997736 </v>
   <v>       0.17628224       0.83279584       0.64710102 </v>
   <v>       0.33056134       0.00409554       0.33291065 </v>
   <v>       0.34016260       0.00706516       0.84877200 </v>
   <v>       0.34088992       0.33237825       0.35051497 </v>
   <v>       0.34048062       0.34102674       0.83394802 </v>
   <v>       0.33400512       0.67080125       0.34028403 </v>
   <v>       0.34704319       0.66689803       0.83307274 </v>
   <v>       0.08514041       0.00141223       0.39778468 </v>
   <v>       0.11798687       0.98145261       0.94526138 </v>
   <v>       0.08681001       0.33016262       0.39502985 </v>
   <v>       0.10485636       0.33019038       0.93229954 </v>
   <v>       0.08539113       0.66635219       0.38948246 </v>
   <v>       0.09100220       0.66443549       0.89217214 </v>
   <v>       0.36773585       0.18366288       0.09444891 </v>
   <v>       0.41000238       0.16598526       0.60563704 </v>
   <v>       0.40175768       0.50535797       0.09670550 </v>
   <v>       0.41328458       0.49888420       0.60093465 </v>
   <v>       0.38918330       0.86076884       0.09560038 </v>
   <v>       0.41639723       0.83382095       0.59482750 </v>
   <v>       0.95518635       0.17251049       0.13317615 </v>
   <v>       0.98683861       0.15382529       0.63141874 </v>
   <v>       0.04928629       0.40294476       0.06342997 </v>
   <v>       0.98515802       0.51673968       0.61168671 </v>
   <v>       0.97127872       0.80188068       0.12488809 </v>
   <v>       0.02986404       0.83371736       0.63840317 </v>
   <v>       0.49692304       0.99346586       0.39108991 </v>
   <v>       0.50312520       0.99821191       0.86167611 </v>
   <v>       0.50650487       0.34606919       0.39613719 </v>
   <v>       0.50794808       0.34587954       0.85983421 </v>
   <v>       0.50154789       0.66718258       0.38499384 </v>
   <v>       0.51030464       0.66850295       0.86325423 </v>
   <v>       0.65862312       0.16938720       0.27955922 </v>
   <v>       0.67140121       0.16779138       0.78276782 </v>
   <v>       0.65738127       0.50233063       0.27664055 </v>
   <v>       0.67442788       0.49561443       0.77748020 </v>
   <v>       0.65849570       0.83700614       0.28013474 </v>
   <v>       0.67539713       0.83271047       0.78071618 </v>
   <v>       0.81451868       0.99340182       0.22083579 </v>
   <v>       0.82934613       0.01029584       0.73302928 </v>
   <v>       0.81236726       0.33483090       0.22572525 </v>
   <v>       0.83223200       0.32736888       0.72035069 </v>
   <v>       0.81030037       0.67247502       0.22197384 </v>
   <v>       0.82699813       0.65554229       0.72460693 </v>
   <v>       0.81884024       0.00841596       0.43941862 </v>
   <v>       0.82899948       0.99070043       0.95114129 </v>
   <v>       0.82233188       0.33649685       0.44900043 </v>
   <v>       0.82767457       0.33342492       0.94045309 </v>
   <v>       0.81466825       0.65984939       0.43852784 </v>
   <v>       0.82202958       0.65823820       0.94252419 </v>
   <v>       0.66327472       0.17093778       0.05279984 </v>
   <v>       0.66468127       0.16470156       0.55112673 </v>
   <v>       0.66173656       0.50416919       0.05707398 </v>
   <v>       0.67445515       0.49904529       0.55980053 </v>
   <v>       0.66303101       0.83555866       0.05594234 </v>
   <v>       0.66276548       0.83390589       0.55966069 </v>
   <v>       0.49162728       0.01232263       0.12445041 </v>
   <v>       0.50106702       0.00156501       0.63020676 </v>
   <v>       0.48818734       0.33903365       0.12343222 </v>
   <v>       0.50057639       0.33194284       0.62829163 </v>
   <v>       0.48442095       0.67937402       0.12061635 </v>
   <v>       0.50224617       0.66499642       0.62806416 </v>
   <v>       0.99171214       0.17060246       0.38931830 </v>
   <v>       0.02191924       0.15563765       0.89800530 </v>
   <v>       0.99464588       0.49870466       0.35966776 </v>
   <v>       0.00877757       0.49288987       0.85256814 </v>
   <v>       0.99269554       0.83038486       0.38250555 </v>
   <v>       0.99552323       0.82099932       0.85902759 </v>
   <v>       0.18003083       0.00736565       0.79529303 </v>
   <v>       0.18004930       0.35312353       0.29388061 </v>
   <v>       0.17149300       0.33357399       0.78817374 </v>
   <v>       0.16447215       0.65858247       0.27050976 </v>
   <v>       0.18036712       0.66004170       0.78026572 </v>
   <v>       0.37757423       0.17947953       0.25592359 </v>
   <v>       0.32327978       0.17123831       0.71421710 </v>
   <v>       0.33855744       0.50712329       0.22952800 </v>
   <v>       0.32627695       0.49939479       0.71112428 </v>
   <v>       0.33803871       0.82323371       0.22910150 </v>
   <v>       0.33397895       0.83218196       0.71197555 </v>
   <v>       0.32871367       0.17111635       0.45486544 </v>
   <v>       0.37480600       0.18181462       0.93465168 </v>
   <v>       0.33247974       0.50536375       0.44853677 </v>
   <v>       0.34734022       0.50882074       0.93542582 </v>
   <v>       0.32410468       0.83283151       0.44654888 </v>
   <v>       0.34585177       0.82592786       0.93368594 </v>
   <v>       0.27310748       0.02063481       0.05284337 </v>
   <v>       0.17032714       0.00946407       0.55469342 </v>
   <v>       0.24529345       0.33688448       0.05431154 </v>
   <v>       0.15227318       0.33199583       0.55755943 </v>
   <v>       0.17566677       0.64896886       0.04952166 </v>
   <v>       0.17162596       0.65852467       0.54477634 </v>
   <v>       0.14905879       0.04008073       0.23878753 </v>
  </varray>
 </structure>
 <calculation>
  <scstep>
   <time name="total">    3.95    4.46</time>
   <energy>
    <i name="alphaZ">   5376.25786726 </i>
    <i name="ewald"> -86397.21290821 </i>
    <i name="hartreedc">  -2111.92512738 </i>
    <i name="XCdc">   2816.02854262 </i>
    <i name="pawpsdc"> 342103.77984986 </i>
    <i name="pawaedc">-370905.60320139 </i>
    <i name="eentropy">     -0.01392050 </i>
    <i name="bandstr"> -40445.75581891 </i>
    <i name="atom"> 131500.23896116 </i>
    <i name="e_fr_energy"> -18064.20575550 </i>
    <i name="e_wo_entrp"> -18064.19183500 </i>
    <i name="e_0_energy"> -18064.19879525 </i>
   </energy>
  </scstep>
  <scstep>
   <time name="total">    3.14    3.14</time>
   <energy>
    <i name="e_fr_energy"> -64598.84871336 </i>
    <i name="e_wo_entrp"> -64598.83805513 </i>
    <i name="e_0_energy"> -64598.84338424 </i>
   </energy>
  </scstep>
  <scstep>
   <time name="total">    3.57    3.57</time>
   <energy>
    <i name="e_fr_energy"> -71047.06557812 </i>
    <i name="e_wo_entrp"> -71047.04885870 </i>
    <i name="e_0_energy"> -71047.05721841 </i>
   </energy>
  </scstep>
  <scstep>
   <time name="total">    3.89    3.89</time>
   <energy>
    <i name="e_fr_energy"> -72028.24927115 </i>
    <i name="e_wo_entrp"> -72028.22544275 </i>
    <i name="e_0_energy"> -72028.23735695 </i>
   </energy>
  </scstep>
  <scstep>
   <time name="total">  235.06  235.03</time>
   <energy>
    <i name="e_fr_energy"> -42428.90724070 </i>
    <i name="e_wo_entrp"> -42428.90724070 </i>
    <i name="e_0_energy"> -42428.90724070 </i>
   </energy>
  </scstep>
  <scstep>
   <time name="total"> 1173.07 1172.91</time>
   <energy>
    <i name="e_fr_energy">  52685.16422139 </i>
    <i name="e_wo_entrp">  52685.17596941 </i>
    <i name="e_0_energy">  52685.17009540 </i>
   </energy>
  </scstep>
  <scstep>
   <time name="total">  468.85  468.78</time>
   <energy>
    <i name="e_fr_energy">  62910.77804275 </i>
    <i name="e_wo_entrp">  62910.77804275 </i>
    <i name="e_0_energy">  62910.77804275 </i>
   </energy>
  </scstep>
  <scstep>
   <time name="total">  468.69  468.64</time>
   <energy>
    <i name="e_fr_energy">  47441.21991604 </i>
    <i name="e_wo_entrp">  47441.22440097 </i>
    <i name="e_0_energy">  47441.22215851 </i>
   </energy>
  </scstep>
  <scstep>
   <time name="total">  468.72  468.65</time>
   <energy>
    <i name="e_fr_energy">  50108.79799205 </i>
    <i name="e_wo_entrp">  50108.79814725 </i>
    <i name="e_0_energy">  50108.79806965 </i>
   </energy>
  </scstep>
  <scstep>
   <time name="total">  468.48  468.41</time>
   <energy>
    <i name="e_fr_energy">  52764.87267815 </i>
    <i name="e_wo_entrp">  52764.87988761 </i>
    <i name="e_0_energy">  52764.87628288 </i>
   </energy>
  </scstep>
  <scstep>
   <time name="total">  468.44  468.37</time>
   <energy>
    <i name="e_fr_energy">  65394.53143612 </i>
    <i name="e_wo_entrp">  65394.54147527 </i>
    <i name="e_0_energy">  65394.53645570 </i>
   </energy>
  </scstep>
  <scstep>
   <time name="total">  468.45  468.38</time>
   <energy>
    <i name="e_fr_energy">  63346.95348438 </i>
    <i name="e_wo_entrp">  63346.95852210 </i>
    <i name="e_0_energy">  63346.95600324 </i>
   </energy>
  </scstep>
  <scstep>
   <time name="total">  468.47  468.41</time>
   <energy>
    <i name="e_fr_energy">  78591.81867073 </i>
    <i name="e_wo_entrp">  78591.81977983 </i>
    <i name="e_0_energy">  78591.81922528 </i>
   </energy>
  </scstep>
  <scstep>
   <time name="total">  468.37  468.29</time>
   <energy>
    <i name="e_fr_energy">  99717.29897891 </i>
    <i name="e_wo_entrp">  99717.29897891 </i>
    <i name="e_0_energy">  99717.29897891 </i>
   </energy>
  </scstep>
  <scstep>
   <time name="total">  468.43  468.36</time>
   <energy>
    <i name="e_fr_energy"> 109091.77827269 </i>
    <i name="e_wo_entrp"> 109091.77827269 </i>
    <i name="e_0_energy"> 109091.77827269 </i>
   </energy>
  </scstep>
  <scstep>
   <time name="total">  468.43  468.36</time>
   <energy>
    <i name="e_fr_energy"> 121488.47730759 </i>
    <i name="e_wo_entrp"> 121488.47878200 </i>
    <i name="e_0_energy"> 121488.47804479 </i>
   </energy>
  </scstep>
  <scstep>
   <time name="total">  468.63  468.56</time>
   <energy>
    <i name="e_fr_energy"> 126979.69365529 </i>
    <i name="e_wo_entrp"> 126979.69365853 </i>
    <i name="e_0_energy"> 126979.69365691 </i>
   </energy>
  </scstep>
  <scstep>
   <time name="total">  468.39  468.35</time>
   <energy>
    <i name="e_fr_energy"> 133116.88217432 </i>
    <i name="e_wo_entrp"> 133116.88217432 </i>
    <i name="e_0_energy"> 133116.88217432 </i>
   </energy>
  </scstep>
  <scstep>
   <time name="total">  468.52  468.46</time>
   <energy>
    <i name="e_fr_energy"> 138811.52935237 </i>
    <i name="e_wo_entrp"> 138811.52935611 </i>
    <i name="e_0_energy"> 138811.52935424 </i>
   </energy>
  </scstep>
  <scstep>
   <time name="total">  468.44  468.37</time>
   <energy>
    <i name="e_fr_energy"> 137455.65052440 </i>
    <i name="e_wo_entrp"> 137455.65052440 </i>
    <i name="e_0_energy"> 137455.65052440 </i>
   </energy>
  </scstep>
  <scstep>
   <time name="total">  468.40  468.32</time>
   <energy>
    <i name="e_fr_energy"> 142673.59652285 </i>
    <i name="e_wo_entrp"> 142673.59723606 </i>
    <i name="e_0_energy"> 142673.59687945 </i>
   </energy>
  </scstep>
  <scstep>
   <time name="total">  468.72  468.66</time>
   <energy>
    <i name="e_fr_energy"> 160073.99441169 </i>
    <i name="e_wo_entrp"> 160073.99721347 </i>
    <i name="e_0_energy"> 160073.99581258 </i>
   </energy>
  </scstep>
  <scstep>
   <time name="total">  468.53  468.47</time>
   <energy>
    <i name="e_fr_energy"> 173940.51057889 </i>
    <i name="e_wo_entrp"> 173940.51115716 </i>
    <i name="e_0_energy"> 173940.51086803 </i>
   </energy>
  </scstep>
  <scstep>
   <time name="total">  468.54  468.48</time>
   <energy>
    <i name="e_fr_energy"> 189971.79254411 </i>
    <i name="e_wo_entrp"> 189971.79305175 </i>
    <i name="e_0_energy"> 189971.79279793 </i>
   </energy>
  </scstep>
  <scstep>
   <time name="total">  468.63  468.56</time>
   <energy>
    <i name="e_fr_energy"> 200576.94849542 </i>
    <i name="e_wo_entrp"> 200576.94861704 </i>
    <i name="e_0_energy"> 200576.94855623 </i>
   </energy>
  </scstep>
  <scstep>
   <time name="total">  468.72  468.66</time>
   <energy>
    <i name="e_fr_energy"> 218222.82095939 </i>
    <i name="e_wo_entrp"> 218222.82799471 </i>
    <i name="e_0_energy"> 218222.82447705 </i>
   </energy>
  </scstep>
  <scstep>
   <time name="total">  468.76  468.70</time>
   <energy>
    <i name="e_fr_energy"> 229042.52545912 </i>
    <i name="e_wo_entrp"> 229042.52559671 </i>
    <i name="e_0_energy"> 229042.52552792 </i>
   </energy>
  </scstep>
  <scstep>
   <time name="total">  468.69  468.62</time>
   <energy>
    <i name="e_fr_energy"> 243493.66728786 </i>
    <i name="e_wo_entrp"> 243493.67169481 </i>
    <i name="e_0_energy"> 243493.66949133 </i>
   </energy>
  </scstep>
  <scstep>
   <time name="total">  468.72  468.66</time>
   <energy>
    <i name="e_fr_energy"> 250952.52711622 </i>
    <i name="e_wo_entrp"> 250952.52863166 </i>
    <i name="e_0_energy"> 250952.52787394 </i>
   </energy>
  </scstep>
  <scstep>
   <time name="total">  468.72  468.67</time>
   <energy>
    <i name="e_fr_energy"> 261195.92529299 </i>
    <i name="e_wo_entrp"> 261195.92873674 </i>
    <i name="e_0_energy"> 261195.92701486 </i>
   </energy>
  </scstep>
  <scstep>
   <time name="total">  468.65  468.60</time>
   <energy>
    <i name="e_fr_energy"> 266474.40915394 </i>
    <i name="e_wo_entrp"> 266474.41666520 </i>
    <i name="e_0_energy"> 266474.41290957 </i>
   </energy>
  </scstep>
  <scstep>
   <time name="total">  468.81  468.74</time>
   <energy>
    <i name="e_fr_energy"> 272880.33477034 </i>
    <i name="e_wo_entrp"> 272880.34289901 </i>
    <i name="e_0_energy"> 272880.33883468 </i>
   </energy>
  </scstep>
  <scstep>
   <time name="total">  468.46  468.39</time>
   <energy>
    <i name="e_fr_energy"> 280134.12659844 </i>
    <i name="e_wo_entrp"> 280134.12937087 </i>
    <i name="e_0_energy"> 280134.12798465 </i>
   </energy>
  </scstep>
  <scstep>
   <time name="total">  468.44  468.37</time>
   <energy>
    <i name="e_fr_energy"> 277544.15898962 </i>
    <i name="e_wo_entrp"> 277544.15898992 </i>
    <i name="e_0_energy"> 277544.15898977 </i>
   </energy>
  </scstep>
  <scstep>
   <time name="total">  468.77  468.71</time>
   <energy>
    <i name="e_fr_energy"> 176438.33088700 </i>
    <i name="e_wo_entrp"> 176438.33872882 </i>
    <i name="e_0_energy"> 176438.33480791 </i>
   </energy>
  </scstep>
  <scstep>
   <time name="total">  468.83  468.77</time>
   <energy>
    <i name="e_fr_energy">  90450.23776278 </i>
    <i name="e_wo_entrp">  90450.23778544 </i>
    <i name="e_0_energy">  90450.23777411 </i>
   </energy>
  </scstep>
  <scstep>
   <time name="total"> 1171.90 1171.75</time>
   <energy>
    <i name="e_fr_energy">  51796.08233632 </i>
    <i name="e_wo_entrp">  51796.09022837 </i>
    <i name="e_0_energy">  51796.08628235 </i>
   </energy>
  </scstep>
  <scstep>
   <time name="total">  468.80  468.72</time>
   <energy>
    <i name="e_fr_energy">  35913.81757023 </i>
    <i name="e_wo_entrp">  35913.81757023 </i>
    <i name="e_0_energy">  35913.81757023 </i>
   </energy>
  </scstep>
  <scstep>
   <time name="total"> 1171.78 1171.60</time>
   <energy>
    <i name="e_fr_energy">  22845.89626070 </i>
    <i name="e_wo_entrp">  22845.89969970 </i>
    <i name="e_0_energy">  22845.89798020 </i>
   </energy>
  </scstep>
  <scstep>
   <time name="total">  468.95  468.88</time>
   <energy>
    <i name="e_fr_energy">  36038.76096034 </i>
    <i name="e_wo_entrp">  36038.76477433 </i>
    <i name="e_0_energy">  36038.76286733 </i>
   </energy>
  </scstep>
  <scstep>
   <time name="total">  468.80  468.73</time>
   <energy>
    <i name="e_fr_energy">  23968.55772348 </i>
    <i name="e_wo_entrp">  23968.56446972 </i>
    <i name="e_0_energy">  23968.56109660 </i>
   </energy>
  </scstep>
  <scstep>
   <time name="total">  468.86  468.79</time>
   <energy>
    <i name="e_fr_energy">  17896.68436539 </i>
    <i name="e_wo_entrp">  17896.69880593 </i>
    <i name="e_0_energy">  17896.69158566 </i>
   </energy>
  </scstep>
  <scstep>
   <time name="total">  469.26  469.20</time>
   <energy>
    <i name="e_fr_energy">  17655.06313894 </i>
    <i name="e_wo_entrp">  17655.07558709 </i>
    <i name="e_0_energy">  17655.06936301 </i>
   </energy>
  </scstep>
  <scstep>
   <time name="total">  469.03  468.96</time>
   <energy>
    <i name="e_fr_energy">   8908.53680558 </i>
    <i name="e_wo_entrp">   8908.54985135 </i>
    <i name="e_0_energy">   8908.54332847 </i>
   </energy>
  </scstep>
  <scstep>
   <time name="total">  469.65  469.59</time>
   <energy>
    <i name="e_fr_energy">   7943.07392181 </i>
    <i name="e_wo_entrp">   7943.09241302 </i>
    <i name="e_0_energy">   7943.08316741 </i>
   </energy>
  </scstep>
  <scstep>
   <time name="total">  470.02  469.96</time>
   <energy>
    <i name="e_fr_energy">   6623.64074287 </i>
    <i name="e_wo_entrp">   6623.65548250 </i>
    <i name="e_0_energy">   6623.64811269 </i>
   </energy>
  </scstep>
  <scstep>
   <time name="total">  469.64  469.57</time>
   <energy>
    <i name="e_fr_energy">   5531.00280773 </i>
    <i name="e_wo_entrp">   5531.02415069 </i>
    <i name="e_0_energy">   5531.01347921 </i>
   </energy>
  </scstep>
  <scstep>
   <time name="total">  469.70  469.63</time>
   <energy>
    <i name="e_fr_energy">   4934.20120242 </i>
    <i name="e_wo_entrp">   4934.22154787 </i>
    <i name="e_0_energy">   4934.21137514 </i>
   </energy>
  </scstep>
  <scstep>
   <time name="total">  470.14  470.08</time>
   <energy>
    <i name="e_fr_energy">   4589.85844323 </i>
    <i name="e_wo_entrp">   4589.87620764 </i>
    <i name="e_0_energy">   4589.86732543 </i>
   </energy>
  </scstep>
  <scstep>
   <time name="total">  469.75  469.68</time>
   <energy>
    <i name="e_fr_energy">   3964.13251401 </i>
    <i name="e_wo_entrp">   3964.14900581 </i>
    <i name="e_0_energy">   3964.14075991 </i>
   </energy>
  </scstep>
  <scstep>
   <time name="total">  469.88  469.81</time>
   <energy>
    <i name="e_fr_energy">   2914.63756664 </i>
    <i name="e_wo_entrp">   2914.64917028 </i>
    <i name="e_0_energy">   2914.64336846 </i>
   </energy>
  </scstep>
  <scstep>
   <time name="total">  469.53  469.47</time>
   <energy>
    <i name="e_fr_energy">   1501.69548786 </i>
    <i name="e_wo_entrp">   1501.70869298 </i>
    <i name="e_0_energy">   1501.70209042 </i>
   </energy>
  </scstep>
  <scstep>
   <time name="total">  469.02  468.95</time>
   <energy>
    <i name="e_fr_energy">    715.18156086 </i>
    <i name="e_wo_entrp">    715.19297996 </i>
    <i name="e_0_energy">    715.18727041 </i>
   </energy>
  </scstep>
  <scstep>
   <time name="total">  469.51  469.45</time>
   <energy>
    <i name="e_fr_energy">    348.37439357 </i>
    <i name="e_wo_entrp">    348.38450716 </i>
    <i name="e_0_energy">    348.37945037 </i>
   </energy>
  </scstep>
  <scstep>
   <time name="total">  469.83  469.76</time>
   <energy>
    <i name="e_fr_energy">     22.43749743 </i>
    <i name="e_wo_entrp">     22.44981784 </i>
    <i name="e_0_energy">     22.44365763 </i>
   </energy>
  </scstep>
  <scstep>
   <time name="total">  469.56  469.50</time>
   <energy>
    <i name="e_fr_energy">   -150.98870632 </i>
    <i name="e_wo_entrp">   -150.97510524 </i>
    <i name="e_0_energy">   -150.98190578 </i>
   </energy>
  </scstep>
  <scstep>
   <time name="total">  469.14  469.08</time>
   <energy>
    <i name="e_fr_energy">   -292.48430516 </i>
    <i name="e_wo_entrp">   -292.46762198 </i>
    <i name="e_0_energy">   -292.47596357 </i>
   </energy>
  </scstep>
  <scstep>
   <time name="total">  469.03  468.98</time>
   <energy>
    <i name="e_fr_energy">   -469.75769297 </i>
    <i name="e_wo_entrp">   -469.75456311 </i>
    <i name="e_0_energy">   -469.75612804 </i>
   </energy>
  </scstep>
  <scstep>
   <time name="total">  469.16  469.11</time>
   <energy>
    <i name="e_fr_energy">   -562.32901723 </i>
    <i name="e_wo_entrp">   -562.32290358 </i>
    <i name="e_0_energy">   -562.32596041 </i>
   </energy>
  </scstep>
  <scstep>
   <time name="total">  468.92  468.86</time>
   <energy>
    <i name="e_fr_energy">   -640.92692450 </i>
    <i name="e_wo_entrp">   -640.91928722 </i>
    <i name="e_0_energy">   -640.92310586 </i>
   </energy>
  </scstep>
  <scstep>
   <time name="total">  469.11  469.04</time>
   <energy>
    <i name="e_fr_energy">   -712.41204533 </i>
    <i name="e_wo_entrp">   -712.40196822 </i>
    <i name="e_0_energy">   -712.40700677 </i>
   </energy>
  </scstep>
  <scstep>
   <time name="total">  468.98  468.91</time>
   <energy>
    <i name="e_fr_energy">   -761.67952135 </i>
    <i name="e_wo_entrp">   -761.67213694 </i>
    <i name="e_0_energy">   -761.67582914 </i>
   </energy>
  </scstep>
  <scstep>
   <time name="total">  468.94  468.89</time>
   <energy>
    <i name="e_fr_energy">   -790.33512516 </i>
    <i name="e_wo_entrp">   -790.32847496 </i>
    <i name="e_0_energy">   -790.33180006 </i>
   </energy>
  </scstep>
  <scstep>
   <time name="total">  468.70  468.65</time>
   <energy>
    <i name="e_fr_energy">   -809.33526378 </i>
    <i name="e_wo_entrp">   -809.33440021 </i>
    <i name="e_0_energy">   -809.33483199 </i>
   </energy>
  </scstep>
  <scstep>
   <time name="total">  468.87  468.81</time>
   <energy>
    <i name="e_fr_energy">   -820.63956374 </i>
    <i name="e_wo_entrp">   -820.63251536 </i>
    <i name="e_0_energy">   -820.63603955 </i>
   </energy>
  </scstep>
  <scstep>
   <time name="total">  468.59  468.53</time>
   <energy>
    <i name="e_fr_energy">   -828.95977158 </i>
    <i name="e_wo_entrp">   -828.95126898 </i>
    <i name="e_0_energy">   -828.95552028 </i>
   </energy>
  </scstep>
  <scstep>
   <time name="total">  468.89  468.83</time>
   <energy>
    <i name="e_fr_energy">   -832.96002842 </i>
    <i name="e_wo_entrp">   -832.95129587 </i>
    <i name="e_0_energy">   -832.95566215 </i>
   </energy>
  </scstep>
  <scstep>
   <time name="total">  468.74  468.69</time>
   <energy>
    <i name="e_fr_energy">   -835.49296751 </i>
    <i name="e_wo_entrp">   -835.48915000 </i>
    <i name="e_0_energy">   -835.49105875 </i>
   </energy>
  </scstep>
  <scstep>
   <time name="total">  468.87  468.81</time>
   <energy>
    <i name="e_fr_energy">   -837.12476329 </i>
    <i name="e_wo_entrp">   -837.12128953 </i>
    <i name="e_0_energy">   -837.12302641 </i>
   </energy>
  </scstep>
  <scstep>
   <time name="total">  468.90  468.84</time>
   <energy>
    <i name="e_fr_energy">   -838.14234318 </i>
    <i name="e_wo_entrp">   -838.13475803 </i>
    <i name="e_0_energy">   -838.13855060 </i>
   </energy>
  </scstep>
  <scstep>
   <time name="total">  468.84  468.77</time>
   <energy>
    <i name="e_fr_energy">   -838.73461145 </i>
    <i name="e_wo_entrp">   -838.72676198 </i>
    <i name="e_0_energy">   -838.73068671 </i>
   </energy>
  </scstep>
  <scstep>
   <time name="total">  468.92  468.85</time>
   <energy>
    <i name="e_fr_energy">   -839.12306353 </i>
    <i name="e_wo_entrp">   -839.11617667 </i>
    <i name="e_0_energy">   -839.11962010 </i>
   </energy>
  </scstep>
  <scstep>
   <time name="total">  468.74  468.68</time>
   <energy>
    <i name="e_fr_energy">   -839.41998021 </i>
    <i name="e_wo_entrp">   -839.41313085 </i>
    <i name="e_0_energy">   -839.41655553 </i>
   </energy>
  </scstep>
  <scstep>
   <time name="total">  469.19  469.13</time>
   <energy>
    <i name="e_fr_energy">   -839.58960710 </i>
    <i name="e_wo_entrp">   -839.58376876 </i>
    <i name="e_0_energy">   -839.58668793 </i>
   </energy>
  </scstep>
  <scstep>
   <time name="total">  468.98  468.91</time>
   <energy>
    <i name="e_fr_energy">   -839.70779584 </i>
    <i name="e_wo_entrp">   -839.70312779 </i>
    <i name="e_0_energy">   -839.70546181 </i>
   </energy>
  </scstep>
  <scstep>
   <time name="total">  468.79  468.73</time>
   <energy>
    <i name="e_fr_energy">   -839.79540929 </i>
    <i name="e_wo_entrp">   -839.79083575 </i>
    <i name="e_0_energy">   -839.79312252 </i>
   </energy>
  </scstep>
  <scstep>
   <time name="total">  468.94  468.87</time>
   <energy>
    <i name="e_fr_energy">   -839.84870866 </i>
    <i name="e_wo_entrp">   -839.84390915 </i>
    <i name="e_0_energy">   -839.84630890 </i>
   </energy>
  </scstep>
  <scstep>
   <time name="total">  468.94  468.87</time>
   <energy>
    <i name="e_fr_energy">   -839.88419677 </i>
    <i name="e_wo_entrp">   -839.87960822 </i>
    <i name="e_0_energy">   -839.88190249 </i>
   </energy>
  </scstep>
  <scstep>
   <time name="total">  468.67  468.61</time>
   <energy>
    <i name="e_fr_energy">   -839.90847650 </i>
    <i name="e_wo_entrp">   -839.90424870 </i>
    <i name="e_0_energy">   -839.90636260 </i>
   </energy>
  </scstep>
  <scstep>
   <time name="total">  468.65  468.59</time>
   <energy>
    <i name="e_fr_energy">   -839.92515582 </i>
    <i name="e_wo_entrp">   -839.92058258 </i>
    <i name="e_0_energy">   -839.92286920 </i>
   </energy>
  </scstep>
  <scstep>
   <time name="total">  468.96  468.89</time>
   <energy>
    <i name="e_fr_energy">   -839.94294272 </i>
    <i name="e_wo_entrp">   -839.93873703 </i>
    <i name="e_0_energy">   -839.94083988 </i>
   </energy>
  </scstep>
  <scstep>
   <time name="total">  469.12  469.06</time>
   <energy>
    <i name="e_fr_energy">   -839.95165695 </i>
    <i name="e_wo_entrp">   -839.94729396 </i>
    <i name="e_0_energy">   -839.94947545 </i>
   </energy>
  </scstep>
  <scstep>
   <time name="total">  469.09  469.02</time>
   <energy>
    <i name="e_fr_energy">   -839.95403651 </i>
    <i name="e_wo_entrp">   -839.94971153 </i>
    <i name="e_0_energy">   -839.95187402 </i>
   </energy>
  </scstep>
  <scstep>
   <time name="total">  468.79  468.74</time>
   <energy>
    <i name="e_fr_energy">   -839.95502244 </i>
    <i name="e_wo_entrp">   -839.95075090 </i>
    <i name="e_0_energy">   -839.95288667 </i>
   </energy>
  </scstep>
  <scstep>
   <time name="total">  469.09  469.04</time>
   <energy>
    <i name="e_fr_energy">   -839.95549932 </i>
    <i name="e_wo_entrp">   -839.95120388 </i>
    <i name="e_0_energy">   -839.95335160 </i>
   </energy>
  </scstep>
  <scstep>
   <time name="total">  468.68  468.62</time>
   <energy>
    <i name="e_fr_energy">   -839.95572790 </i>
    <i name="e_wo_entrp">   -839.95142705 </i>
    <i name="e_0_energy">   -839.95357748 </i>
   </energy>
  </scstep>
  <scstep>
   <time name="total">  468.73  468.68</time>
   <energy>
    <i name="e_fr_energy">   -839.95581884 </i>
    <i name="e_wo_entrp">   -839.95153552 </i>
    <i name="e_0_energy">   -839.95367718 </i>
   </energy>
  </scstep>
  <scstep>
   <time name="total">  468.80  468.74</time>
   <energy>
    <i name="e_fr_energy">   -839.95585938 </i>
    <i name="e_wo_entrp">   -839.95157367 </i>
    <i name="e_0_energy">   -839.95371652 </i>
   </energy>
  </scstep>
  <scstep>
   <time name="total">  468.90  468.84</time>
   <energy>
    <i name="e_fr_energy">   -839.95588598 </i>
    <i name="e_wo_entrp">   -839.95159874 </i>
    <i name="e_0_energy">   -839.95374236 </i>
   </energy>
  </scstep>
  <scstep>
   <time name="total">  699.10  699.02</time>
   <energy>
    <i name="alphaZ">   5376.25786726 </i>
    <i name="ewald"> -86397.21290821 </i>
    <i name="hartreedc"> -34184.80308567 </i>
    <i name="XCdc">   2906.52374766 </i>
    <i name="pawpsdc"> 121768.41001980 </i>
    <i name="pawaedc">-137038.26837008 </i>
    <i name="eentropy">     -0.00428464 </i>
    <i name="bandstr">  -8640.69539274 </i>
    <i name="atom"> 131500.23896116 </i>
    <i name="e_fr_energy">   -839.95589446 </i>
    <i name="e_wo_entrp">   -839.95160982 </i>
    <i name="e_0_energy">   -839.95375214 </i>
   </energy>
  </scstep>
  <structure>
   <crystal>
    <varray name="basis" >
     <v>       0.00000000      12.28047342       0.00000000 </v>
     <v>       9.14270205       0.00000000       0.00000000 </v>
     <v>       0.00000000      -2.76826177     -11.30069772 </v>
    </varray>
    <i name="volume">   1268.80515525 </i>
    <varray name="rec_basis" >
     <v>       0.00000000       0.08143009      -0.01994742 </v>
     <v>       0.10937686      -0.00000000       0.00000000 </v>
     <v>       0.00000000       0.00000000      -0.08849011 </v>
    </varray>
   </crystal>
   <varray name="positions" >
    <v>       0.64677555       0.00477655       0.15485943 </v>
    <v>       0.66545090       0.00495812       0.66261345 </v>
    <v>       0.64648163       0.33376377       0.15608782 </v>
    <v>       0.66489513       0.32761834       0.65968366 </v>
    <v>       0.64439819       0.67184451       0.15795552 </v>
    <v>       0.66516753       0.66424191       0.66163160 </v>
    <v>       0.83079788       0.17102179       0.34129924 </v>
    <v>       0.85624051       0.16090346       0.85755479 </v>
    <v>       0.83093513       0.49904471       0.34062730 </v>
    <v>       0.84881178       0.49487377       0.84086777 </v>
    <v>       0.82877802       0.83460303       0.34475697 </v>
    <v>       0.84277342       0.82736099       0.84908006 </v>
    <v>       0.57396532       0.16710045       0.39351406 </v>
    <v>       0.58352607       0.17117553       0.89667172 </v>
    <v>       0.59481652       0.50689729       0.40569662 </v>
    <v>       0.60000655       0.50451709       0.89792064 </v>
    <v>       0.58731024       0.83370842       0.40310184 </v>
    <v>       0.59419012       0.83730011       0.89810953 </v>
    <v>       0.90533890       0.98983173       0.11014877 </v>
    <v>       0.90055669       0.96750471       0.60204000 </v>
    <v>       0.90951362       0.36052912       0.10222268 </v>
    <v>       0.91306450       0.33432676       0.60185255 </v>
    <v>       0.89254613       0.62239254       0.10522525 </v>
    <v>       0.89902315       0.70418609       0.59762153 </v>
    <v>       0.14923271       0.16236785       0.66782332 </v>
    <v>       0.17795445       0.47682773       0.15748502 </v>
    <v>       0.14781373       0.50260131       0.65578559 </v>
    <v>       0.13371538       0.82815920       0.12997736 </v>
    <v>       0.17628224       0.83279584       0.64710102 </v>
    <v>       0.33056134       0.00409554       0.33291065 </v>
    <v>       0.34016260       0.00706516       0.84877200 </v>
    <v>       0.34088992       0.33237825       0.35051497 </v>
    <v>       0.34048062       0.34102674       0.83394802 </v>
    <v>       0.33400512       0.67080125       0.34028403 </v>
    <v>       0.34704319       0.66689803       0.83307274 </v>
    <v>       0.08514041       0.00141223       0.39778468 </v>
    <v>       0.11798687       0.98145261       0.94526138 </v>
    <v>       0.08681001       0.33016262       0.39502985 </v>
    <v>       0.10485636       0.33019038       0.93229954 </v>
    <v>       0.08539113       0.66635219       0.38948246 </v>
    <v>       0.09100220       0.66443549       0.89217214 </v>
    <v>       0.36773585       0.18366288       0.09444891 </v>
    <v>       0.41000238       0.16598526       0.60563704 </v>
    <v>       0.40175768       0.50535797       0.09670550 </v>
    <v>       0.41328458       0.49888420       0.60093465 </v>
    <v>       0.38918330       0.86076884       0.09560038 </v>
    <v>       0.41639723       0.83382095       0.59482750 </v>
    <v>       0.95518635       0.17251049       0.13317615 </v>
    <v>       0.98683861       0.15382529       0.63141874 </v>
    <v>       0.04928629       0.40294476       0.06342997 </v>
    <v>       0.98515802       0.51673968       0.61168671 </v>
    <v>       0.97127872       0.80188068       0.12488809 </v>
    <v>       0.02986404       0.83371736       0.63840317 </v>
    <v>       0.49692304       0.99346586       0.39108991 </v>
    <v>       0.50312520       0.99821191       0.86167611 </v>
    <v>       0.50650487       0.34606919       0.39613719 </v>
    <v>       0.50794808       0.34587954       0.85983421 </v>
    <v>       0.50154789       0.66718258       0.38499384 </v>
    <v>       0.51030464       0.66850295       0.86325423 </v>
    <v>       0.65862312       0.16938720       0.27955922 </v>
    <v>       0.67140121       0.16779138       0.78276782 </v>
    <v>       0.65738127       0.50233063       0.27664055 </v>
    <v>       0.67442788       0.49561443       0.77748020 </v>
    <v>       0.65849570       0.83700614       0.28013474 </v>
    <v>       0.67539713       0.83271047       0.78071618 </v>
    <v>       0.81451868       0.99340182       0.22083579 </v>
    <v>       0.82934613       0.01029584       0.73302928 </v>
    <v>       0.81236726       0.33483090       0.22572525 </v>
    <v>       0.83223200       0.32736888       0.72035069 </v>
    <v>       0.81030037       0.67247502       0.22197384 </v>
    <v>       0.82699813       0.65554229       0.72460693 </v>
    <v>       0.81884024       0.00841596       0.43941862 </v>
    <v>       0.82899948       0.99070043       0.95114129 </v>
    <v>       0.82233188       0.33649685       0.44900043 </v>
    <v>       0.82767457       0.33342492       0.94045309 </v>
    <v>       0.81466825       0.65984939       0.43852784 </v>
    <v>       0.82202958       0.65823820       0.94252419 </v>
    <v>       0.66327472       0.17093778       0.05279984 </v>
    <v>       0.66468127       0.16470156       0.55112673 </v>
    <v>       0.66173656       0.50416919       0.05707398 </v>
    <v>       0.67445515       0.49904529       0.55980053 </v>
    <v>       0.66303101       0.83555866       0.05594234 </v>
    <v>       0.66276548       0.83390589       0.55966069 </v>
    <v>       0.49162728       0.01232263       0.12445041 </v>
    <v>       0.50106702       0.00156501       0.63020676 </v>
    <v>       0.48818734       0.33903365       0.12343222 </v>
    <v>       0.50057639       0.33194284       0.62829163 </v>
    <v>       0.48442095       0.67937402       0.12061635 </v>
    <v>       0.50224617       0.66499642       0.62806416 </v>
    <v>       0.99171214       0.17060246       0.38931830 </v>
    <v>       0.02191924       0.15563765       0.89800530 </v>
    <v>       0.99464588       0.49870466       0.35966776 </v>
    <v>       0.00877757       0.49288987       0.85256814 </v>
    <v>       0.99269554       0.83038486       0.38250555 </v>
    <v>       0.99552323       0.82099932       0.85902759 </v>
    <v>       0.18003083       0.00736565       0.79529303 </v>
    <v>       0.18004930       0.35312353       0.29388061 </v>
    <v>       0.17149300       0.33357399       0.78817374 </v>
    <v>       0.16447215       0.65858247       0.27050976 </v>
    <v>       0.18036712       0.66004170       0.78026572 </v>
    <v>       0.37757423       0.17947953       0.25592359 </v>
    <v>       0.32327978       0.17123831       0.71421710 </v>
    <v>       0.33855744       0.50712329       0.22952800 </v>
    <v>       0.32627695       0.49939479       0.71112428 </v>
    <v>       0.33803871       0.82323371       0.22910150 </v>
    <v>       0.33397895       0.83218196       0.71197555 </v>
    <v>       0.32871367       0.17111635       0.45486544 </v>
    <v>       0.37480600       0.18181462       0.93465168 </v>
    <v>       0.33247974       0.50536375       0.44853677 </v>
    <v>       0.34734022       0.50882074       0.93542582 </v>
    <v>       0.32410468       0.83283151       0.44654888 </v>
    <v>       0.34585177       0.82592786       0.93368594 </v>
    <v>       0.27310748       0.02063481       0.05284337 </v>
    <v>       0.17032714       0.00946407       0.55469342 </v>
    <v>       0.24529345       0.33688448       0.05431154 </v>
    <v>       0.15227318       0.33199583       0.55755943 </v>
    <v>       0.17566677       0.64896886       0.04952166 </v>
    <v>       0.17162596       0.65852467       0.54477634 </v>
    <v>       0.14905879       0.04008073       0.23878753 </v>
   </varray>
  </structure>
  <varray name="forces" >
   <v>       0.01141878      -0.03156696       0.04437236 </v>
   <v>      -0.00729354       0.09540730      -0.01552255 </v>
   <v>      -0.00241074       0.05923169      -0.00290411 </v>
   <v>       0.00036511       0.06714104      -0.02817941 </v>
   <v>       0.03388119       0.11502360       0.00666198 </v>
   <v>       0.00196844       0.16607786      -0.01603100 </v>
   <v>      -0.02047428      -0.03067410      -0.15452160 </v>
   <v>      -0.10372624      -0.05916109       0.05324158 </v>
   <v>       0.03730736      -0.07844521      -0.05149129 </v>
   <v>       0.03236621      -0.05080272       0.12409736 </v>
   <v>      -0.00223899      -0.06964975      -0.08350898 </v>
   <v>      -0.00835886       0.05763382       0.04832642 </v>
   <v>       0.03147533      -0.01495288      -0.04951182 </v>
   <v>      -0.01162804       0.02890814       0.06879793 </v>
   <v>      -0.08270681      -0.11897262      -0.02044129 </v>
   <v>      -0.03669198      -0.10337992       0.12954836 </v>
   <v>       0.02237838      -0.09764950      -0.05732500 </v>
   <v>       0.00228691      -0.05063448       0.09349930 </v>
   <v>       0.21109287      -0.15050001       0.06884652 </v>
   <v>      -0.21903673      -0.02392557      -0.04716280 </v>
   <v>      -0.41974773       0.25407548       0.24026990 </v>
   <v>      -0.00858084      -0.12178825      -0.01856103 </v>
   <v>       0.50747002      -0.29614901       0.07457557 </v>
   <v>       0.18872364      -0.06428600      -0.03062755 </v>
   <v>      -0.02596403       0.02645999       0.01775278 </v>
   <v>      -0.17749900       0.04219292       0.09514710 </v>
   <v>       0.03052765       0.00657307       0.08266730 </v>
   <v>      -0.09128620      -0.16267700       0.11324016 </v>
   <v>      -0.01105346      -0.28870208       0.09774141 </v>
   <v>       0.06831369       0.17729167      -0.00589454 </v>
   <v>       0.09283090      -0.04040578      -0.12451344 </v>
   <v>      -0.13635561      -0.05521405       0.04697119 </v>
   <v>      -0.05742733       0.00029306      -0.10367039 </v>
   <v>       0.05219413       0.02797999       0.08964711 </v>
   <v>       0.00361418      -0.09235572      -0.13760876 </v>
   <v>       0.07084554      -0.24813245      -0.25145100 </v>
   <v>       0.17113055       0.09710098       0.10485562 </v>
   <v>       0.02990342      -0.01498547      -0.06818429 </v>
   <v>       0.05231508      -0.16983888      -0.11316842 </v>
   <v>      -0.05660122      -0.01610421      -0.02767512 </v>
   <v>      -0.00480498      -0.04749178       0.14965683 </v>
   <v>      -0.17030535      -0.15237065       0.04954928 </v>
   <v>       0.00942285      -0.07243995       0.03125595 </v>
   <v>      -0.10625312       0.04698968       0.00797333 </v>
   <v>       0.03076799      -0.05670199      -0.00345432 </v>
   <v>       0.27052080      -0.08147707       0.00871026 </v>
   <v>       0.01009542      -0.06147881      -0.06946532 </v>
   <v>      -0.08621310      -0.52154383       0.23825517 </v>
   <v>       0.12927159       0.01893204       0.11614606 </v>
   <v>      -0.00502723       0.38185088      -0.02238693 </v>
   <v>      -0.14876012      -0.01628087      -0.05356253 </v>
   <v>       0.04510562      -0.12963663       0.09257666 </v>
   <v>      -0.01757592       0.65004510       0.01868303 </v>
   <v>       0.04791146       0.32640253       0.05059290 </v>
   <v>       0.03535115       0.16475904      -0.21941951 </v>
   <v>      -0.07234211       0.24223610       0.04987486 </v>
   <v>      -0.04412121       0.24042931      -0.21681662 </v>
   <v>       0.03459845       0.30975970      -0.06998917 </v>
   <v>      -0.00598346       0.16096508      -0.17523057 </v>
   <v>      -0.00912041      -0.06681244      -0.07066379 </v>
   <v>       0.01670204      -0.12065361       0.05715582 </v>
   <v>       0.02330777      -0.03825349      -0.14982334 </v>
   <v>       0.03724895      -0.07262181      -0.12572992 </v>
   <v>      -0.04117965      -0.04365959      -0.16052280 </v>
   <v>      -0.02175888       0.01317385      -0.13491028 </v>
   <v>      -0.03170354       0.03624248       0.05093825 </v>
   <v>       0.13562171      -0.23445948      -0.10598883 </v>
   <v>       0.00325351      -0.21361672      -0.23009394 </v>
   <v>       0.10051607      -0.03375706       0.09740955 </v>
   <v>      -0.08131971      -0.07399952       0.00470382 </v>
   <v>      -0.11504954      -0.23153388      -0.09341853 </v>
   <v>       0.10144033       0.33471376       0.34963483 </v>
   <v>      -0.01176189       0.44942691      -0.06741071 </v>
   <v>       0.00243484       0.40660491       0.05032428 </v>
   <v>      -0.00189450       0.46359857       0.12203018 </v>
   <v>      -0.09339389       0.36424178       0.32403770 </v>
   <v>      -0.02080737       0.41298904       0.02372260 </v>
   <v>       0.01727635      -0.45273407       0.02435654 </v>
   <v>       0.01853235      -0.37734892      -0.05621354 </v>
   <v>      -0.00911171      -0.35501231       0.13257298 </v>
   <v>       0.03997563      -0.43277602       0.11880938 </v>
   <v>       0.00108870      -0.40556019       0.05905077 </v>
   <v>      -0.02026810      -0.41320214       0.13884270 </v>
   <v>      -0.30756908       0.10479700       0.02506696 </v>
   <v>      -0.00720994      -0.19360365       0.15864769 </v>
   <v>       0.25374055      -0.03345183       0.05886314 </v>
   <v>       0.01753568      -0.19743043       0.12600957 </v>
   <v>      -0.18994395       0.00672896       0.01931255 </v>
   <v>      -0.00718885      -0.15874870       0.15318062 </v>
   <v>       0.05978849       0.17058685       0.11173059 </v>
   <v>       0.12635537       0.07038110      -0.15605161 </v>
   <v>       0.03793601       0.14105994      -0.17195307 </v>
   <v>       0.19860906      -0.00948848      -0.38674454 </v>
   <v>      -0.02529266       0.22464466       0.03938668 </v>
   <v>      -0.39571910      -0.13734374      -0.13688673 </v>
   <v>       0.10442793       0.33638870      -0.14249730 </v>
[...]
       <r>   -12.4415   233.7852   480.8225 </r>
       <r>   -12.3042   186.1627   506.3876 </r>
       <r>   -12.1669   186.1139   531.9460 </r>
       <r>   -12.0295   130.5934   549.8799 </r>
       <r>   -11.8922   140.2616   569.1416 </r>
       <r>   -11.7549   132.8267   587.3822 </r>
       <r>   -11.6175    87.6481   599.4186 </r>
       <r>   -11.4802    39.1843   604.7997 </r>
       <r>   -11.3429    21.1089   607.6985 </r>
       <r>   -11.2056    16.7850   610.0035 </r>
       <r>   -11.0682    14.4775   611.9917 </r>
       <r>   -10.9309     0.0606   612.0000 </r>
       <r>   -10.7936     0.0000   612.0000 </r>
       <r>   -10.6563     0.0000   612.0000 </r>
       <r>   -10.5189     0.0000   612.0000 </r>
       <r>   -10.3816     0.0000   612.0000 </r>
       <r>   -10.2443     0.0000   612.0000 </r>
       <r>   -10.1070     0.0000   612.0000 </r>
       <r>    -9.9696     0.0000   612.0000 </r>
       <r>    -9.8323     0.0000   612.0000 </r>
       <r>    -9.6950     0.0000   612.0000 </r>
       <r>    -9.5576     0.0000   612.0000 </r>
       <r>    -9.4203     0.0000   612.0000 </r>
       <r>    -9.2830     0.0000   612.0000 </r>
       <r>    -9.1457     0.0000   612.0000 </r>
       <r>    -9.0083     0.0000   612.0000 </r>
       <r>    -8.8710     0.0000   612.0000 </r>
       <r>    -8.7337     0.0000   612.0000 </r>
       <r>    -8.5964     0.0000   612.0000 </r>
       <r>    -8.4590     0.0000   612.0000 </r>
       <r>    -8.3217     0.0000   612.0000 </r>
       <r>    -8.1844     0.0000   612.0000 </r>
       <r>    -8.0471     0.0000   612.0000 </r>
       <r>    -7.9097     0.0000   612.0000 </r>
       <r>    -7.7724     0.0000   612.0000 </r>
       <r>    -7.6351     0.0000   612.0000 </r>
       <r>    -7.4977     0.0000   612.0000 </r>
       <r>    -7.3604     0.0000   612.0000 </r>
       <r>    -7.2231     0.0000   612.0000 </r>
       <r>    -7.0858     0.0000   612.0000 </r>
       <r>    -6.9484     0.0000   612.0000 </r>
       <r>    -6.8111     0.0000   612.0000 </r>
       <r>    -6.6738     0.0000   612.0000 </r>
       <r>    -6.5365     1.0054   612.1381 </r>
       <r>    -6.3991    13.4355   613.9831 </r>
       <r>    -6.2618     0.1229   614.0000 </r>
       <r>    -6.1245     0.0000   614.0000 </r>
       <r>    -5.9872     0.0000   614.0000 </r>
       <r>    -5.8498     0.0000   614.0000 </r>
       <r>    -5.7125     0.0000   614.0000 </r>
       <r>    -5.5752     0.0016   614.0002 </r>
       <r>    -5.4378     2.7688   614.3804 </r>
       <r>    -5.3005     5.1509   615.0878 </r>
       <r>    -5.1632     9.9655   616.4563 </r>
       <r>    -5.0259    25.2838   619.9285 </r>
       <r>    -4.8885    22.0949   622.9627 </r>
       <r>    -4.7512    29.0047   626.9458 </r>
       <r>    -4.6139    32.1722   631.3639 </r>
       <r>    -4.4766    40.1638   636.8795 </r>
       <r>    -4.3392    42.7620   642.7518 </r>
       <r>    -4.2019    41.4895   648.4495 </r>
       <r>    -4.0646    42.8603   654.3353 </r>
       <r>    -3.9273    40.2328   659.8604 </r>
       <r>    -3.7899    39.7667   665.3214 </r>
       <r>    -3.6526    37.4310   670.4617 </r>
       <r>    -3.5153    30.9455   674.7113 </r>
       <r>    -3.3779    27.7094   678.5165 </r>
       <r>    -3.2406    28.7705   682.4675 </r>
       <r>    -3.1033    36.2121   687.4404 </r>
       <r>    -2.9660    39.0404   692.8017 </r>
       <r>    -2.8286    39.4293   698.2164 </r>
       <r>    -2.6913    36.9969   703.2970 </r>
       <r>    -2.5540    39.1738   708.6766 </r>
       <r>    -2.4167    38.6018   713.9777 </r>
       <r>    -2.2793    46.8994   720.4182 </r>
       <r>    -2.1420    39.7477   725.8766 </r>
       <r>    -2.0047    50.4008   732.7980 </r>
       <r>    -1.8674    45.0549   738.9853 </r>
       <r>    -1.7300    56.9036   746.7996 </r>
       <r>    -1.5927    50.7495   753.7689 </r>
       <r>    -1.4554    65.4180   762.7525 </r>
       <r>    -1.3180    54.5659   770.2459 </r>
       <r>    -1.1807    62.0173   778.7625 </r>
       <r>    -1.0434    58.1783   786.7519 </r>
       <r>    -0.9061    60.1307   795.0095 </r>
       <r>    -0.7687    65.1608   803.9578 </r>
       <r>    -0.6314    59.7488   812.1629 </r>
       <r>    -0.4941    56.1880   819.8790 </r>
       <r>    -0.3568    60.4242   828.1769 </r>
       <r>    -0.2194    67.9784   837.5121 </r>
       <r>    -0.0821    65.3878   846.4916 </r>
       <r>     0.0552    63.6793   855.2364 </r>
       <r>     0.1925    68.1297   864.5925 </r>
       <r>     0.3299    69.9810   874.2027 </r>
       <r>     0.4672    76.0597   884.6478 </r>
       <r>     0.6045    85.4080   896.3765 </r>
       <r>     0.7419    81.5736   907.5788 </r>
       <r>     0.8792    83.9033   919.1009 </r>
       <r>     1.0165    84.4622   930.6998 </r>
       <r>     1.1538    98.5661   944.2356 </r>
       <r>     1.2912   102.2671   958.2796 </r>
       <r>     1.4285   103.9169   972.5502 </r>
       <r>     1.5658   101.0928   986.4329 </r>
       <r>     1.7031    87.3254   998.4250 </r>
       <r>     1.8405    82.1466  1009.7059 </r>
       <r>     1.9778    61.8159  1018.1949 </r>
       <r>     2.1151    39.0783  1023.5614 </r>
       <r>     2.2524    30.1020  1027.6952 </r>
       <r>     2.3898    17.0055  1030.0305 </r>
       <r>     2.5271    20.1614  1032.7992 </r>
       <r>     2.6644    32.2420  1037.2269 </r>
       <r>     2.8018     5.6300  1038.0000 </r>
       <r>     2.9391     6.9033  1038.9480 </r>
       <r>     3.0764     7.6579  1039.9996 </r>
       <r>     3.2137     0.0080  1040.0007 </r>
       <r>     3.3511     7.3844  1041.0148 </r>
       <r>     3.4884     7.1682  1041.9992 </r>
       <r>     3.6257     0.0058  1042.0000 </r>
       <r>     3.7630     0.0000  1042.0000 </r>
       <r>     3.9004     0.2577  1042.0354 </r>
       <r>     4.0377    13.3709  1043.8716 </r>
       <r>     4.1750     0.9353  1044.0000 </r>
       <r>     4.3123     0.9133  1044.1254 </r>
       <r>     4.4497     6.3967  1045.0039 </r>
       <r>     4.5870     7.2290  1045.9966 </r>
       <r>     4.7243     0.0343  1046.0013 </r>
       <r>     4.8617     6.0521  1046.8324 </r>
       <r>     4.9990     8.3534  1047.9796 </r>
       <r>     5.1363     0.1488  1048.0000 </r>
       <r>     5.2736     0.0000  1048.0000 </r>
       <r>     5.4110     0.0011  1048.0002 </r>
       <r>     5.5483     1.3613  1048.1871 </r>
       <r>     5.6856     4.2993  1048.7775 </r>
       <r>     5.8229     8.6110  1049.9600 </r>
       <r>     5.9603     0.2911  1050.0000 </r>
       <r>     6.0976     0.0012  1050.0002 </r>
       <r>     6.2349     2.4696  1050.3393 </r>
       <r>     6.3722     6.6796  1051.2566 </r>
       <r>     6.5096     5.4050  1051.9989 </r>
       <r>     6.6469     0.0084  1052.0000 </r>
       <r>     6.7842     0.0000  1052.0000 </r>
       <r>     6.9216     0.0000  1052.0000 </r>
       <r>     7.0589     0.0000  1052.0000 </r>
       <r>     7.1962     0.0000  1052.0000 </r>
       <r>     7.3335     0.6842  1052.0940 </r>
       <r>     7.4709     2.8767  1052.4890 </r>
       <r>     7.6082     0.6113  1052.5730 </r>
       <r>     7.7455     3.0382  1052.9902 </r>
       <r>     7.8828     0.8824  1053.1114 </r>
       <r>     8.0202     1.6190  1053.3337 </r>
       <r>     8.1575     3.2880  1053.7852 </r>
       <r>     8.2948     8.0167  1054.8861 </r>
       <r>     8.4321     3.8398  1055.4134 </r>
       <r>     8.5695     4.9869  1056.0983 </r>
       <r>     8.7068     4.1720  1056.6712 </r>
       <r>     8.8441     4.3030  1057.2621 </r>
       <r>     8.9815     8.6823  1058.4544 </r>
       <r>     9.1188     5.5030  1059.2101 </r>
       <r>     9.2561    10.9742  1060.7172 </r>
       <r>     9.3934    13.9372  1062.6312 </r>
       <r>     9.5308    11.3290  1064.1869 </r>
       <r>     9.6681    13.4971  1066.0404 </r>
       <r>     9.8054    11.2967  1067.5918 </r>
       <r>     9.9427    11.2328  1069.1343 </r>
       <r>    10.0801    19.2585  1071.7790 </r>
       <r>    10.2174    15.1409  1073.8583 </r>
       <r>    10.3547    19.4623  1076.5310 </r>
       <r>    10.4920    25.8483  1080.0806 </r>
       <r>    10.6294    27.9315  1083.9164 </r>
       <r>    10.7667    25.0950  1087.3626 </r>
       <r>    10.9040    23.2316  1090.5529 </r>
       <r>    11.0414    22.7836  1093.6817 </r>
       <r>    11.1787    24.5539  1097.0536 </r>
       <r>    11.3160    26.1829  1100.6492 </r>
       <r>    11.4533    23.0903  1103.8201 </r>
       <r>    11.5907    26.4107  1107.4470 </r>
       <r>    11.7280    30.0872  1111.5788 </r>
       <r>    11.8653    26.0030  1115.1497 </r>
       <r>    12.0026    32.8747  1119.6642 </r>
       <r>    12.1400    28.1726  1123.5331 </r>
       <r>    12.2773    25.1713  1126.9898 </r>
       <r>    12.4146    29.5732  1131.0510 </r>
       <r>    12.5519    24.8578  1134.4646 </r>
       <r>    12.6893    23.3597  1137.6725 </r>
       <r>    12.8266    27.9285  1141.5079 </r>
       <r>    12.9639    29.1185  1145.5066 </r>
       <r>    13.1012    24.8087  1148.9135 </r>
       <r>    13.2386    30.5773  1153.1126 </r>
       <r>    13.3759    25.4468  1156.6071 </r>
       <r>    13.5132    27.0041  1160.3155 </r>
       <r>    13.6506    29.1392  1164.3171 </r>
       <r>    13.7879    32.4519  1168.7736 </r>
       <r>    13.9252    24.9137  1172.1949 </r>
       <r>    14.0625    28.1312  1176.0581 </r>
       <r>    14.1999    26.1305  1179.6465 </r>
       <r>    14.3372    27.0439  1183.3603 </r>
       <r>    14.4745    19.7146  1186.0677 </r>
       <r>    14.6118    23.4659  1189.2901 </r>
       <r>    14.7492    24.0776  1192.5966 </r>
       <r>    14.8865    25.7179  1196.1284 </r>
       <r>    15.0238    23.1823  1199.3119 </r>
       <r>    15.1611    23.6594  1202.5610 </r>
       <r>    15.2985    23.3807  1205.7718 </r>
       <r>    15.4358    25.3821  1209.2574 </r>
       <r>    15.5731    23.2342  1212.4481 </r>
       <r>    15.7105    21.7441  1215.4342 </r>
       <r>    15.8478    22.8876  1218.5772 </r>
       <r>    15.9851    19.5456  1221.2614 </r>
       <r>    16.1224    23.3509  1224.4681 </r>
       <r>    16.2598    18.9461  1227.0699 </r>
       <r>    16.3971    21.9472  1230.0838 </r>
       <r>    16.5344    21.2540  1233.0025 </r>
       <r>    16.6717    19.4616  1235.6751 </r>
       <r>    16.8091    22.8419  1238.8120 </r>
       <r>    16.9464    23.1429  1241.9901 </r>
       <r>    17.0837    19.0369  1244.6043 </r>
       <r>    17.2210    24.6425  1247.9884 </r>
       <r>    17.3584    17.7645  1250.4280 </r>
       <r>    17.4957    18.3167  1252.9433 </r>
       <r>    17.6330    16.2184  1255.1705 </r>
       <r>    17.7704    16.2011  1257.3954 </r>
       <r>    17.9077    16.7604  1259.6970 </r>
       <r>    18.0450    14.3971  1261.6741 </r>
       <r>    18.1823    10.6551  1263.1374 </r>
       <r>    18.3197     9.1864  1264.3989 </r>
       <r>    18.4570     7.7952  1265.4694 </r>
       <r>    18.5943     3.8515  1265.9983 </r>
       <r>    18.7316     0.0124  1266.0000 </r>
       <r>    18.8690     0.0000  1266.0000 </r>
       <r>    19.0063     0.0000  1266.0000 </r>
       <r>    19.1436     0.0000  1266.0000 </r>
       <r>    19.2809     0.0000  1266.0000 </r>
       <r>    19.4183     0.0000  1266.0000 </r>
       <r>    19.5556     0.0000  1266.0000 </r>
       <r>    19.6929     0.0000  1266.0000 </r>
       <r>    19.8303     0.0000  1266.0000 </r>
       <r>    19.9676     0.0000  1266.0000 </r>
       <r>    20.1049     0.0000  1266.0000 </r>
       <r>    20.2422     0.0000  1266.0000 </r>
       <r>    20.3796     0.0000  1266.0000 </r>
      </set>
     </set>
    </array>
   </total>
  </dos>
 </calculation>
 <structure name="finalpos" >
  <crystal>
   <varray name="basis" >
    <v>       0.00000000      12.28047342       0.00000000 </v>
    <v>       9.14270205       0.00000000       0.00000000 </v>
    <v>       0.00000000      -2.76826177     -11.30069772 </v>
   </varray>
   <i name="volume">   1268.80515525 </i>
   <varray name="rec_basis" >
    <v>       0.00000000       0.08143009      -0.01994742 </v>
    <v>       0.10937686      -0.00000000       0.00000000 </v>
    <v>       0.00000000       0.00000000      -0.08849011 </v>
   </varray>
  </crystal>
  <varray name="positions" >
   <v>       0.64677555       0.00477655       0.15485943 </v>
   <v>       0.66545090       0.00495812       0.66261345 </v>
   <v>       0.64648163       0.33376377       0.15608782 </v>
   <v>       0.66489513       0.32761834       0.65968366 </v>
   <v>       0.64439819       0.67184451       0.15795552 </v>
   <v>       0.66516753       0.66424191       0.66163160 </v>
   <v>       0.83079788       0.17102179       0.34129924 </v>
   <v>       0.85624051       0.16090346       0.85755479 </v>
   <v>       0.83093513       0.49904471       0.34062730 </v>
   <v>       0.84881178       0.49487377       0.84086777 </v>
   <v>       0.82877802       0.83460303       0.34475697 </v>
   <v>       0.84277342       0.82736099       0.84908006 </v>
   <v>       0.57396532       0.16710045       0.39351406 </v>
   <v>       0.58352607       0.17117553       0.89667172 </v>
   <v>       0.59481652       0.50689729       0.40569662 </v>
   <v>       0.60000655       0.50451709       0.89792064 </v>
   <v>       0.58731024       0.83370842       0.40310184 </v>
   <v>       0.59419012       0.83730011       0.89810953 </v>
   <v>       0.90533890       0.98983173       0.11014877 </v>
   <v>       0.90055669       0.96750471       0.60204000 </v>
   <v>       0.90951362       0.36052912       0.10222268 </v>
   <v>       0.91306450       0.33432676       0.60185255 </v>
   <v>       0.89254613       0.62239254       0.10522525 </v>
   <v>       0.89902315       0.70418609       0.59762153 </v>
   <v>       0.14923271       0.16236785       0.66782332 </v>
   <v>       0.17795445       0.47682773       0.15748502 </v>
   <v>       0.14781373       0.50260131       0.65578559 </v>
   <v>       0.13371538       0.82815920       0.12997736 </v>
   <v>       0.17628224       0.83279584       0.64710102 </v>
   <v>       0.33056134       0.00409554       0.33291065 </v>
   <v>       0.34016260       0.00706516       0.84877200 </v>
   <v>       0.34088992       0.33237825       0.35051497 </v>
   <v>       0.34048062       0.34102674       0.83394802 </v>
   <v>       0.33400512       0.67080125       0.34028403 </v>
   <v>       0.34704319       0.66689803       0.83307274 </v>
   <v>       0.08514041       0.00141223       0.39778468 </v>
   <v>       0.11798687       0.98145261       0.94526138 </v>
   <v>       0.08681001       0.33016262       0.39502985 </v>
   <v>       0.10485636       0.33019038       0.93229954 </v>
   <v>       0.08539113       0.66635219       0.38948246 </v>
   <v>       0.09100220       0.66443549       0.89217214 </v>
   <v>       0.36773585       0.18366288       0.09444891 </v>
   <v>       0.41000238       0.16598526       0.60563704 </v>
   <v>       0.40175768       0.50535797       0.09670550 </v>
   <v>       0.41328458       0.49888420       0.60093465 </v>
   <v>       0.38918330       0.86076884       0.09560038 </v>
   <v>       0.41639723       0.83382095       0.59482750 </v>
   <v>       0.95518635       0.17251049       0.13317615 </v>
   <v>       0.98683861       0.15382529       0.63141874 </v>
   <v>       0.04928629       0.40294476       0.06342997 </v>
   <v>       0.98515802       0.51673968       0.61168671 </v>
   <v>       0.97127872       0.80188068       0.12488809 </v>
   <v>       0.02986404       0.83371736       0.63840317 </v>
   <v>       0.49692304       0.99346586       0.39108991 </v>
   <v>       0.50312520       0.99821191       0.86167611 </v>
   <v>       0.50650487       0.34606919       0.39613719 </v>
   <v>       0.50794808       0.34587954       0.85983421 </v>
   <v>       0.50154789       0.66718258       0.38499384 </v>
   <v>       0.51030464       0.66850295       0.86325423 </v>
   <v>       0.65862312       0.16938720       0.27955922 </v>
   <v>       0.67140121       0.16779138       0.78276782 </v>
   <v>       0.65738127       0.50233063       0.27664055 </v>
   <v>       0.67442788       0.49561443       0.77748020 </v>
   <v>       0.65849570       0.83700614       0.28013474 </v>
   <v>       0.67539713       0.83271047       0.78071618 </v>
   <v>       0.81451868       0.99340182       0.22083579 </v>
   <v>       0.82934613       0.01029584       0.73302928 </v>
   <v>       0.81236726       0.33483090       0.22572525 </v>
   <v>       0.83223200       0.32736888       0.72035069 </v>
   <v>       0.81030037       0.67247502       0.22197384 </v>
   <v>       0.82699813       0.65554229       0.72460693 </v>
   <v>       0.81884024       0.00841596       0.43941862 </v>
   <v>       0.82899948       0.99070043       0.95114129 </v>
   <v>       0.82233188       0.33649685       0.44900043 </v>
   <v>       0.82767457       0.33342492       0.94045309 </v>
   <v>       0.81466825       0.65984939       0.43852784 </v>
   <v>       0.82202958       0.65823820       0.94252419 </v>
   <v>       0.66327472       0.17093778       0.05279984 </v>
   <v>       0.66468127       0.16470156       0.55112673 </v>
   <v>       0.66173656       0.50416919       0.05707398 </v>
   <v>       0.67445515       0.49904529       0.55980053 </v>
   <v>       0.66303101       0.83555866       0.05594234 </v>
   <v>       0.66276548       0.83390589       0.55966069 </v>
   <v>       0.49162728       0.01232263       0.12445041 </v>
   <v>       0.50106702       0.00156501       0.63020676 </v>
   <v>       0.48818734       0.33903365       0.12343222 </v>
   <v>       0.50057639       0.33194284       0.62829163 </v>
   <v>       0.48442095       0.67937402       0.12061635 </v>
   <v>       0.50224617       0.66499642       0.62806416 </v>
   <v>       0.99171214       0.17060246       0.38931830 </v>
   <v>       0.02191924       0.15563765       0.89800530 </v>
   <v>       0.99464588       0.49870466       0.35966776 </v>
   <v>       0.00877757       0.49288987       0.85256814 </v>
   <v>       0.99269554       0.83038486       0.38250555 </v>
   <v>       0.99552323       0.82099932       0.85902759 </v>
   <v>       0.18003083       0.00736565       0.79529303 </v>
   <v>       0.18004930       0.35312353       0.29388061 </v>
   <v>       0.17149300       0.33357399       0.78817374 </v>
   <v>       0.16447215       0.65858247       0.27050976 </v>
   <v>       0.18036712       0.66004170       0.78026572 </v>
   <v>       0.37757423       0.17947953       0.25592359 </v>
   <v>       0.32327978       0.17123831       0.71421710 </v>
   <v>       0.33855744       0.50712329       0.22952800 </v>
   <v>       0.32627695       0.49939479       0.71112428 </v>
   <v>       0.33803871       0.82323371       0.22910150 </v>
   <v>       0.33397895       0.83218196       0.71197555 </v>
   <v>       0.32871367       0.17111635       0.45486544 </v>
   <v>       0.37480600       0.18181462       0.93465168 </v>
   <v>       0.33247974       0.50536375       0.44853677 </v>
   <v>       0.34734022       0.50882074       0.93542582 </v>
   <v>       0.32410468       0.83283151       0.44654888 </v>
   <v>       0.34585177       0.82592786       0.93368594 </v>
   <v>       0.27310748       0.02063481       0.05284337 </v>
   <v>       0.17032714       0.00946407       0.55469342 </v>
   <v>       0.24529345       0.33688448       0.05431154 </v>
   <v>       0.15227318       0.33199583       0.55755943 </v>
   <v>       0.17566677       0.64896886       0.04952166 </v>
   <v>       0.17162596       0.65852467       0.54477634 </v>
   <v>       0.14905879       0.04008073       0.23878753 </v>
  </varray>
 </structure>
</modeling>
