<?xml version="1.0" encoding="ISO-8859-1"?>
<modeling>
 <generator>
  <i name="program" type="string">vasp </i>
  <i name="version" type="string">6.4.2  </i>
  <i name="subversion" type="string">20Jul23 (build Nov 12 2023 22:16:35) complex                          parallel </i>
  <i name="platform" type="string">LinuxNV </i>
  <i name="date" type="string">2025 03 08 </i>
  <i name="time" type="string">03:39:33 </i>
 </generator>
 <incar>
  <i type="int" name="ISTART">     0</i>
  <i type="string" name="PREC">Normal</i>
  <i type="string" name="ALGO">All</i>
  <i type="int" name="ISPIN">     1</i>
  <i type="int" name="ICHARG">     0</i>
  <i type="int" name="NELM">   500</i>
  <i type="int" name="IBRION">    -1</i>
  <i name="EDIFF">      0.00001000</i>
  <i name="EDIFFG">     -0.00500000</i>
  <i type="int" name="NSW">     0</i>
  <i type="int" name="ISIF">     2</i>
  <i name="ENCUT">    450.00000000</i>
  <i name="NELECT">   1044.00000000</i>
  <i type="string" name="LREAL">Auto</i>
  <i type="logical" name="LPLANE"> T  </i>
  <i name="TIME">      0.40000000</i>
  <i type="int" name="ISMEAR">     0</i>
  <i name="SIGMA">      0.05000000</i>
  <i type="logical" name="LWAVE"> T  </i>
  <i type="logical" name="LCHARG"> T  </i>
  <i name="HFSCREEN">      0.18000000</i>
  <i type="logical" name="LHFCALC"> T  </i>
  <i type="int" name="LMAXFOCK">     4</i>
  <i name="AEXX">      0.35000000</i>
  <i type="string" name="PRECFOCK">Fast</i>
 </incar>
 <primitive_cell>
  <structure name="primitive_cell" >
   <crystal>
    <varray name="basis" >
     <v>       0.00000000      12.28047342       0.00000000 </v>
     <v>       9.14270205       0.00000000       0.00000000 </v>
     <v>       0.00000000      -2.76826177     -11.30069772 </v>
    </varray>
    <i name="volume">   1268.80515525 </i>
    <varray name="rec_basis" >
     <v>       0.00000000       0.08143009      -0.01994742 </v>
     <v>       0.10937686      -0.00000000       0.00000000 </v>
     <v>       0.00000000       0.00000000      -0.08849011 </v>
    </varray>
   </crystal>
   <varray name="positions" >
    <v>       0.66106064       0.00014496       0.15792727 </v>
    <v>       0.65780911       0.00033104       0.65530227 </v>
    <v>       0.66139285       0.33333333       0.15835032 </v>
    <v>       0.65753506       0.33333333       0.65474435 </v>
    <v>       0.66106064       0.66652171       0.15792727 </v>
    <v>       0.65780911       0.66633563       0.65530227 </v>
    <v>       0.84400221       0.16720356       0.34430784 </v>
    <v>       0.84016243       0.16728388       0.84263428 </v>
    <v>       0.84400221       0.49946311       0.34430784 </v>
    <v>       0.84016243       0.49938278       0.84263428 </v>
    <v>       0.84274028       0.83333333       0.34419898 </v>
    <v>       0.83970340       0.83333333       0.84234858 </v>
    <v>       0.58917661       0.17049772       0.39594255 </v>
    <v>       0.59198990       0.16653105       0.89804501 </v>
    <v>       0.58917661       0.49616894       0.39594255 </v>
    <v>       0.59198990       0.50013562       0.89804501 </v>
    <v>       0.59019907       0.83333333       0.39708674 </v>
    <v>       0.59282826       0.83333333       0.89886798 </v>
    <v>       0.90898537       0.00036336       0.10139402 </v>
    <v>       0.90931858       0.00021994       0.60284234 </v>
    <v>       0.91165537       0.33333333       0.10276699 </v>
    <v>       0.90981968       0.33333333       0.60264193 </v>
    <v>       0.90898537       0.66630331       0.10139402 </v>
    <v>       0.90931858       0.66644673       0.60284234 </v>
    <v>       0.16334554       0.16983287       0.16103173 </v>
    <v>       0.15997964       0.16691500       0.65799252 </v>
    <v>       0.16334554       0.49683379       0.16103173 </v>
    <v>       0.15997964       0.49975167       0.65799252 </v>
    <v>       0.15849881       0.83333333       0.15754770 </v>
    <v>       0.15946400       0.83333333       0.65981580 </v>
    <v>       0.34017290       0.00465905       0.34095672 </v>
    <v>       0.34266917       0.00021753       0.84410653 </v>
    <v>       0.34207606       0.33333333       0.84386168 </v>
    <v>       0.34017290       0.66200762       0.34095672 </v>
    <v>       0.34266917       0.66644913       0.84410653 </v>
    <v>       0.09259965       0.00061433       0.39799703 </v>
    <v>       0.08973131       0.00014783       0.89792252 </v>
    <v>       0.09984758       0.33333333       0.39707825 </v>
    <v>       0.09095286       0.33333333       0.89846679 </v>
    <v>       0.09259965       0.66605233       0.39799703 </v>
    <v>       0.08973131       0.66651884       0.89792252 </v>
    <v>       0.40973884       0.16576507       0.10515408 </v>
    <v>       0.40534914       0.16628162       0.59757983 </v>
    <v>       0.40973884       0.50090160       0.10515408 </v>
    <v>       0.40534914       0.50038505       0.59757983 </v>
    <v>       0.41011897       0.83333333       0.10416689 </v>
    <v>       0.40842110       0.83333333       0.60011924 </v>
    <v>       0.99666796       0.16557408       0.12369633 </v>
    <v>       0.99694281       0.16656207       0.62909754 </v>
    <v>       0.99666796       0.50109259       0.12369633 </v>
    <v>       0.99694281       0.50010460       0.62909754 </v>
    <v>       0.99456713       0.83333333       0.12523552 </v>
    <v>       0.99633545       0.83333333       0.62964302 </v>
    <v>       0.50428018       0.00100172       0.37364341 </v>
    <v>       0.50534893       0.99957322       0.87327762 </v>
    <v>       0.50130842       0.33333333       0.37198046 </v>
    <v>       0.50498153       0.33333333       0.87240744 </v>
    <v>       0.50428018       0.66566495       0.37364341 </v>
    <v>       0.50534893       0.66709345       0.87327762 </v>
    <v>       0.67468159       0.16630265       0.28080924 </v>
    <v>       0.67187307       0.16773374       0.77960248 </v>
    <v>       0.67468159       0.50036402       0.28080924 </v>
    <v>       0.67187307       0.49893293       0.77960248 </v>
    <v>       0.67422018       0.83333333       0.28159523 </v>
    <v>       0.67222610       0.83333333       0.77987259 </v>
    <v>       0.82921678       0.00039633       0.22026208 </v>
    <v>       0.82648211       0.00039614       0.71878378 </v>
    <v>       0.82977768       0.33333333       0.22005732 </v>
    <v>       0.82673255       0.33333333       0.71862395 </v>
    <v>       0.82921678       0.66627034       0.22026208 </v>
    <v>       0.82648211       0.66627053       0.71878378 </v>
    <v>       0.83360436       0.00026996       0.44628990 </v>
    <v>       0.83074181       0.00030946       0.94469815 </v>
    <v>       0.83269271       0.33333333       0.44642629 </v>
    <v>       0.83204595       0.33333333       0.94588556 </v>
    <v>       0.83360436       0.66639671       0.44628990 </v>
    <v>       0.83074181       0.66635720       0.94469815 </v>
    <v>       0.66897164       0.16725090       0.05456597 </v>
    <v>       0.66755995       0.16651434       0.55353014 </v>
    <v>       0.66897164       0.49941577       0.05456597 </v>
    <v>       0.66755995       0.50015233       0.55353014 </v>
    <v>       0.67112043       0.83333333       0.05502043 </v>
    <v>       0.66769858       0.83333333       0.55379414 </v>
    <v>       0.49936336       0.99924116       0.12661441 </v>
    <v>       0.49614328       0.00067252       0.62814147 </v>
    <v>       0.49775941       0.33333333       0.13127217 </v>
    <v>       0.49334760       0.33333333       0.62153965 </v>
    <v>       0.49936336       0.66742551       0.12661441 </v>
    <v>       0.49614328       0.66599415       0.62814147 </v>
    <v>       0.00626994       0.16824421       0.37583598 </v>
    <v>       0.00255270       0.16712700       0.87092667 </v>
    <v>       0.00626994       0.49842245       0.37583598 </v>
    <v>       0.00255270       0.49953967       0.87092667 </v>
    <v>       0.00452825       0.83333333       0.37506687 </v>
    <v>       0.00193660       0.83333333       0.87081596 </v>
    <v>       0.16898915       0.99654573       0.27838235 </v>
    <v>       0.17342622       0.00003045       0.78248843 </v>
    <v>       0.16128695       0.33333333       0.26951784 </v>
    <v>       0.17331414       0.33333333       0.78190944 </v>
    <v>       0.16898915       0.67012094       0.27838235 </v>
    <v>       0.17342622       0.66663621       0.78248843 </v>
    <v>       0.32491306       0.14767608       0.21324985 </v>
    <v>       0.32848512       0.16675046       0.72056413 </v>
    <v>       0.32491306       0.51899059       0.21324985 </v>
    <v>       0.32848512       0.49991621       0.72056413 </v>
    <v>       0.32776775       0.83333333       0.21921249 </v>
    <v>       0.32827741       0.83333333       0.71972782 </v>
    <v>       0.31382624       0.14768110       0.45091537 </v>
    <v>       0.33620986       0.16689767       0.94669934 </v>
    <v>       0.31382624       0.51898557       0.45091537 </v>
    <v>       0.33620986       0.49976900       0.94669934 </v>
    <v>       0.33252991       0.83333333       0.44378357 </v>
    <v>       0.33459420       0.83333333       0.94652481 </v>
    <v>       0.16477637       0.99945294       0.05349721 </v>
    <v>       0.16547826       0.99869723       0.55655381 </v>
    <v>       0.17103634       0.33333333       0.05228316 </v>
    <v>       0.16770798       0.33333333       0.55658284 </v>
    <v>       0.16477637       0.66721373       0.05349721 </v>
    <v>       0.16547826       0.66796944       0.55655381 </v>
   </varray>
  </structure>
  <varray name="primitive_index" >
   <v type="int" >        1 </v>
   <v type="int" >        2 </v>
   <v type="int" >        3 </v>
   <v type="int" >        4 </v>
   <v type="int" >        5 </v>
   <v type="int" >        6 </v>
   <v type="int" >        7 </v>
   <v type="int" >        8 </v>
   <v type="int" >        9 </v>
   <v type="int" >       10 </v>
   <v type="int" >       11 </v>
   <v type="int" >       12 </v>
   <v type="int" >       13 </v>
   <v type="int" >       14 </v>
   <v type="int" >       15 </v>
   <v type="int" >       16 </v>
   <v type="int" >       17 </v>
   <v type="int" >       18 </v>
   <v type="int" >       19 </v>
   <v type="int" >       20 </v>
   <v type="int" >       21 </v>
   <v type="int" >       22 </v>
   <v type="int" >       23 </v>
   <v type="int" >       24 </v>
   <v type="int" >       25 </v>
   <v type="int" >       26 </v>
   <v type="int" >       27 </v>
   <v type="int" >       28 </v>
   <v type="int" >       29 </v>
   <v type="int" >       30 </v>
   <v type="int" >       31 </v>
   <v type="int" >       32 </v>
   <v type="int" >       33 </v>
   <v type="int" >       34 </v>
   <v type="int" >       35 </v>
   <v type="int" >       36 </v>
   <v type="int" >       37 </v>
   <v type="int" >       38 </v>
   <v type="int" >       39 </v>
   <v type="int" >       40 </v>
   <v type="int" >       41 </v>
   <v type="int" >       42 </v>
   <v type="int" >       43 </v>
   <v type="int" >       44 </v>
   <v type="int" >       45 </v>
   <v type="int" >       46 </v>
   <v type="int" >       47 </v>
   <v type="int" >       48 </v>
   <v type="int" >       49 </v>
   <v type="int" >       50 </v>
   <v type="int" >       51 </v>
   <v type="int" >       52 </v>
   <v type="int" >       53 </v>
   <v type="int" >       54 </v>
   <v type="int" >       55 </v>
   <v type="int" >       56 </v>
   <v type="int" >       57 </v>
   <v type="int" >       58 </v>
   <v type="int" >       59 </v>
   <v type="int" >       60 </v>
   <v type="int" >       61 </v>
   <v type="int" >       62 </v>
   <v type="int" >       63 </v>
   <v type="int" >       64 </v>
   <v type="int" >       65 </v>
   <v type="int" >       66 </v>
   <v type="int" >       67 </v>
   <v type="int" >       68 </v>
   <v type="int" >       69 </v>
   <v type="int" >       70 </v>
   <v type="int" >       71 </v>
   <v type="int" >       72 </v>
   <v type="int" >       73 </v>
   <v type="int" >       74 </v>
   <v type="int" >       75 </v>
   <v type="int" >       76 </v>
   <v type="int" >       77 </v>
   <v type="int" >       78 </v>
   <v type="int" >       79 </v>
   <v type="int" >       80 </v>
   <v type="int" >       81 </v>
   <v type="int" >       82 </v>
   <v type="int" >       83 </v>
   <v type="int" >       84 </v>
   <v type="int" >       85 </v>
   <v type="int" >       86 </v>
   <v type="int" >       87 </v>
   <v type="int" >       88 </v>
   <v type="int" >       89 </v>
   <v type="int" >       90 </v>
   <v type="int" >       91 </v>
   <v type="int" >       92 </v>
   <v type="int" >       93 </v>
   <v type="int" >       94 </v>
   <v type="int" >       95 </v>
   <v type="int" >       96 </v>
   <v type="int" >       97 </v>
   <v type="int" >       98 </v>
   <v type="int" >       99 </v>
   <v type="int" >      100 </v>
   <v type="int" >      101 </v>
   <v type="int" >      102 </v>
   <v type="int" >      103 </v>
   <v type="int" >      104 </v>
   <v type="int" >      105 </v>
   <v type="int" >      106 </v>
   <v type="int" >      107 </v>
   <v type="int" >      108 </v>
   <v type="int" >      109 </v>
   <v type="int" >      110 </v>
   <v type="int" >      111 </v>
   <v type="int" >      112 </v>
   <v type="int" >      113 </v>
   <v type="int" >      114 </v>
   <v type="int" >      115 </v>
   <v type="int" >      116 </v>
   <v type="int" >      117 </v>
   <v type="int" >      118 </v>
   <v type="int" >      119 </v>
  </varray>
 </primitive_cell>
 <kpoints>
  <generation param="Gamma">
   <v type="int" name="divisions">       2        2        2 </v>
   <v name="usershift">      0.00000000       0.00000000       0.00000000 </v>
   <v name="genvec1">      0.50000000       0.00000000       0.00000000 </v>
   <v name="genvec2">      0.00000000       0.50000000       0.00000000 </v>
   <v name="genvec3">      0.00000000       0.00000000       0.50000000 </v>
   <v name="shift">      0.00000000       0.00000000       0.00000000 </v>
  </generation>
  <varray name="kpointlist" >
   <v>       0.00000000       0.00000000       0.00000000 </v>
   <v>       0.50000000       0.00000000       0.00000000 </v>
   <v>       0.00000000       0.50000000       0.00000000 </v>
   <v>       0.50000000       0.50000000       0.00000000 </v>
   <v>       0.00000000       0.00000000       0.50000000 </v>
   <v>       0.50000000       0.00000000       0.50000000 </v>
   <v>       0.00000000       0.50000000       0.50000000 </v>
   <v>       0.50000000       0.50000000       0.50000000 </v>
  </varray>
  <varray name="weights" >
   <v>       0.12500000 </v>
   <v>       0.12500000 </v>
   <v>       0.12500000 </v>
   <v>       0.12500000 </v>
   <v>       0.12500000 </v>
   <v>       0.12500000 </v>
   <v>       0.12500000 </v>
   <v>       0.12500000 </v>
  </varray>
 </kpoints>
 <parameters>
  <separator name="general" >
   <i type="string" name="SYSTEM">unknown system</i>
   <i type="logical" name="LCOMPAT"> F  </i>
  </separator>
  <separator name="electronic" >
   <i type="string" name="PREC">normal</i>
   <i name="ENMAX">    450.00000000</i>
   <i name="ENAUG">    605.39200000</i>
   <i name="EDIFF">      0.00001000</i>
   <i type="int" name="IALGO">    58</i>
   <i type="int" name="IWAVPR">    10</i>
   <i type="int" name="NBANDS">   626</i>
   <i type="int" name="NBANDSLOW">    -1</i>
   <i type="int" name="NBANDSHIGH">    -1</i>
   <i name="NELECT">   1044.00000000</i>
   <i type="int" name="TURBO">     0</i>
   <i type="int" name="IRESTART">     0</i>
   <i type="int" name="NREBOOT">     0</i>
   <i type="int" name="NMIN">     0</i>
   <i name="EREF">      0.00000000</i>
   <separator name="electronic smearing" >
    <i type="int" name="ISMEAR">     0</i>
    <i name="SIGMA">      0.05000000</i>
    <i name="KSPACING">      0.50000000</i>
    <i type="logical" name="KGAMMA"> T  </i>
    <i type="logical" name="KBLOWUP"> T  </i>
   </separator>
   <separator name="electronic projectors" >
    <i type="logical" name="LREAL"> T  </i>
    <v name="ROPT">     -0.00050000     -0.00050000</v>
    <i type="int" name="LMAXPAW">  -100</i>
    <i type="int" name="LMAXMIX">     2</i>
    <i type="logical" name="NLSPLINE"> F  </i>
   </separator>
   <separator name="electronic startup" >
    <i type="int" name="ISTART">     0</i>
    <i type="int" name="ICHARG">     0</i>
    <i type="int" name="INIWAV">     1</i>
   </separator>
   <separator name="electronic spin" >
    <i type="int" name="ISPIN">     1</i>
    <i type="logical" name="LNONCOLLINEAR"> F  </i>
    <v name="MAGMOM">      1.00000000      1.00000000      1.00000000      1.00000000      1.00000000      1.00000000      1.00000000      1.00000000      1.00000000      1.00000000      1.00000000      1.00000000      1.00000000      1.00000000      1.00000000      1.00000000      1.00000000      1.00000000      1.00000000      1.00000000
      1.00000000      1.00000000      1.00000000      1.00000000      1.00000000      1.00000000      1.00000000      1.00000000      1.00000000      1.00000000      1.00000000      1.00000000      1.00000000      1.00000000      1.00000000      1.00000000      1.00000000      1.00000000      1.00000000      1.00000000
      1.00000000      1.00000000      1.00000000      1.00000000      1.00000000      1.00000000      1.00000000      1.00000000      1.00000000      1.00000000      1.00000000      1.00000000      1.00000000      1.00000000      1.00000000      1.00000000      1.00000000      1.00000000      1.00000000      1.00000000
      1.00000000      1.00000000      1.00000000      1.00000000      1.00000000      1.00000000      1.00000000      1.00000000      1.00000000      1.00000000      1.00000000      1.00000000      1.00000000      1.00000000      1.00000000      1.00000000      1.00000000      1.00000000      1.00000000      1.00000000
      1.00000000      1.00000000      1.00000000      1.00000000      1.00000000      1.00000000      1.00000000      1.00000000      1.00000000      1.00000000      1.00000000      1.00000000      1.00000000      1.00000000      1.00000000      1.00000000      1.00000000      1.00000000      1.00000000      1.00000000
      1.00000000      1.00000000      1.00000000      1.00000000      1.00000000      1.00000000      1.00000000      1.00000000      1.00000000      1.00000000      1.00000000      1.00000000      1.00000000      1.00000000      1.00000000      1.00000000      1.00000000      1.00000000      1.00000000</v>
    <i name="NUPDOWN">     -1.00000000</i>
    <i type="logical" name="LSORBIT"> F  </i>
    <v name="SAXIS">      0.00000000      0.00000000      1.00000000</v>
    <i type="logical" name="LSPIRAL"> F  </i>
    <v name="QSPIRAL">      0.00000000      0.00000000      0.00000000</v>
    <i type="logical" name="LZEROZ"> F  </i>
   </separator>
   <separator name="electronic exchange-correlation" >
    <i type="logical" name="LASPH"> F  </i>
    <i type="logical" name="LMETAGGA"> F  </i>
   </separator>
   <separator name="electronic convergence" >
    <i type="int" name="NELM">   500</i>
    <i type="int" name="NELMDL">    -5</i>
    <i type="int" name="NELMIN">     2</i>
    <i name="ENINI">    450.00000000</i>
    <separator name="electronic convergence detail" >
     <i type="logical" name="LDIAG"> T  </i>
     <i type="logical" name="LSUBROT"> F  </i>
     <i name="WEIMIN">      0.00000000</i>
     <i name="EBREAK">      0.00000000</i>
     <i name="DEPER">      0.30000000</i>
     <i type="int" name="NRMM">     4</i>
     <i name="TIME">      0.40000000</i>
    </separator>
   </separator>
   <separator name="electronic mixer" >
    <i name="AMIX">      0.40000000</i>
    <i name="BMIX">      1.00000000</i>
    <i name="AMIN">      0.10000000</i>
    <i name="AMIX_MAG">      1.60000000</i>
    <i name="BMIX_MAG">      1.00000000</i>
    <separator name="electronic mixer details" >
     <i type="int" name="IMIX">     4</i>
     <i type="logical" name="MIXFIRST"> F  </i>
     <i type="int" name="MAXMIX">   -45</i>
     <i name="WC">    100.00000000</i>
     <i type="int" name="INIMIX">     1</i>
     <i type="int" name="MIXPRE">     1</i>
     <i type="int" name="MREMOVE">     5</i>
    </separator>
   </separator>
   <separator name="electronic dipolcorrection" >
    <i type="logical" name="LDIPOL"> F  </i>
    <i type="logical" name="LMONO"> F  </i>
    <i type="int" name="IDIPOL">     0</i>
    <i name="EPSILON">      1.00000000</i>
    <v name="DIPOL">   -100.00000000   -100.00000000   -100.00000000</v>
    <i name="EFIELD">      0.00000000</i>
   </separator>
  </separator>
  <separator name="grids" >
   <i type="int" name="NGX">    64</i>
   <i type="int" name="NGY">    48</i>
   <i type="int" name="NGZ">    60</i>
   <i type="int" name="NGXF">   128</i>
   <i type="int" name="NGYF">    96</i>
   <i type="int" name="NGZF">   120</i>
   <i type="logical" name="ADDGRID"> F  </i>
  </separator>
  <separator name="ionic" >
   <i type="int" name="NSW">     0</i>
   <i type="int" name="IBRION">    -1</i>
   <i type="int" name="MDALGO">     0</i>
   <i type="int" name="ISIF">     2</i>
   <i name="PSTRESS">      0.00000000</i>
   <i name="EDIFFG">     -0.00500000</i>
   <i type="int" name="NFREE">     0</i>
   <i name="POTIM">      0.50000000</i>
   <i name="SMASS">     -3.00000000</i>
   <i name="SCALEE">      1.00000000</i>
  </separator>
  <separator name="ionic md" >
   <i name="TEBEG">      0.00010000</i>
   <i name="TEEND">      0.00010000</i>
   <i type="int" name="NBLOCK">     1</i>
   <i type="int" name="KBLOCK">     1</i>
   <i type="int" name="NPACO">   256</i>
   <i name="APACO">     10.00000000</i>
  </separator>
  <separator name="symmetry" >
   <i type="int" name="ISYM">     3</i>
   <i name="SYMPREC">      0.00001000</i>
  </separator>
  <separator name="dos" >
   <i type="int" name="LORBIT">     0</i>
   <v name="RWIGS">     -1.00000000     -1.00000000</v>
   <i type="int" name="NEDOS">   301</i>
   <i name="EMIN">     10.00000000</i>
   <i name="EMAX">    -10.00000000</i>
   <i name="EFERMI">      0.00000000</i>
  </separator>
  <separator name="writing" >
   <i type="int" name="NWRITE">     2</i>
   <i type="logical" name="LWAVE"> T  </i>
   <i type="logical" name="LDOWNSAMPLE"> F  </i>
   <i type="logical" name="LCHARG"> T  </i>
   <i type="logical" name="LPARD"> F  </i>
   <i type="logical" name="LVTOT"> F  </i>
   <i type="logical" name="LVHAR"> F  </i>
   <i type="logical" name="LELF"> F  </i>
   <i type="logical" name="LOPTICS"> F  </i>
   <v name="STM">      0.00000000      0.00000000      0.00000000      0.00000000      0.00000000      0.00000000      0.00000000</v>
  </separator>
  <separator name="performance" >
   <i type="int" name="NPAR">     1</i>
   <i type="int" name="NSIM">     4</i>
   <i type="int" name="NBLK">    -1</i>
   <i type="logical" name="LPLANE"> T  </i>
   <i type="logical" name="LSCALAPACK"> T  </i>
   <i type="logical" name="LSCAAWARE"> F  </i>
   <i type="logical" name="LSCALU"> F  </i>
   <i type="logical" name="LASYNC"> F  </i>
   <i type="logical" name="LORBITALREAL"> F  </i>
  </separator>
  <separator name="miscellaneous" >
   <i type="int" name="IDIOT">     3</i>
   <i type="int" name="PHON_NSTRUCT">    -1</i>
   <i type="logical" name="LMUSIC"> F  </i>
   <v name="POMASS">     69.72300000     16.00000000</v>
   <v name="DARWINR">      0.00000000      0.00000000</v>
   <v name="DARWINV">      1.00000000      1.00000000</v>
   <i type="logical" name="LCORR"> T  </i>
  </separator>
  <i type="logical" name="GGA_COMPAT"> T  </i>
  <i type="logical" name="LBERRY"> F  </i>
  <i type="int" name="ICORELEVEL">     0</i>
  <i type="logical" name="LDAU"> F  </i>
  <i type="int" name="I_CONSTRAINED_M">     0</i>
  <separator name="electronic exchange-correlation" >
   <i type="string" name="GGA">--</i>
   <i type="int" name="VOSKOWN">     0</i>
   <i type="logical" name="LHFCALC"> T  </i>
   <i type="string" name="PRECFOCK">fast</i>
   <i type="logical" name="LSYMGRAD"> F  </i>
   <i type="logical" name="LHFONE"> F  </i>
   <i type="logical" name="LRHFCALC"> F  </i>
   <i type="logical" name="LTHOMAS"> F  </i>
   <i type="logical" name="LMODELHF"> F  </i>
   <i type="logical" name="LFOCKACE"> T  </i>
   <i name="ENCUT4O">     -1.00000000</i>
   <i type="int" name="EXXOEP">     0</i>
   <i type="int" name="FOURORBIT">     0</i>
   <i name="AEXX">      0.35000000</i>
   <i name="HFALPHA">     -1.00000000</i>
   <i name="MCALPHA">      0.00000000</i>
   <i name="ALDAX">      0.65000000</i>
   <i name="AGGAX">      0.65000000</i>
   <i name="ALDAC">      1.00000000</i>
   <i name="AGGAC">      1.00000000</i>
   <i type="int" name="NKREDX">     1</i>
   <i type="int" name="NKREDY">     1</i>
   <i type="int" name="NKREDZ">     1</i>
   <i type="logical" name="SHIFTRED"> F  </i>
   <i type="logical" name="ODDONLY"> F  </i>
   <i type="logical" name="EVENONLY"> F  </i>
   <i type="int" name="LMAXFOCK">     4</i>
   <i type="int" name="NMAXFOCKAE">     1</i>
   <i type="logical" name="LFOCKAEDFT"> F  </i>
   <i name="HFSCREEN">      0.18000000</i>
   <i name="HFSCREENC">      0.18000000</i>
   <i type="int" name="NBANDSGWLOW">     1</i>
  </separator>
  <separator name="vdW DFT" >
   <i type="logical" name="LUSE_VDW"> F  </i>
   <i type="int" name="IVDW_NL">     1</i>
   <i type="logical" name="LSPIN_VDW"> F  </i>
   <i name="Zab_VDW">     -0.84910000</i>
   <i name="PARAM1">      0.12340000</i>
   <i name="PARAM2">      1.00000000</i>
   <i name="PARAM3">      0.00000000</i>
  </separator>
  <separator name="model GW" >
   <i type="int" name="MODEL_GW">     0</i>
   <i name="MODEL_EPS0">      6.39733692</i>
   <i name="MODEL_ALPHA">      1.00000000</i>
  </separator>
  <separator name="linear response parameters" >
   <i type="logical" name="LEPSILON"> F  </i>
   <i type="logical" name="LRPA"> F  </i>
   <i type="logical" name="LNABLA"> F  </i>
   <i type="logical" name="LVEL"> F  </i>
   <i name="CSHIFT">      0.10000000</i>
   <i name="OMEGAMAX">     -1.00000000</i>
   <i name="DEG_THRESHOLD">      0.00200000</i>
   <i name="RTIME">     -0.10000000</i>
   <i name="WPLASMAI">      0.00000000</i>
   <v name="DFIELD">      0.00000000      0.00000000      0.00000000</v>
   <v name="WPLASMA">      0.00000000      0.00000000      0.00000000      0.00000000      0.00000000      0.00000000      0.00000000      0.00000000      0.00000000</v>
  </separator>
  <separator name="orbital magnetization" >
   <i type="logical" name="NUCIND"> F  </i>
   <v name="MAGPOS">      0.00000000      0.00000000      0.00000000</v>
   <i type="logical" name="LNICSALL"> T  </i>
   <i type="logical" name="ORBITALMAG"> F  </i>
   <i type="logical" name="LMAGBLOCH"> F  </i>
   <i type="logical" name="LCHIMAG"> F  </i>
   <i type="logical" name="LGAUGE"> T  </i>
   <i type="int" name="MAGATOM">     0</i>
   <v name="MAGDIPOL">      0.00000000      0.00000000      0.00000000</v>
   <v name="AVECCONST">      0.00000000      0.00000000      0.00000000</v>
  </separator>
  <separator name="response functions" >
   <i type="logical" name="LALL_IN_ONE"> F  </i>
   <i type="int" name="IALL_IN_ONE">    -1</i>
   <i type="int" name="NBANDS_WAVE">    -1</i>
   <i type="logical" name="LFINITE_TEMPERATURE"> F  </i>
   <i type="logical" name="LADDER"> F  </i>
   <i type="logical" name="LRPAFORCE"> F  </i>
   <i type="logical" name="LFXC"> F  </i>
   <i type="logical" name="LHARTREE"> T  </i>
   <i type="int" name="IBSE">     0</i>
   <v type="int" name="KPOINT">    -1     0     0     0</v>
   <i type="logical" name="LTCTC"> F  </i>
   <i type="logical" name="LTCTE"> F  </i>
   <i type="logical" name="LTETE"> F  </i>
   <i type="logical" name="LTRIPLET"> F  </i>
   <i type="logical" name="LFXCEPS"> F  </i>
   <i type="logical" name="LFXHEG"> F  </i>
   <i type="int" name="NATURALO">     2</i>
   <i type="logical" name="LHOLEGF"> F  </i>
   <i type="logical" name="L2ORDER"> F  </i>
   <i type="logical" name="LDMP1"> F  </i>
   <i type="logical" name="LMP2LT"> F  </i>
   <i type="logical" name="LSMP2LT"> F  </i>
   <i type="logical" name="LGWLF"> F  </i>
   <i name="ENCUTGW">     -1.60000002</i>
   <i name="ENCUTGWSOFT">     -1.60000002</i>
   <i name="ENCUTLF">     -1.00000000</i>
   <i type="logical" name="LESF_SPLINES"> F  </i>
   <i type="int" name="LMAXMP2">    -1</i>
   <i name="SCISSOR">      0.00000000</i>
   <i type="int" name="NOMEGA">     0</i>
   <i type="int" name="NOMEGAR">     0</i>
   <i type="int" name="NBANDSGW">    -1</i>
   <i type="int" name="NBANDSO">    -1</i>
   <i type="int" name="NBANDSV">    -1</i>
   <i type="int" name="NELMGW">     1</i>
   <i type="int" name="NELMHF">     1</i>
   <i type="int" name="DIM">     3</i>
   <i type="int" name="IESPILON">     4</i>
   <i type="int" name="ANTIRES">     0</i>
   <i name="OMEGAMAX">    -30.00000000</i>
   <i name="OMEGAMIN">    -30.00000000</i>
   <i name="OMEGATL">   -200.00000000</i>
   <i type="int" name="OMEGAGRID">     0</i>
   <i name="CSHIFT">     -0.10000000</i>
   <i type="logical" name="LSELFENERGY"> F  </i>
   <i type="logical" name="LSPECTRAL"> F  </i>
   <i type="logical" name="LSPECTRALGW"> F  </i>
   <i type="logical" name="LSINGLES"> F  </i>
   <i type="logical" name="LFERMIGW"> F  </i>
   <i type="logical" name="ODDONLYGW"> F  </i>
   <i type="logical" name="EVENONLYGW"> F  </i>
   <i type="int" name="NKREDLFX">     1</i>
   <i type="int" name="NKREDLFY">     1</i>
   <i type="int" name="NKREDLFZ">     1</i>
   <i type="int" name="MAXMEM">  2800</i>
   <i type="int" name="TELESCOPE">     0</i>
   <i type="int" name="NTAUPAR">    -1</i>
   <i type="int" name="NOMEGAPAR">    -1</i>
   <i name="DAMP_NEWTON">      0.80000001</i>
   <i name="LAMBDA">      1.00000000</i>
  </separator>
  <separator name="External order field" >
   <i name="OFIELD_KAPPA">      0.00000000</i>
   <v name="OFIELD_K">      0.00000000      0.00000000      0.00000000</v>
   <i name="OFIELD_Q6_NEAR">      0.00000000</i>
   <i name="OFIELD_Q6_FAR">      0.00000000</i>
   <i name="OFIELD_A">      0.00000000</i>
  </separator>
  <separator name="optional k-points parameters" >
   <i type="int" name="KPOINTS_OPT_MODE">     1</i>
   <i type="logical" name="LKPOINTS_OPT"> F  </i>
  </separator>
 </parameters>
 <atominfo>
  <atoms>     119 </atoms>
  <types>       2 </types>
  <array name="atoms" >
   <dimension dim="1">ion</dimension>
   <field type="string">element</field>
   <field type="int">atomtype</field>
   <set>
    <rc><c>Ga</c><c>   1</c></rc>
    <rc><c>Ga</c><c>   1</c></rc>
    <rc><c>Ga</c><c>   1</c></rc>
    <rc><c>Ga</c><c>   1</c></rc>
    <rc><c>Ga</c><c>   1</c></rc>
    <rc><c>Ga</c><c>   1</c></rc>
    <rc><c>Ga</c><c>   1</c></rc>
    <rc><c>Ga</c><c>   1</c></rc>
    <rc><c>Ga</c><c>   1</c></rc>
    <rc><c>Ga</c><c>   1</c></rc>
    <rc><c>Ga</c><c>   1</c></rc>
    <rc><c>Ga</c><c>   1</c></rc>
    <rc><c>Ga</c><c>   1</c></rc>
    <rc><c>Ga</c><c>   1</c></rc>
    <rc><c>Ga</c><c>   1</c></rc>
    <rc><c>Ga</c><c>   1</c></rc>
    <rc><c>Ga</c><c>   1</c></rc>
    <rc><c>Ga</c><c>   1</c></rc>
    <rc><c>Ga</c><c>   1</c></rc>
    <rc><c>Ga</c><c>   1</c></rc>
    <rc><c>Ga</c><c>   1</c></rc>
    <rc><c>Ga</c><c>   1</c></rc>
    <rc><c>Ga</c><c>   1</c></rc>
    <rc><c>Ga</c><c>   1</c></rc>
    <rc><c>Ga</c><c>   1</c></rc>
    <rc><c>Ga</c><c>   1</c></rc>
    <rc><c>Ga</c><c>   1</c></rc>
    <rc><c>Ga</c><c>   1</c></rc>
    <rc><c>Ga</c><c>   1</c></rc>
    <rc><c>Ga</c><c>   1</c></rc>
    <rc><c>Ga</c><c>   1</c></rc>
    <rc><c>Ga</c><c>   1</c></rc>
    <rc><c>Ga</c><c>   1</c></rc>
    <rc><c>Ga</c><c>   1</c></rc>
    <rc><c>Ga</c><c>   1</c></rc>
    <rc><c>Ga</c><c>   1</c></rc>
    <rc><c>Ga</c><c>   1</c></rc>
    <rc><c>Ga</c><c>   1</c></rc>
    <rc><c>Ga</c><c>   1</c></rc>
    <rc><c>Ga</c><c>   1</c></rc>
    <rc><c>Ga</c><c>   1</c></rc>
    <rc><c>Ga</c><c>   1</c></rc>
    <rc><c>Ga</c><c>   1</c></rc>
    <rc><c>Ga</c><c>   1</c></rc>
    <rc><c>Ga</c><c>   1</c></rc>
    <rc><c>Ga</c><c>   1</c></rc>
    <rc><c>Ga</c><c>   1</c></rc>
    <rc><c>O </c><c>   2</c></rc>
    <rc><c>O </c><c>   2</c></rc>
    <rc><c>O </c><c>   2</c></rc>
    <rc><c>O </c><c>   2</c></rc>
    <rc><c>O </c><c>   2</c></rc>
    <rc><c>O </c><c>   2</c></rc>
    <rc><c>O </c><c>   2</c></rc>
    <rc><c>O </c><c>   2</c></rc>
    <rc><c>O </c><c>   2</c></rc>
    <rc><c>O </c><c>   2</c></rc>
    <rc><c>O </c><c>   2</c></rc>
    <rc><c>O </c><c>   2</c></rc>
    <rc><c>O </c><c>   2</c></rc>
    <rc><c>O </c><c>   2</c></rc>
    <rc><c>O </c><c>   2</c></rc>
    <rc><c>O </c><c>   2</c></rc>
    <rc><c>O </c><c>   2</c></rc>
    <rc><c>O </c><c>   2</c></rc>
    <rc><c>O </c><c>   2</c></rc>
    <rc><c>O </c><c>   2</c></rc>
    <rc><c>O </c><c>   2</c></rc>
    <rc><c>O </c><c>   2</c></rc>
    <rc><c>O </c><c>   2</c></rc>
    <rc><c>O </c><c>   2</c></rc>
    <rc><c>O </c><c>   2</c></rc>
    <rc><c>O </c><c>   2</c></rc>
    <rc><c>O </c><c>   2</c></rc>
    <rc><c>O </c><c>   2</c></rc>
    <rc><c>O </c><c>   2</c></rc>
    <rc><c>O </c><c>   2</c></rc>
    <rc><c>O </c><c>   2</c></rc>
    <rc><c>O </c><c>   2</c></rc>
    <rc><c>O </c><c>   2</c></rc>
    <rc><c>O </c><c>   2</c></rc>
    <rc><c>O </c><c>   2</c></rc>
    <rc><c>O </c><c>   2</c></rc>
    <rc><c>O </c><c>   2</c></rc>
    <rc><c>O </c><c>   2</c></rc>
    <rc><c>O </c><c>   2</c></rc>
    <rc><c>O </c><c>   2</c></rc>
    <rc><c>O </c><c>   2</c></rc>
    <rc><c>O </c><c>   2</c></rc>
    <rc><c>O </c><c>   2</c></rc>
    <rc><c>O </c><c>   2</c></rc>
    <rc><c>O </c><c>   2</c></rc>
    <rc><c>O </c><c>   2</c></rc>
    <rc><c>O </c><c>   2</c></rc>
    <rc><c>O </c><c>   2</c></rc>
    <rc><c>O </c><c>   2</c></rc>
    <rc><c>O </c><c>   2</c></rc>
    <rc><c>O </c><c>   2</c></rc>
    <rc><c>O </c><c>   2</c></rc>
    <rc><c>O </c><c>   2</c></rc>
    <rc><c>O </c><c>   2</c></rc>
    <rc><c>O </c><c>   2</c></rc>
    <rc><c>O </c><c>   2</c></rc>
    <rc><c>O </c><c>   2</c></rc>
    <rc><c>O </c><c>   2</c></rc>
    <rc><c>O </c><c>   2</c></rc>
    <rc><c>O </c><c>   2</c></rc>
    <rc><c>O </c><c>   2</c></rc>
    <rc><c>O </c><c>   2</c></rc>
    <rc><c>O </c><c>   2</c></rc>
    <rc><c>O </c><c>   2</c></rc>
    <rc><c>O </c><c>   2</c></rc>
    <rc><c>O </c><c>   2</c></rc>
    <rc><c>O </c><c>   2</c></rc>
    <rc><c>O </c><c>   2</c></rc>
    <rc><c>O </c><c>   2</c></rc>
    <rc><c>O </c><c>   2</c></rc>
    <rc><c>O </c><c>   2</c></rc>
    <rc><c>O </c><c>   2</c></rc>
   </set>
  </array>
  <array name="atomtypes" >
   <dimension dim="1">type</dimension>
   <field type="int">atomspertype</field>
   <field type="string">element</field>
   <field>mass</field>
   <field>valence</field>
   <field type="string">pseudopotential</field>
   <set>
    <rc><c>  47</c><c>Ga</c><c>     69.72300000</c><c>     13.00000000</c><c>  PAW_PBE Ga_d 06Jul2010                </c></rc>
    <rc><c>  72</c><c>O </c><c>     16.00000000</c><c>      6.00000000</c><c>  PAW_PBE O 08Apr2002                   </c></rc>
   </set>
  </array>
 </atominfo>
 <structure name="initialpos" >
  <crystal>
   <varray name="basis" >
    <v>       0.00000000      12.28047342       0.00000000 </v>
    <v>       9.14270205       0.00000000       0.00000000 </v>
    <v>       0.00000000      -2.76826177     -11.30069772 </v>
   </varray>
   <i name="volume">   1268.80515525 </i>
   <varray name="rec_basis" >
    <v>       0.00000000       0.08143009      -0.01994742 </v>
    <v>       0.10937686      -0.00000000       0.00000000 </v>
    <v>       0.00000000       0.00000000      -0.08849011 </v>
   </varray>
  </crystal>
  <varray name="positions" >
   <v>       0.66106064       0.00014496       0.15792727 </v>
   <v>       0.65780911       0.00033104       0.65530227 </v>
   <v>       0.66139285       0.33333333       0.15835032 </v>
   <v>       0.65753506       0.33333333       0.65474435 </v>
   <v>       0.66106064       0.66652171       0.15792727 </v>
   <v>       0.65780911       0.66633563       0.65530227 </v>
   <v>       0.84400221       0.16720356       0.34430784 </v>
   <v>       0.84016243       0.16728388       0.84263428 </v>
   <v>       0.84400221       0.49946311       0.34430784 </v>
   <v>       0.84016243       0.49938278       0.84263428 </v>
   <v>       0.84274028       0.83333333       0.34419898 </v>
   <v>       0.83970340       0.83333333       0.84234858 </v>
   <v>       0.58917661       0.17049772       0.39594255 </v>
   <v>       0.59198990       0.16653105       0.89804501 </v>
   <v>       0.58917661       0.49616894       0.39594255 </v>
   <v>       0.59198990       0.50013562       0.89804501 </v>
   <v>       0.59019907       0.83333333       0.39708674 </v>
   <v>       0.59282826       0.83333333       0.89886798 </v>
   <v>       0.90898537       0.00036336       0.10139402 </v>
   <v>       0.90931858       0.00021994       0.60284234 </v>
   <v>       0.91165537       0.33333333       0.10276699 </v>
   <v>       0.90981968       0.33333333       0.60264193 </v>
   <v>       0.90898537       0.66630331       0.10139402 </v>
   <v>       0.90931858       0.66644673       0.60284234 </v>
   <v>       0.16334554       0.16983287       0.16103173 </v>
   <v>       0.15997964       0.16691500       0.65799252 </v>
   <v>       0.16334554       0.49683379       0.16103173 </v>
   <v>       0.15997964       0.49975167       0.65799252 </v>
   <v>       0.15849881       0.83333333       0.15754770 </v>
   <v>       0.15946400       0.83333333       0.65981580 </v>
   <v>       0.34017290       0.00465905       0.34095672 </v>
   <v>       0.34266917       0.00021753       0.84410653 </v>
   <v>       0.34207606       0.33333333       0.84386168 </v>
   <v>       0.34017290       0.66200762       0.34095672 </v>
   <v>       0.34266917       0.66644913       0.84410653 </v>
   <v>       0.09259965       0.00061433       0.39799703 </v>
   <v>       0.08973131       0.00014783       0.89792252 </v>
   <v>       0.09984758       0.33333333       0.39707825 </v>
   <v>       0.09095286       0.33333333       0.89846679 </v>
   <v>       0.09259965       0.66605233       0.39799703 </v>
   <v>       0.08973131       0.66651884       0.89792252 </v>
   <v>       0.40973884       0.16576507       0.10515408 </v>
   <v>       0.40534914       0.16628162       0.59757983 </v>
   <v>       0.40973884       0.50090160       0.10515408 </v>
   <v>       0.40534914       0.50038505       0.59757983 </v>
   <v>       0.41011897       0.83333333       0.10416689 </v>
   <v>       0.40842110       0.83333333       0.60011924 </v>
   <v>       0.99666796       0.16557408       0.12369633 </v>
   <v>       0.99694281       0.16656207       0.62909754 </v>
   <v>       0.99666796       0.50109259       0.12369633 </v>
   <v>       0.99694281       0.50010460       0.62909754 </v>
   <v>       0.99456713       0.83333333       0.12523552 </v>
   <v>       0.99633545       0.83333333       0.62964302 </v>
   <v>       0.50428018       0.00100172       0.37364341 </v>
   <v>       0.50534893       0.99957322       0.87327762 </v>
   <v>       0.50130842       0.33333333       0.37198046 </v>
   <v>       0.50498153       0.33333333       0.87240744 </v>
   <v>       0.50428018       0.66566495       0.37364341 </v>
   <v>       0.50534893       0.66709345       0.87327762 </v>
   <v>       0.67468159       0.16630265       0.28080924 </v>
   <v>       0.67187307       0.16773374       0.77960248 </v>
   <v>       0.67468159       0.50036402       0.28080924 </v>
   <v>       0.67187307       0.49893293       0.77960248 </v>
   <v>       0.67422018       0.83333333       0.28159523 </v>
   <v>       0.67222610       0.83333333       0.77987259 </v>
   <v>       0.82921678       0.00039633       0.22026208 </v>
   <v>       0.82648211       0.00039614       0.71878378 </v>
   <v>       0.82977768       0.33333333       0.22005732 </v>
   <v>       0.82673255       0.33333333       0.71862395 </v>
   <v>       0.82921678       0.66627034       0.22026208 </v>
   <v>       0.82648211       0.66627053       0.71878378 </v>
   <v>       0.83360436       0.00026996       0.44628990 </v>
   <v>       0.83074181       0.00030946       0.94469815 </v>
   <v>       0.83269271       0.33333333       0.44642629 </v>
   <v>       0.83204595       0.33333333       0.94588556 </v>
   <v>       0.83360436       0.66639671       0.44628990 </v>
   <v>       0.83074181       0.66635720       0.94469815 </v>
   <v>       0.66897164       0.16725090       0.05456597 </v>
   <v>       0.66755995       0.16651434       0.55353014 </v>
   <v>       0.66897164       0.49941577       0.05456597 </v>
   <v>       0.66755995       0.50015233       0.55353014 </v>
   <v>       0.67112043       0.83333333       0.05502043 </v>
   <v>       0.66769858       0.83333333       0.55379414 </v>
   <v>       0.49936336       0.99924116       0.12661441 </v>
   <v>       0.49614328       0.00067252       0.62814147 </v>
   <v>       0.49775941       0.33333333       0.13127217 </v>
   <v>       0.49334760       0.33333333       0.62153965 </v>
   <v>       0.49936336       0.66742551       0.12661441 </v>
   <v>       0.49614328       0.66599415       0.62814147 </v>
   <v>       0.00626994       0.16824421       0.37583598 </v>
   <v>       0.00255270       0.16712700       0.87092667 </v>
   <v>       0.00626994       0.49842245       0.37583598 </v>
   <v>       0.00255270       0.49953967       0.87092667 </v>
   <v>       0.00452825       0.83333333       0.37506687 </v>
   <v>       0.00193660       0.83333333       0.87081596 </v>
   <v>       0.16898915       0.99654573       0.27838235 </v>
   <v>       0.17342622       0.00003045       0.78248843 </v>
   <v>       0.16128695       0.33333333       0.26951784 </v>
   <v>       0.17331414       0.33333333       0.78190944 </v>
   <v>       0.16898915       0.67012094       0.27838235 </v>
   <v>       0.17342622       0.66663621       0.78248843 </v>
   <v>       0.32491306       0.14767608       0.21324985 </v>
   <v>       0.32848512       0.16675046       0.72056413 </v>
   <v>       0.32491306       0.51899059       0.21324985 </v>
   <v>       0.32848512       0.49991621       0.72056413 </v>
   <v>       0.32776775       0.83333333       0.21921249 </v>
   <v>       0.32827741       0.83333333       0.71972782 </v>
   <v>       0.31382624       0.14768110       0.45091537 </v>
   <v>       0.33620986       0.16689767       0.94669934 </v>
   <v>       0.31382624       0.51898557       0.45091537 </v>
   <v>       0.33620986       0.49976900       0.94669934 </v>
   <v>       0.33252991       0.83333333       0.44378357 </v>
   <v>       0.33459420       0.83333333       0.94652481 </v>
   <v>       0.16477637       0.99945294       0.05349721 </v>
   <v>       0.16547826       0.99869723       0.55655381 </v>
   <v>       0.17103634       0.33333333       0.05228316 </v>
   <v>       0.16770798       0.33333333       0.55658284 </v>
   <v>       0.16477637       0.66721373       0.05349721 </v>
   <v>       0.16547826       0.66796944       0.55655381 </v>
  </varray>
 </structure>
 <calculation>
  <scstep>
   <time name="total">    3.91    3.93</time>
   <energy>
    <i name="alphaZ">   5383.97153279 </i>
    <i name="ewald"> -86594.47826338 </i>
    <i name="hartreedc">  -2064.40049882 </i>
    <i name="XCdc">   2770.72451716 </i>
    <i name="pawpsdc">  54439.57402276 </i>
    <i name="pawaedc"> -85616.10912185 </i>
    <i name="eentropy">     -0.01036391 </i>
    <i name="bandstr"> -41114.25392617 </i>
    <i name="atom"> 131713.61575125 </i>
    <i name="e_fr_energy"> -21081.36635015 </i>
    <i name="e_wo_entrp"> -21081.35598625 </i>
    <i name="e_0_energy"> -21081.36116820 </i>
   </energy>
  </scstep>
  <scstep>
   <time name="total">    3.06    3.06</time>
   <energy>
    <i name="e_fr_energy"> -65545.99860858 </i>
    <i name="e_wo_entrp"> -65545.98350896 </i>
    <i name="e_0_energy"> -65545.99105877 </i>
   </energy>
  </scstep>
  <scstep>
   <time name="total">    3.30    3.30</time>
   <energy>
    <i name="e_fr_energy"> -70657.15373542 </i>
    <i name="e_wo_entrp"> -70657.12068512 </i>
    <i name="e_0_energy"> -70657.13721027 </i>
   </energy>
  </scstep>
  <scstep>
   <time name="total">    3.85    3.85</time>
   <energy>
    <i name="e_fr_energy"> -71460.83424113 </i>
    <i name="e_wo_entrp"> -71460.78674617 </i>
    <i name="e_0_energy"> -71460.81049365 </i>
   </energy>
  </scstep>
  <scstep>
   <time name="total">  231.47  231.45</time>
   <energy>
    <i name="e_fr_energy"> -39161.64769886 </i>
    <i name="e_wo_entrp"> -39161.64757840 </i>
    <i name="e_0_energy"> -39161.64763863 </i>
   </energy>
  </scstep>
  <scstep>
   <time name="total">  459.12  459.14</time>
   <energy>
    <i name="e_fr_energy">  30804.61742032 </i>
    <i name="e_wo_entrp">  30804.65600137 </i>
    <i name="e_0_energy">  30804.63671085 </i>
   </energy>
  </scstep>
  <scstep>
   <time name="total">  460.77  460.81</time>
   <energy>
    <i name="e_fr_energy">   7789.20005434 </i>
    <i name="e_wo_entrp">   7789.24365557 </i>
    <i name="e_0_energy">   7789.22185496 </i>
   </energy>
  </scstep>
  <scstep>
   <time name="total">  460.71  460.69</time>
   <energy>
    <i name="e_fr_energy">   4891.13280820 </i>
    <i name="e_wo_entrp">   4891.16145379 </i>
    <i name="e_0_energy">   4891.14713099 </i>
   </energy>
  </scstep>
  <scstep>
   <time name="total">  459.34  459.35</time>
   <energy>
    <i name="e_fr_energy">   2816.44117583 </i>
    <i name="e_wo_entrp">   2816.45149947 </i>
    <i name="e_0_energy">   2816.44633765 </i>
   </energy>
  </scstep>
  <scstep>
   <time name="total">  459.26  459.28</time>
   <energy>
    <i name="e_fr_energy">   1300.07523563 </i>
    <i name="e_wo_entrp">   1300.08619887 </i>
    <i name="e_0_energy">   1300.08071725 </i>
   </energy>
  </scstep>
  <scstep>
   <time name="total">  459.33  459.34</time>
   <energy>
    <i name="e_fr_energy">    254.87762859 </i>
    <i name="e_wo_entrp">    254.88703737 </i>
    <i name="e_0_energy">    254.88233298 </i>
   </energy>
  </scstep>
  <scstep>
   <time name="total">  458.93  458.95</time>
   <energy>
    <i name="e_fr_energy">   -286.91377352 </i>
    <i name="e_wo_entrp">   -286.90215545 </i>
    <i name="e_0_energy">   -286.90796449 </i>
   </energy>
  </scstep>
  <scstep>
   <time name="total">  458.85  458.84</time>
   <energy>
    <i name="e_fr_energy">   -625.80712246 </i>
    <i name="e_wo_entrp">   -625.79764357 </i>
    <i name="e_0_energy">   -625.80238302 </i>
   </energy>
  </scstep>
  <scstep>
   <time name="total">  459.00  459.01</time>
   <energy>
    <i name="e_fr_energy">   -799.88232776 </i>
    <i name="e_wo_entrp">   -799.87671369 </i>
    <i name="e_0_energy">   -799.87952073 </i>
   </energy>
  </scstep>
  <scstep>
   <time name="total">  458.91  458.91</time>
   <energy>
    <i name="e_fr_energy">   -872.58857865 </i>
    <i name="e_wo_entrp">   -872.58656290 </i>
    <i name="e_0_energy">   -872.58757078 </i>
   </energy>
  </scstep>
  <scstep>
   <time name="total">  458.99  458.99</time>
   <energy>
    <i name="e_fr_energy">   -910.82316044 </i>
    <i name="e_wo_entrp">   -910.82216968 </i>
    <i name="e_0_energy">   -910.82266506 </i>
   </energy>
  </scstep>
  <scstep>
   <time name="total">  458.95  458.94</time>
   <energy>
    <i name="e_fr_energy">   -933.00645637 </i>
    <i name="e_wo_entrp">   -932.99998000 </i>
    <i name="e_0_energy">   -933.00321818 </i>
   </energy>
  </scstep>
  <scstep>
   <time name="total">  459.18  459.18</time>
   <energy>
    <i name="e_fr_energy">   -945.81419575 </i>
    <i name="e_wo_entrp">   -945.80992076 </i>
    <i name="e_0_energy">   -945.81205825 </i>
   </energy>
  </scstep>
  <scstep>
   <time name="total">  459.29  459.28</time>
   <energy>
    <i name="e_fr_energy">   -954.04697915 </i>
    <i name="e_wo_entrp">   -954.02057350 </i>
    <i name="e_0_energy">   -954.03377633 </i>
   </energy>
  </scstep>
  <scstep>
   <time name="total">  459.43  459.42</time>
   <energy>
    <i name="e_fr_energy">   -957.52464246 </i>
    <i name="e_wo_entrp">   -957.49820854 </i>
    <i name="e_0_energy">   -957.51142550 </i>
   </energy>
  </scstep>
  <scstep>
   <time name="total">  459.50  459.50</time>
   <energy>
    <i name="e_fr_energy">   -959.65499890 </i>
    <i name="e_wo_entrp">   -959.62943993 </i>
    <i name="e_0_energy">   -959.64221942 </i>
   </energy>
  </scstep>
  <scstep>
   <time name="total">  459.07  459.10</time>
   <energy>
    <i name="e_fr_energy">   -961.98668020 </i>
    <i name="e_wo_entrp">   -961.96330885 </i>
    <i name="e_0_energy">   -961.97499452 </i>
   </energy>
  </scstep>
  <scstep>
   <time name="total">  459.30  459.32</time>
   <energy>
    <i name="e_fr_energy">   -963.20302524 </i>
    <i name="e_wo_entrp">   -963.18404909 </i>
    <i name="e_0_energy">   -963.19353717 </i>
   </energy>
  </scstep>
  <scstep>
   <time name="total">  459.33  459.33</time>
   <energy>
    <i name="e_fr_energy">   -964.37173105 </i>
    <i name="e_wo_entrp">   -964.34922378 </i>
    <i name="e_0_energy">   -964.36047741 </i>
   </energy>
  </scstep>
  <scstep>
   <time name="total">  459.33  459.30</time>
   <energy>
    <i name="e_fr_energy">   -965.24834169 </i>
    <i name="e_wo_entrp">   -965.22144948 </i>
    <i name="e_0_energy">   -965.23489558 </i>
   </energy>
  </scstep>
  <scstep>
   <time name="total">  459.28  459.25</time>
   <energy>
    <i name="e_fr_energy">   -965.87249658 </i>
    <i name="e_wo_entrp">   -965.84862207 </i>
    <i name="e_0_energy">   -965.86055933 </i>
   </energy>
  </scstep>
  <scstep>
   <time name="total">  459.66  459.63</time>
   <energy>
    <i name="e_fr_energy">   -966.49499032 </i>
    <i name="e_wo_entrp">   -966.47282866 </i>
    <i name="e_0_energy">   -966.48390949 </i>
   </energy>
  </scstep>
  <scstep>
   <time name="total">  459.35  459.31</time>
   <energy>
    <i name="e_fr_energy">   -966.93953716 </i>
    <i name="e_wo_entrp">   -966.91487852 </i>
    <i name="e_0_energy">   -966.92720784 </i>
   </energy>
  </scstep>
  <scstep>
   <time name="total">  459.28  459.25</time>
   <energy>
    <i name="e_fr_energy">   -967.22676863 </i>
    <i name="e_wo_entrp">   -967.20019459 </i>
    <i name="e_0_energy">   -967.21348161 </i>
   </energy>
  </scstep>
  <scstep>
   <time name="total">  459.26  459.25</time>
   <energy>
    <i name="e_fr_energy">   -967.55840185 </i>
    <i name="e_wo_entrp">   -967.53431764 </i>
    <i name="e_0_energy">   -967.54635975 </i>
   </energy>
  </scstep>
  <scstep>
   <time name="total">  459.23  459.21</time>
   <energy>
    <i name="e_fr_energy">   -967.70319708 </i>
    <i name="e_wo_entrp">   -967.68268521 </i>
    <i name="e_0_energy">   -967.69294114 </i>
   </energy>
  </scstep>
  <scstep>
   <time name="total">  459.48  459.44</time>
   <energy>
    <i name="e_fr_energy">   -967.82687870 </i>
    <i name="e_wo_entrp">   -967.80887219 </i>
    <i name="e_0_energy">   -967.81787544 </i>
   </energy>
  </scstep>
  <scstep>
   <time name="total">  459.20  459.20</time>
   <energy>
    <i name="e_fr_energy">   -967.95712234 </i>
    <i name="e_wo_entrp">   -967.93992324 </i>
    <i name="e_0_energy">   -967.94852279 </i>
   </energy>
  </scstep>
  <scstep>
   <time name="total">  459.47  459.46</time>
   <energy>
    <i name="e_fr_energy">   -968.07046616 </i>
    <i name="e_wo_entrp">   -968.05403416 </i>
    <i name="e_0_energy">   -968.06225016 </i>
   </energy>
  </scstep>
  <scstep>
   <time name="total">  459.39  459.35</time>
   <energy>
    <i name="e_fr_energy">   -968.13060839 </i>
    <i name="e_wo_entrp">   -968.11644659 </i>
    <i name="e_0_energy">   -968.12352749 </i>
   </energy>
  </scstep>
  <scstep>
   <time name="total">  459.39  459.38</time>
   <energy>
    <i name="e_fr_energy">   -968.22988023 </i>
    <i name="e_wo_entrp">   -968.21694002 </i>
    <i name="e_0_energy">   -968.22341012 </i>
   </energy>
  </scstep>
  <scstep>
   <time name="total">  459.40  459.35</time>
   <energy>
    <i name="e_fr_energy">   -968.29504088 </i>
    <i name="e_wo_entrp">   -968.28376032 </i>
    <i name="e_0_energy">   -968.28940060 </i>
   </energy>
  </scstep>
  <scstep>
   <time name="total">  459.39  459.34</time>
   <energy>
    <i name="e_fr_energy">   -968.38395487 </i>
    <i name="e_wo_entrp">   -968.37320961 </i>
    <i name="e_0_energy">   -968.37858224 </i>
   </energy>
  </scstep>
  <scstep>
   <time name="total">  459.17  459.15</time>
   <energy>
    <i name="e_fr_energy">   -968.46816085 </i>
    <i name="e_wo_entrp">   -968.45655329 </i>
    <i name="e_0_energy">   -968.46235707 </i>
   </energy>
  </scstep>
  <scstep>
   <time name="total">  459.32  459.30</time>
   <energy>
    <i name="e_fr_energy">   -968.50528476 </i>
    <i name="e_wo_entrp">   -968.49454749 </i>
    <i name="e_0_energy">   -968.49991613 </i>
   </energy>
  </scstep>
  <scstep>
   <time name="total">  459.18  459.16</time>
   <energy>
    <i name="e_fr_energy">   -968.53620175 </i>
    <i name="e_wo_entrp">   -968.52636894 </i>
    <i name="e_0_energy">   -968.53128535 </i>
   </energy>
  </scstep>
  <scstep>
   <time name="total">  459.44  459.45</time>
   <energy>
    <i name="e_fr_energy">   -968.54559718 </i>
    <i name="e_wo_entrp">   -968.53634703 </i>
    <i name="e_0_energy">   -968.54097210 </i>
   </energy>
  </scstep>
  <scstep>
   <time name="total">  459.31  459.31</time>
   <energy>
    <i name="e_fr_energy">   -968.55093159 </i>
    <i name="e_wo_entrp">   -968.54336764 </i>
    <i name="e_0_energy">   -968.54714961 </i>
   </energy>
  </scstep>
  <scstep>
   <time name="total">  459.39  459.39</time>
   <energy>
    <i name="e_fr_energy">   -968.55688408 </i>
    <i name="e_wo_entrp">   -968.55288767 </i>
    <i name="e_0_energy">   -968.55488587 </i>
   </energy>
  </scstep>
  <scstep>
   <time name="total">  459.35  459.30</time>
   <energy>
    <i name="e_fr_energy">   -968.56546383 </i>
    <i name="e_wo_entrp">   -968.56411042 </i>
    <i name="e_0_energy">   -968.56478713 </i>
   </energy>
  </scstep>
  <scstep>
   <time name="total">  459.19  459.17</time>
   <energy>
    <i name="e_fr_energy">   -968.57369770 </i>
    <i name="e_wo_entrp">   -968.57344027 </i>
    <i name="e_0_energy">   -968.57356898 </i>
   </energy>
  </scstep>
  <scstep>
   <time name="total">  459.24  459.22</time>
   <energy>
    <i name="e_fr_energy">   -968.58150728 </i>
    <i name="e_wo_entrp">   -968.58150136 </i>
    <i name="e_0_energy">   -968.58150432 </i>
   </energy>
  </scstep>
  <scstep>
   <time name="total">  459.12  459.10</time>
   <energy>
    <i name="e_fr_energy">   -968.59282646 </i>
    <i name="e_wo_entrp">   -968.59282621 </i>
    <i name="e_0_energy">   -968.59282633 </i>
   </energy>
  </scstep>
  <scstep>
   <time name="total">  458.85  458.84</time>
   <energy>
    <i name="e_fr_energy">   -968.59915372 </i>
    <i name="e_wo_entrp">   -968.59915371 </i>
    <i name="e_0_energy">   -968.59915372 </i>
   </energy>
  </scstep>
  <scstep>
   <time name="total">  458.80  458.77</time>
   <energy>
    <i name="e_fr_energy">   -968.60690122 </i>
    <i name="e_wo_entrp">   -968.60690122 </i>
    <i name="e_0_energy">   -968.60690122 </i>
   </energy>
  </scstep>
  <scstep>
   <time name="total">  458.56  458.53</time>
   <energy>
    <i name="e_fr_energy">   -968.61234061 </i>
    <i name="e_wo_entrp">   -968.61234061 </i>
    <i name="e_0_energy">   -968.61234061 </i>
   </energy>
  </scstep>
  <scstep>
   <time name="total">  458.50  458.49</time>
   <energy>
    <i name="e_fr_energy">   -968.61515440 </i>
    <i name="e_wo_entrp">   -968.61515439 </i>
    <i name="e_0_energy">   -968.61515439 </i>
   </energy>
  </scstep>
  <scstep>
   <time name="total">  458.61  458.58</time>
   <energy>
    <i name="e_fr_energy">   -968.61789070 </i>
    <i name="e_wo_entrp">   -968.61789066 </i>
    <i name="e_0_energy">   -968.61789068 </i>
   </energy>
  </scstep>
  <scstep>
   <time name="total">  458.91  458.87</time>
   <energy>
    <i name="e_fr_energy">   -968.61990021 </i>
    <i name="e_wo_entrp">   -968.61990009 </i>
    <i name="e_0_energy">   -968.61990015 </i>
   </energy>
  </scstep>
  <scstep>
   <time name="total">  459.22  459.19</time>
   <energy>
    <i name="e_fr_energy">   -968.62072691 </i>
    <i name="e_wo_entrp">   -968.62072650 </i>
    <i name="e_0_energy">   -968.62072670 </i>
   </energy>
  </scstep>
  <scstep>
   <time name="total">  459.11  459.11</time>
   <energy>
    <i name="e_fr_energy">   -968.62163431 </i>
    <i name="e_wo_entrp">   -968.62163351 </i>
    <i name="e_0_energy">   -968.62163391 </i>
   </energy>
  </scstep>
  <scstep>
   <time name="total">  458.93  458.92</time>
   <energy>
    <i name="e_fr_energy">   -968.62232082 </i>
    <i name="e_wo_entrp">   -968.62231997 </i>
    <i name="e_0_energy">   -968.62232039 </i>
   </energy>
  </scstep>
  <scstep>
   <time name="total">  459.43  459.41</time>
   <energy>
    <i name="e_fr_energy">   -968.62286013 </i>
    <i name="e_wo_entrp">   -968.62285941 </i>
    <i name="e_0_energy">   -968.62285977 </i>
   </energy>
  </scstep>
  <scstep>
   <time name="total">  458.97  458.94</time>
   <energy>
    <i name="e_fr_energy">   -968.62315344 </i>
    <i name="e_wo_entrp">   -968.62315312 </i>
    <i name="e_0_energy">   -968.62315328 </i>
   </energy>
  </scstep>
  <scstep>
   <time name="total">  459.11  459.09</time>
   <energy>
    <i name="e_fr_energy">   -968.62368461 </i>
    <i name="e_wo_entrp">   -968.62368448 </i>
    <i name="e_0_energy">   -968.62368454 </i>
   </energy>
  </scstep>
  <scstep>
   <time name="total">  458.85  458.84</time>
   <energy>
    <i name="e_fr_energy">   -968.62416779 </i>
    <i name="e_wo_entrp">   -968.62416774 </i>
    <i name="e_0_energy">   -968.62416777 </i>
   </energy>
  </scstep>
  <scstep>
   <time name="total">  458.93  458.91</time>
   <energy>
    <i name="e_fr_energy">   -968.62464266 </i>
    <i name="e_wo_entrp">   -968.62464264 </i>
    <i name="e_0_energy">   -968.62464265 </i>
   </energy>
  </scstep>
  <scstep>
   <time name="total">  459.09  459.04</time>
   <energy>
    <i name="e_fr_energy">   -968.62522758 </i>
    <i name="e_wo_entrp">   -968.62522757 </i>
    <i name="e_0_energy">   -968.62522757 </i>
   </energy>
  </scstep>
  <scstep>
   <time name="total">  458.88  458.86</time>
   <energy>
    <i name="e_fr_energy">   -968.62595080 </i>
    <i name="e_wo_entrp">   -968.62595080 </i>
    <i name="e_0_energy">   -968.62595080 </i>
   </energy>
  </scstep>
  <scstep>
   <time name="total">  458.76  458.72</time>
   <energy>
    <i name="e_fr_energy">   -968.62663519 </i>
    <i name="e_wo_entrp">   -968.62663519 </i>
    <i name="e_0_energy">   -968.62663519 </i>
   </energy>
  </scstep>
  <scstep>
   <time name="total">  458.74  458.73</time>
   <energy>
    <i name="e_fr_energy">   -968.62752886 </i>
    <i name="e_wo_entrp">   -968.62752885 </i>
    <i name="e_0_energy">   -968.62752885 </i>
   </energy>
  </scstep>
  <scstep>
   <time name="total">  458.51  458.48</time>
   <energy>
    <i name="e_fr_energy">   -968.62886032 </i>
    <i name="e_wo_entrp">   -968.62886031 </i>
    <i name="e_0_energy">   -968.62886032 </i>
   </energy>
  </scstep>
  <scstep>
   <time name="total">  458.60  458.58</time>
   <energy>
    <i name="e_fr_energy">   -968.62967432 </i>
    <i name="e_wo_entrp">   -968.62967431 </i>
    <i name="e_0_energy">   -968.62967431 </i>
   </energy>
  </scstep>
  <scstep>
   <time name="total">  458.96  458.94</time>
   <energy>
    <i name="e_fr_energy">   -968.63193404 </i>
    <i name="e_wo_entrp">   -968.63193403 </i>
    <i name="e_0_energy">   -968.63193403 </i>
   </energy>
  </scstep>
  <scstep>
   <time name="total">  458.71  458.69</time>
   <energy>
    <i name="e_fr_energy">   -968.63438529 </i>
    <i name="e_wo_entrp">   -968.63438516 </i>
    <i name="e_0_energy">   -968.63438522 </i>
   </energy>
  </scstep>
  <scstep>
   <time name="total">  459.01  458.99</time>
   <energy>
    <i name="e_fr_energy">   -968.63708486 </i>
    <i name="e_wo_entrp">   -968.63708457 </i>
    <i name="e_0_energy">   -968.63708472 </i>
   </energy>
  </scstep>
  <scstep>
   <time name="total">  458.91  458.88</time>
   <energy>
    <i name="e_fr_energy">   -968.63846656 </i>
    <i name="e_wo_entrp">   -968.63846617 </i>
    <i name="e_0_energy">   -968.63846636 </i>
   </energy>
  </scstep>
  <scstep>
   <time name="total">  458.66  458.64</time>
   <energy>
    <i name="e_fr_energy">   -968.64013085 </i>
    <i name="e_wo_entrp">   -968.64013052 </i>
    <i name="e_0_energy">   -968.64013068 </i>
   </energy>
  </scstep>
  <scstep>
   <time name="total">  458.84  458.81</time>
   <energy>
    <i name="e_fr_energy">   -968.64086443 </i>
    <i name="e_wo_entrp">   -968.64086424 </i>
    <i name="e_0_energy">   -968.64086434 </i>
   </energy>
  </scstep>
  <scstep>
   <time name="total">  459.11  459.09</time>
   <energy>
    <i name="e_fr_energy">   -968.64163947 </i>
    <i name="e_wo_entrp">   -968.64163936 </i>
    <i name="e_0_energy">   -968.64163942 </i>
   </energy>
  </scstep>
  <scstep>
   <time name="total">  458.88  458.89</time>
   <energy>
    <i name="e_fr_energy">   -968.64229021 </i>
    <i name="e_wo_entrp">   -968.64229015 </i>
    <i name="e_0_energy">   -968.64229018 </i>
   </energy>
  </scstep>
  <scstep>
   <time name="total">  458.93  458.94</time>
   <energy>
    <i name="e_fr_energy">   -968.64275319 </i>
    <i name="e_wo_entrp">   -968.64275315 </i>
    <i name="e_0_energy">   -968.64275317 </i>
   </energy>
  </scstep>
  <scstep>
   <time name="total">  458.75  458.72</time>
   <energy>
    <i name="e_fr_energy">   -968.64315064 </i>
    <i name="e_wo_entrp">   -968.64315060 </i>
    <i name="e_0_energy">   -968.64315062 </i>
   </energy>
  </scstep>
  <scstep>
   <time name="total">  458.75  458.71</time>
   <energy>
    <i name="e_fr_energy">   -968.64335835 </i>
    <i name="e_wo_entrp">   -968.64335831 </i>
    <i name="e_0_energy">   -968.64335833 </i>
   </energy>
  </scstep>
  <scstep>
   <time name="total">  459.04  459.02</time>
   <energy>
    <i name="e_fr_energy">   -968.64355508 </i>
    <i name="e_wo_entrp">   -968.64355502 </i>
    <i name="e_0_energy">   -968.64355505 </i>
   </energy>
  </scstep>
  <scstep>
   <time name="total">  458.69  458.68</time>
   <energy>
    <i name="e_fr_energy">   -968.64371621 </i>
    <i name="e_wo_entrp">   -968.64371614 </i>
    <i name="e_0_energy">   -968.64371617 </i>
   </energy>
  </scstep>
  <scstep>
   <time name="total">  458.93  458.94</time>
   <energy>
    <i name="e_fr_energy">   -968.64380208 </i>
    <i name="e_wo_entrp">   -968.64380201 </i>
    <i name="e_0_energy">   -968.64380205 </i>
   </energy>
  </scstep>
  <scstep>
   <time name="total">  459.04  459.03</time>
   <energy>
    <i name="e_fr_energy">   -968.64386722 </i>
    <i name="e_wo_entrp">   -968.64386713 </i>
    <i name="e_0_energy">   -968.64386717 </i>
   </energy>
  </scstep>
  <scstep>
   <time name="total">  458.92  458.90</time>
   <energy>
    <i name="e_fr_energy">   -968.64391013 </i>
    <i name="e_wo_entrp">   -968.64391004 </i>
    <i name="e_0_energy">   -968.64391008 </i>
   </energy>
  </scstep>
  <scstep>
   <time name="total">  458.84  458.84</time>
   <energy>
    <i name="e_fr_energy">   -968.64393820 </i>
    <i name="e_wo_entrp">   -968.64393811 </i>
    <i name="e_0_energy">   -968.64393816 </i>
   </energy>
  </scstep>
  <scstep>
   <time name="total">  458.78  458.74</time>
   <energy>
    <i name="e_fr_energy">   -968.64395877 </i>
    <i name="e_wo_entrp">   -968.64395868 </i>
    <i name="e_0_energy">   -968.64395873 </i>
   </energy>
  </scstep>
  <scstep>
   <time name="total">  459.04  459.00</time>
   <energy>
    <i name="e_fr_energy">   -968.64397171 </i>
    <i name="e_wo_entrp">   -968.64397162 </i>
    <i name="e_0_energy">   -968.64397167 </i>
   </energy>
  </scstep>
  <scstep>
   <time name="total">  458.86  458.83</time>
   <energy>
    <i name="e_fr_energy">   -968.64398526 </i>
    <i name="e_wo_entrp">   -968.64398518 </i>
    <i name="e_0_energy">   -968.64398522 </i>
   </energy>
  </scstep>
  <scstep>
   <time name="total">  684.06  684.04</time>
   <energy>
    <i name="alphaZ">   5383.97153279 </i>
    <i name="ewald"> -86594.47826338 </i>
    <i name="hartreedc"> -34078.49614912 </i>
    <i name="XCdc">   2771.14431390 </i>
    <i name="pawpsdc"> 119834.16656445 </i>
    <i name="pawaedc">-135012.74588063 </i>
    <i name="eentropy">     -0.00000008 </i>
    <i name="bandstr">  -9253.95803344 </i>
    <i name="atom"> 131713.61575125 </i>
    <i name="e_fr_energy">   -968.64399381 </i>
    <i name="e_wo_entrp">   -968.64399373 </i>
    <i name="e_0_energy">   -968.64399377 </i>
   </energy>
  </scstep>
  <structure>
   <crystal>
    <varray name="basis" >
     <v>       0.00000000      12.28047342       0.00000000 </v>
     <v>       9.14270205       0.00000000       0.00000000 </v>
     <v>       0.00000000      -2.76826177     -11.30069772 </v>
    </varray>
    <i name="volume">   1268.80515525 </i>
    <varray name="rec_basis" >
     <v>       0.00000000       0.08143009      -0.01994742 </v>
     <v>       0.10937686      -0.00000000       0.00000000 </v>
     <v>       0.00000000       0.00000000      -0.08849011 </v>
    </varray>
   </crystal>
   <varray name="positions" >
    <v>       0.66106064       0.00014496       0.15792727 </v>
    <v>       0.65780911       0.00033104       0.65530227 </v>
    <v>       0.66139285       0.33333333       0.15835032 </v>
    <v>       0.65753506       0.33333333       0.65474435 </v>
    <v>       0.66106064       0.66652171       0.15792727 </v>
    <v>       0.65780911       0.66633563       0.65530227 </v>
    <v>       0.84400221       0.16720356       0.34430784 </v>
    <v>       0.84016243       0.16728388       0.84263428 </v>
    <v>       0.84400221       0.49946311       0.34430784 </v>
    <v>       0.84016243       0.49938278       0.84263428 </v>
    <v>       0.84274028       0.83333333       0.34419898 </v>
    <v>       0.83970340       0.83333333       0.84234858 </v>
    <v>       0.58917661       0.17049772       0.39594255 </v>
    <v>       0.59198990       0.16653105       0.89804501 </v>
    <v>       0.58917661       0.49616894       0.39594255 </v>
    <v>       0.59198990       0.50013562       0.89804501 </v>
    <v>       0.59019907       0.83333333       0.39708674 </v>
    <v>       0.59282826       0.83333333       0.89886798 </v>
    <v>       0.90898537       0.00036336       0.10139402 </v>
    <v>       0.90931858       0.00021994       0.60284234 </v>
    <v>       0.91165537       0.33333333       0.10276699 </v>
    <v>       0.90981968       0.33333333       0.60264193 </v>
    <v>       0.90898537       0.66630331       0.10139402 </v>
    <v>       0.90931858       0.66644673       0.60284234 </v>
    <v>       0.16334554       0.16983287       0.16103173 </v>
    <v>       0.15997964       0.16691500       0.65799252 </v>
    <v>       0.16334554       0.49683379       0.16103173 </v>
    <v>       0.15997964       0.49975167       0.65799252 </v>
    <v>       0.15849881       0.83333333       0.15754770 </v>
    <v>       0.15946400       0.83333333       0.65981580 </v>
    <v>       0.34017290       0.00465905       0.34095672 </v>
    <v>       0.34266917       0.00021753       0.84410653 </v>
    <v>       0.34207606       0.33333333       0.84386168 </v>
    <v>       0.34017290       0.66200762       0.34095672 </v>
    <v>       0.34266917       0.66644913       0.84410653 </v>
    <v>       0.09259965       0.00061433       0.39799703 </v>
    <v>       0.08973131       0.00014783       0.89792252 </v>
    <v>       0.09984758       0.33333333       0.39707825 </v>
    <v>       0.09095286       0.33333333       0.89846679 </v>
    <v>       0.09259965       0.66605233       0.39799703 </v>
    <v>       0.08973131       0.66651884       0.89792252 </v>
    <v>       0.40973884       0.16576507       0.10515408 </v>
    <v>       0.40534914       0.16628162       0.59757983 </v>
    <v>       0.40973884       0.50090160       0.10515408 </v>
    <v>       0.40534914       0.50038505       0.59757983 </v>
    <v>       0.41011897       0.83333333       0.10416689 </v>
    <v>       0.40842110       0.83333333       0.60011924 </v>
    <v>       0.99666796       0.16557408       0.12369633 </v>
    <v>       0.99694281       0.16656207       0.62909754 </v>
    <v>       0.99666796       0.50109259       0.12369633 </v>
    <v>       0.99694281       0.50010460       0.62909754 </v>
    <v>       0.99456713       0.83333333       0.12523552 </v>
    <v>       0.99633545       0.83333333       0.62964302 </v>
    <v>       0.50428018       0.00100172       0.37364341 </v>
    <v>       0.50534893       0.99957322       0.87327762 </v>
    <v>       0.50130842       0.33333333       0.37198046 </v>
    <v>       0.50498153       0.33333333       0.87240744 </v>
    <v>       0.50428018       0.66566495       0.37364341 </v>
    <v>       0.50534893       0.66709345       0.87327762 </v>
    <v>       0.67468159       0.16630265       0.28080924 </v>
    <v>       0.67187307       0.16773374       0.77960248 </v>
    <v>       0.67468159       0.50036402       0.28080924 </v>
    <v>       0.67187307       0.49893293       0.77960248 </v>
    <v>       0.67422018       0.83333333       0.28159523 </v>
    <v>       0.67222610       0.83333333       0.77987259 </v>
    <v>       0.82921678       0.00039633       0.22026208 </v>
    <v>       0.82648211       0.00039614       0.71878378 </v>
    <v>       0.82977768       0.33333333       0.22005732 </v>
    <v>       0.82673255       0.33333333       0.71862395 </v>
    <v>       0.82921678       0.66627034       0.22026208 </v>
    <v>       0.82648211       0.66627053       0.71878378 </v>
    <v>       0.83360436       0.00026996       0.44628990 </v>
    <v>       0.83074181       0.00030946       0.94469815 </v>
    <v>       0.83269271       0.33333333       0.44642629 </v>
    <v>       0.83204595       0.33333333       0.94588556 </v>
    <v>       0.83360436       0.66639671       0.44628990 </v>
    <v>       0.83074181       0.66635720       0.94469815 </v>
    <v>       0.66897164       0.16725090       0.05456597 </v>
    <v>       0.66755995       0.16651434       0.55353014 </v>
    <v>       0.66897164       0.49941577       0.05456597 </v>
    <v>       0.66755995       0.50015233       0.55353014 </v>
    <v>       0.67112043       0.83333333       0.05502043 </v>
    <v>       0.66769858       0.83333333       0.55379414 </v>
    <v>       0.49936336       0.99924116       0.12661441 </v>
    <v>       0.49614328       0.00067252       0.62814147 </v>
    <v>       0.49775941       0.33333333       0.13127217 </v>
    <v>       0.49334760       0.33333333       0.62153965 </v>
    <v>       0.49936336       0.66742551       0.12661441 </v>
    <v>       0.49614328       0.66599415       0.62814147 </v>
    <v>       0.00626994       0.16824421       0.37583598 </v>
    <v>       0.00255270       0.16712700       0.87092667 </v>
    <v>       0.00626994       0.49842245       0.37583598 </v>
    <v>       0.00255270       0.49953967       0.87092667 </v>
    <v>       0.00452825       0.83333333       0.37506687 </v>
    <v>       0.00193660       0.83333333       0.87081596 </v>
    <v>       0.16898915       0.99654573       0.27838235 </v>
    <v>       0.17342622       0.00003045       0.78248843 </v>
    <v>       0.16128695       0.33333333       0.26951784 </v>
    <v>       0.17331414       0.33333333       0.78190944 </v>
    <v>       0.16898915       0.67012094       0.27838235 </v>
    <v>       0.17342622       0.66663621       0.78248843 </v>
    <v>       0.32491306       0.14767608       0.21324985 </v>
    <v>       0.32848512       0.16675046       0.72056413 </v>
    <v>       0.32491306       0.51899059       0.21324985 </v>
    <v>       0.32848512       0.49991621       0.72056413 </v>
    <v>       0.32776775       0.83333333       0.21921249 </v>
    <v>       0.32827741       0.83333333       0.71972782 </v>
    <v>       0.31382624       0.14768110       0.45091537 </v>
    <v>       0.33620986       0.16689767       0.94669934 </v>
    <v>       0.31382624       0.51898557       0.45091537 </v>
    <v>       0.33620986       0.49976900       0.94669934 </v>
    <v>       0.33252991       0.83333333       0.44378357 </v>
    <v>       0.33459420       0.83333333       0.94652481 </v>
    <v>       0.16477637       0.99945294       0.05349721 </v>
    <v>       0.16547826       0.99869723       0.55655381 </v>
    <v>       0.17103634       0.33333333       0.05228316 </v>
    <v>       0.16770798       0.33333333       0.55658284 </v>
    <v>       0.16477637       0.66721373       0.05349721 </v>
    <v>       0.16547826       0.66796944       0.55655381 </v>
   </varray>
  </structure>
  <varray name="forces" >
   <v>      -0.00002627       0.04942629       0.06426208 </v>
   <v>      -0.00933930       0.13663018      -0.04464723 </v>
   <v>       0.00000000       0.08051748       0.08100735 </v>
   <v>       0.00000000       0.15448176      -0.07593724 </v>
   <v>       0.00002627       0.04942629       0.06426208 </v>
   <v>       0.00933930       0.13663018      -0.04464723 </v>
   <v>       0.00485193      -0.04832023       0.00064055 </v>
   <v>       0.00774098      -0.03302260      -0.06473123 </v>
   <v>      -0.00485193      -0.04832023       0.00064055 </v>
   <v>      -0.00774098      -0.03302260      -0.06473123 </v>
   <v>       0.00000000      -0.05716060      -0.00235060 </v>
   <v>       0.00000000      -0.04000289      -0.05831168 </v>
   <v>      -0.24388035       0.11854889       0.02496211 </v>
   <v>       0.02689291      -0.05785711      -0.01157556 </v>
   <v>       0.24388035       0.11854889       0.02496211 </v>
   <v>      -0.02689291      -0.05785711      -0.01157556 </v>
   <v>       0.00000000       0.02444837       0.01889269 </v>
   <v>       0.00000000      -0.04842722      -0.00979377 </v>
   <v>       0.03115231       0.11210172       0.00615871 </v>
   <v>       0.00016031       0.03559062      -0.03438306 </v>
   <v>       0.00000000       0.11548510       0.00412263 </v>
   <v>       0.00000000       0.02966500      -0.03947320 </v>
   <v>      -0.03115231       0.11210172       0.00615871 </v>
   <v>      -0.00016031       0.03559062      -0.03438306 </v>
   <v>       0.06184792      -0.00534257       0.11307728 </v>
   <v>      -0.02186365      -0.01569311      -0.06383363 </v>
   <v>      -0.06184792      -0.00534257       0.11307728 </v>
   <v>       0.02186365      -0.01569311      -0.06383363 </v>
   <v>       0.00000000       0.07651540       0.09548666 </v>
   <v>       0.00000000       0.02593181      -0.02567573 </v>
   <v>      -0.30089391      -0.02138950       0.42522924 </v>
   <v>      -0.01684065      -0.07510684      -0.11261194 </v>
   <v>       0.00000000      -0.04462759      -0.12676150 </v>
   <v>       0.30089391      -0.02138950       0.42522924 </v>
   <v>       0.01684065      -0.07510684      -0.11261194 </v>
   <v>      -0.04810397      -0.13529176       0.07176786 </v>
   <v>       0.00775841      -0.04333620      -0.06893800 </v>
   <v>       0.00000000      -0.22546584       0.16695137 </v>
   <v>       0.00000000      -0.02716364      -0.06016143 </v>
   <v>       0.04810397      -0.13529176       0.07176786 </v>
   <v>      -0.00775841      -0.04333620      -0.06893800 </v>
   <v>      -0.01973614       0.07761951       0.06433170 </v>
   <v>      -0.00971363       0.10378911      -0.50976875 </v>
   <v>       0.01973614       0.07761951       0.06433170 </v>
   <v>       0.00971363       0.10378911      -0.50976875 </v>
   <v>       0.00000000       0.00200436       0.00756116 </v>
   <v>       0.00000000      -0.01709155      -0.06216219 </v>
   <v>       0.00613321      -0.30052351       0.08269995 </v>
   <v>       0.01193478      -0.17500478       0.15760136 </v>
   <v>      -0.00613321      -0.30052351       0.08269995 </v>
   <v>      -0.01193478      -0.17500478       0.15760136 </v>
   <v>       0.00000000      -0.23333588       0.10199668 </v>
   <v>       0.00000000      -0.16991844       0.15953630 </v>
   <v>       0.07637337       0.11852674      -0.15678560 </v>
   <v>       0.00306221       0.19853815      -0.10972690 </v>
   <v>       0.00000000       0.55088922      -0.20738498 </v>
   <v>       0.00000000       0.19704483      -0.11428906 </v>
   <v>      -0.07637337       0.11852674      -0.15678560 </v>
   <v>      -0.00306221       0.19853815      -0.10972690 </v>
   <v>       0.05530668      -0.12186130      -0.15905247 </v>
   <v>      -0.00384222      -0.04382199      -0.07326446 </v>
   <v>      -0.05530668      -0.12186130      -0.15905247 </v>
   <v>       0.00384222      -0.04382199      -0.07326446 </v>
   <v>       0.00000000      -0.06883822      -0.13675461 </v>
   <v>       0.00000000      -0.04621333      -0.08877823 </v>
   <v>       0.00527020       0.00066866       0.09507724 </v>
   <v>      -0.00038466       0.02475698       0.15502652 </v>
   <v>       0.00000000      -0.00582330       0.07208135 </v>
   <v>       0.00000000       0.02886628       0.14438168 </v>
   <v>      -0.00527020       0.00066866       0.09507724 </v>
   <v>       0.00038466       0.02475698       0.15502652 </v>
   <v>       0.00013121       0.43265240      -0.09219553 </v>
   <v>      -0.00773664       0.41986181      -0.04324804 </v>
   <v>       0.00000000       0.43271165      -0.08291042 </v>
   <v>       0.00000000       0.41552092      -0.01511359 </v>
   <v>      -0.00013121       0.43265240      -0.09219553 </v>
   <v>       0.00773664       0.41986181      -0.04324804 </v>
   <v>      -0.00477263      -0.42111595       0.06542190 </v>
   <v>       0.06601672      -0.48950362       0.12463512 </v>
   <v>       0.00477263      -0.42111595       0.06542190 </v>
   <v>      -0.06601672      -0.48950362       0.12463512 </v>
   <v>       0.00000000      -0.44391245       0.07987183 </v>
   <v>       0.00000000      -0.47665840       0.07698707 </v>
   <v>       0.00438966      -0.18331053       0.07366147 </v>
   <v>       0.05322160      -0.24874707       0.25970957 </v>
   <v>       0.00000000      -0.20233854       0.08612313 </v>
   <v>       0.00000000      -0.32656056       0.20811721 </v>
   <v>      -0.00438966      -0.18331053       0.07366147 </v>
   <v>      -0.05322160      -0.24874707       0.25970957 </v>
   <v>      -0.05639243       0.21641833      -0.11202977 </v>
   <v>      -0.00359910       0.17393346      -0.11977494 </v>
   <v>       0.05639243       0.21641833      -0.11202977 </v>
   <v>       0.00359910       0.17393346      -0.11977494 </v>
   <v>       0.00000000       0.18560424      -0.11384571 </v>
   <v>       0.00000000       0.16999756      -0.12963602 </v>
   <v>       0.04471477      -0.01647400      -0.25976672 </v>
   <v>      -0.00727188      -0.01498895      -0.06048958 </v>
   <v>       0.00000000      -0.27647894      -0.09089472 </v>
   <v>       0.00000000       0.00845920      -0.05244272 </v>
   <v>      -0.04471477      -0.01647400      -0.25976672 </v>
   <v>       0.00727188      -0.01498895      -0.06048958 </v>
   <v>      -0.24058258      -0.00659003       0.07659896 </v>
   <v>      -0.00277843       0.03635921       0.24774050 </v>
[...]
       <r>   -12.9920   180.3415   506.0979 </r>
       <r>   -12.8601   200.2865   532.5298 </r>
       <r>   -12.7281   183.7340   556.7773 </r>
       <r>   -12.5961   118.8195   572.4580 </r>
       <r>   -12.4641   114.4221   587.5583 </r>
       <r>   -12.3322   110.6154   602.1563 </r>
       <r>   -12.2002    45.2534   608.1284 </r>
       <r>   -12.0682    29.6490   612.0412 </r>
       <r>   -11.9363    14.5641   613.9632 </r>
       <r>   -11.8043     0.2788   614.0000 </r>
       <r>   -11.6723     0.0000   614.0000 </r>
       <r>   -11.5403     0.0000   614.0000 </r>
       <r>   -11.4084     0.0000   614.0000 </r>
       <r>   -11.2764     0.0000   614.0000 </r>
       <r>   -11.1444     0.0000   614.0000 </r>
       <r>   -11.0125     0.0000   614.0000 </r>
       <r>   -10.8805     0.0000   614.0000 </r>
       <r>   -10.7485     0.0000   614.0000 </r>
       <r>   -10.6166     0.0000   614.0000 </r>
       <r>   -10.4846     0.0000   614.0000 </r>
       <r>   -10.3526     0.0000   614.0000 </r>
       <r>   -10.2206     0.0000   614.0000 </r>
       <r>   -10.0887     0.0000   614.0000 </r>
       <r>    -9.9567     0.0000   614.0000 </r>
       <r>    -9.8247     0.0000   614.0000 </r>
       <r>    -9.6928     0.0000   614.0000 </r>
       <r>    -9.5608     0.0000   614.0000 </r>
       <r>    -9.4288     0.0000   614.0000 </r>
       <r>    -9.2969     0.0000   614.0000 </r>
       <r>    -9.1649     0.0000   614.0000 </r>
       <r>    -9.0329     0.0000   614.0000 </r>
       <r>    -8.9009     0.0000   614.0000 </r>
       <r>    -8.7690     0.0000   614.0000 </r>
       <r>    -8.6370     0.0000   614.0000 </r>
       <r>    -8.5050     0.0000   614.0000 </r>
       <r>    -8.3731     0.0000   614.0000 </r>
       <r>    -8.2411     0.0000   614.0000 </r>
       <r>    -8.1091     0.0000   614.0000 </r>
       <r>    -7.9771     0.0000   614.0000 </r>
       <r>    -7.8452     0.0000   614.0000 </r>
       <r>    -7.7132     0.0000   614.0000 </r>
       <r>    -7.5812     0.0000   614.0000 </r>
       <r>    -7.4493     0.0000   614.0000 </r>
       <r>    -7.3173     0.0000   614.0000 </r>
       <r>    -7.1853     0.0000   614.0000 </r>
       <r>    -7.0534     0.0000   614.0000 </r>
       <r>    -6.9214     0.0000   614.0000 </r>
       <r>    -6.7894     0.0000   614.0000 </r>
       <r>    -6.6574     0.0000   614.0000 </r>
       <r>    -6.5255     0.0000   614.0000 </r>
       <r>    -6.3935     0.0000   614.0000 </r>
       <r>    -6.2615     0.0000   614.0000 </r>
       <r>    -6.1296     0.0000   614.0000 </r>
       <r>    -5.9976     0.0000   614.0000 </r>
       <r>    -5.8656     0.0000   614.0000 </r>
       <r>    -5.7336     0.0000   614.0000 </r>
       <r>    -5.6017     0.2610   614.0344 </r>
       <r>    -5.4697     7.1052   614.9721 </r>
       <r>    -5.3377    15.1538   616.9720 </r>
       <r>    -5.2058    22.3880   619.9265 </r>
       <r>    -5.0738    32.4431   624.2080 </r>
       <r>    -4.9418    24.5354   627.4460 </r>
       <r>    -4.8099    45.5278   633.4543 </r>
       <r>    -4.6779    36.8000   638.3108 </r>
       <r>    -4.5459    57.6082   645.9134 </r>
       <r>    -4.4139    54.4362   653.0974 </r>
       <r>    -4.2820    43.4044   658.8255 </r>
       <r>    -4.1500    41.6144   664.3174 </r>
       <r>    -4.0180    48.3742   670.7013 </r>
       <r>    -3.8861    28.7533   674.4959 </r>
       <r>    -3.7541    33.9682   678.9787 </r>
       <r>    -3.6221    24.3284   682.1893 </r>
       <r>    -3.4902    34.2641   686.7112 </r>
       <r>    -3.3582    40.0391   691.9952 </r>
       <r>    -3.2262    35.5297   696.6840 </r>
       <r>    -3.0942    34.8104   701.2780 </r>
       <r>    -2.9623    30.3067   705.2776 </r>
       <r>    -2.8303    39.7911   710.5288 </r>
       <r>    -2.6983    29.9824   714.4856 </r>
       <r>    -2.5664    51.0239   721.2193 </r>
       <r>    -2.4344    40.5101   726.5654 </r>
       <r>    -2.3024    37.3677   731.4968 </r>
       <r>    -2.1704    54.3738   738.6726 </r>
       <r>    -2.0385    77.4296   748.8910 </r>
       <r>    -1.9065    64.3078   757.3777 </r>
       <r>    -1.7745    52.0853   764.2514 </r>
       <r>    -1.6426    67.4687   773.1553 </r>
       <r>    -1.5106    51.4258   779.9420 </r>
       <r>    -1.3786    49.9806   786.5379 </r>
       <r>    -1.2467    65.3321   795.1599 </r>
       <r>    -1.1147    65.2167   803.7665 </r>
       <r>    -0.9827    67.5530   812.6815 </r>
       <r>    -0.8507    73.4012   822.3683 </r>
       <r>    -0.7188    60.3292   830.3300 </r>
       <r>    -0.5868    62.5418   838.5837 </r>
       <r>    -0.4548    73.4855   848.2816 </r>
       <r>    -0.3229    76.9553   858.4374 </r>
       <r>    -0.1909    78.4430   868.7896 </r>
       <r>    -0.0589    72.4523   878.3511 </r>
       <r>     0.0730    70.9979   887.7207 </r>
       <r>     0.2050    77.8490   897.9945 </r>
       <r>     0.3370    87.4469   909.5349 </r>
       <r>     0.4690    95.9491   922.1974 </r>
       <r>     0.6009    89.8750   934.0582 </r>
       <r>     0.7329    83.9827   945.1415 </r>
       <r>     0.8649   118.0278   960.7177 </r>
       <r>     0.9968   109.2551   975.1361 </r>
       <r>     1.1288   132.4938   992.6214 </r>
       <r>     1.2608   116.4189  1007.9852 </r>
       <r>     1.3928    77.1252  1018.1635 </r>
       <r>     1.5247    62.4191  1026.4009 </r>
       <r>     1.6567    56.5712  1033.8667 </r>
       <r>     1.7887    36.5680  1038.6926 </r>
       <r>     1.9206    22.4202  1041.6514 </r>
       <r>     2.0526    13.7283  1043.4631 </r>
       <r>     2.1846     4.0670  1043.9998 </r>
       <r>     2.3165     0.0136  1044.0016 </r>
       <r>     2.4485     5.5804  1044.7381 </r>
       <r>     2.5805     9.2664  1045.9610 </r>
       <r>     2.7125     0.2958  1046.0000 </r>
       <r>     2.8444     0.0000  1046.0000 </r>
       <r>     2.9764     0.0000  1046.0000 </r>
       <r>     3.1084     0.0000  1046.0000 </r>
       <r>     3.2403     0.0000  1046.0000 </r>
       <r>     3.3723     0.0000  1046.0000 </r>
       <r>     3.5043     0.0000  1046.0000 </r>
       <r>     3.6363     0.0000  1046.0000 </r>
       <r>     3.7682     0.0000  1046.0000 </r>
       <r>     3.9002     0.0000  1046.0000 </r>
       <r>     4.0322     0.0000  1046.0000 </r>
       <r>     4.1641     0.0000  1046.0000 </r>
       <r>     4.2961     0.0000  1046.0000 </r>
       <r>     4.4281     0.0000  1046.0000 </r>
       <r>     4.5600     0.0000  1046.0000 </r>
       <r>     4.6920     0.0000  1046.0000 </r>
       <r>     4.8240     0.0000  1046.0000 </r>
       <r>     4.9560     0.0000  1046.0000 </r>
       <r>     5.0879     0.0000  1046.0000 </r>
       <r>     5.2199     0.0000  1046.0000 </r>
       <r>     5.3519     0.0000  1046.0000 </r>
       <r>     5.4838     0.0000  1046.0000 </r>
       <r>     5.6158     0.0000  1046.0000 </r>
       <r>     5.7478     0.0000  1046.0000 </r>
       <r>     5.8797     0.0000  1046.0000 </r>
       <r>     6.0117     0.0000  1046.0000 </r>
       <r>     6.1437     0.0000  1046.0000 </r>
       <r>     6.2757     0.0000  1046.0000 </r>
       <r>     6.4076     0.0000  1046.0000 </r>
       <r>     6.5396     0.0000  1046.0000 </r>
       <r>     6.6716     0.0140  1046.0019 </r>
       <r>     6.8035     1.6957  1046.2256 </r>
       <r>     6.9355     0.1846  1046.2500 </r>
       <r>     7.0675     0.0000  1046.2500 </r>
       <r>     7.1995     0.0000  1046.2500 </r>
       <r>     7.3314     0.0000  1046.2500 </r>
       <r>     7.4634     0.2750  1046.2863 </r>
       <r>     7.5954     3.3138  1046.7236 </r>
       <r>     7.7273     3.0629  1047.1278 </r>
       <r>     7.8593     1.3224  1047.3023 </r>
       <r>     7.9913     3.3750  1047.7477 </r>
       <r>     8.1232     3.7453  1048.2420 </r>
       <r>     8.2552     0.0605  1048.2500 </r>
       <r>     8.3872     0.2882  1048.2880 </r>
       <r>     8.5192     6.1362  1049.0978 </r>
       <r>     8.6511     8.0630  1050.1619 </r>
       <r>     8.7831     3.4625  1050.6189 </r>
       <r>     8.9151     6.8937  1051.5286 </r>
       <r>     9.0470     3.4601  1051.9853 </r>
       <r>     9.1790     4.7569  1052.6130 </r>
       <r>     9.3110     9.3131  1053.8421 </r>
       <r>     9.4430     6.8179  1054.7419 </r>
       <r>     9.5749     3.7041  1055.2307 </r>
       <r>     9.7069     4.1134  1055.7735 </r>
       <r>     9.8389    16.5182  1057.9534 </r>
       <r>     9.9708    12.6448  1059.6222 </r>
       <r>    10.1028     6.9347  1060.5374 </r>
       <r>    10.2348     8.6165  1061.6745 </r>
       <r>    10.3667    21.3392  1064.4906 </r>
       <r>    10.4987    31.5907  1068.6597 </r>
       <r>    10.6307    35.9430  1073.4031 </r>
       <r>    10.7627    36.6641  1078.2417 </r>
       <r>    10.8946    43.8141  1084.0238 </r>
       <r>    11.0266    32.8505  1088.3591 </r>
       <r>    11.1586    18.3211  1090.7770 </r>
       <r>    11.2905    29.9963  1094.7356 </r>
       <r>    11.4225    32.4531  1099.0184 </r>
       <r>    11.5545    31.0411  1103.1149 </r>
       <r>    11.6864    40.0373  1108.3987 </r>
       <r>    11.8184    35.1659  1113.0395 </r>
       <r>    11.9504    33.4004  1117.4474 </r>
       <r>    12.0824    29.4075  1121.3283 </r>
       <r>    12.2143    28.0268  1125.0270 </r>
       <r>    12.3463    38.3947  1130.0940 </r>
       <r>    12.4783    43.2324  1135.7994 </r>
       <r>    12.6102    51.9379  1142.6537 </r>
       <r>    12.7422    32.5652  1146.9513 </r>
       <r>    12.8742    19.2891  1149.4969 </r>
       <r>    13.0062    23.1382  1152.5505 </r>
       <r>    13.1381    33.9631  1157.0326 </r>
       <r>    13.2701    48.1895  1163.3922 </r>
       <r>    13.4021    35.6220  1168.0932 </r>
       <r>    13.5340    38.2134  1173.1363 </r>
       <r>    13.6660    26.7921  1176.6720 </r>
       <r>    13.7980    35.5696  1181.3662 </r>
       <r>    13.9299    29.7960  1185.2984 </r>
       <r>    14.0619    35.6769  1190.0067 </r>
       <r>    14.1939    29.9721  1193.9621 </r>
       <r>    14.3259    29.2410  1197.8210 </r>
       <r>    14.4578    41.3887  1203.2831 </r>
       <r>    14.5898    33.3931  1207.6900 </r>
       <r>    14.7218    28.2628  1211.4199 </r>
       <r>    14.8537    28.9923  1215.2460 </r>
       <r>    14.9857    27.6395  1218.8936 </r>
       <r>    15.1177    25.1339  1222.2105 </r>
       <r>    15.2497    27.1349  1225.7916 </r>
       <r>    15.3816    28.8553  1229.5996 </r>
       <r>    15.5136    26.4249  1233.0869 </r>
       <r>    15.6456    22.1930  1236.0157 </r>
       <r>    15.7775    21.0900  1238.7990 </r>
       <r>    15.9095    27.3294  1242.4057 </r>
       <r>    16.0415    20.6305  1245.1283 </r>
       <r>    16.1734    18.2906  1247.5421 </r>
       <r>    16.3054     9.7510  1248.8289 </r>
       <r>    16.4374    13.4169  1250.5996 </r>
       <r>    16.5694     4.9264  1251.2497 </r>
       <r>    16.7013     2.2486  1251.5464 </r>
       <r>    16.8333     3.4191  1251.9977 </r>
       <r>    16.9653     0.0176  1252.0000 </r>
       <r>    17.0972     0.0000  1252.0000 </r>
       <r>    17.2292     0.0000  1252.0000 </r>
       <r>    17.3612     0.0000  1252.0000 </r>
       <r>    17.4931     0.0000  1252.0000 </r>
       <r>    17.6251     0.0000  1252.0000 </r>
       <r>    17.7571     0.0000  1252.0000 </r>
       <r>    17.8891     0.0000  1252.0000 </r>
       <r>    18.0210     0.0000  1252.0000 </r>
       <r>    18.1530     0.0000  1252.0000 </r>
       <r>    18.2850     0.0000  1252.0000 </r>
       <r>    18.4169     0.0000  1252.0000 </r>
       <r>    18.5489     0.0000  1252.0000 </r>
      </set>
     </set>
    </array>
   </total>
  </dos>
 </calculation>
 <structure name="finalpos" >
  <crystal>
   <varray name="basis" >
    <v>       0.00000000      12.28047342       0.00000000 </v>
    <v>       9.14270205       0.00000000       0.00000000 </v>
    <v>       0.00000000      -2.76826177     -11.30069772 </v>
   </varray>
   <i name="volume">   1268.80515525 </i>
   <varray name="rec_basis" >
    <v>       0.00000000       0.08143009      -0.01994742 </v>
    <v>       0.10937686      -0.00000000       0.00000000 </v>
    <v>       0.00000000       0.00000000      -0.08849011 </v>
   </varray>
  </crystal>
  <varray name="positions" >
   <v>       0.66106064       0.00014496       0.15792727 </v>
   <v>       0.65780911       0.00033104       0.65530227 </v>
   <v>       0.66139285       0.33333333       0.15835032 </v>
   <v>       0.65753506       0.33333333       0.65474435 </v>
   <v>       0.66106064       0.66652171       0.15792727 </v>
   <v>       0.65780911       0.66633563       0.65530227 </v>
   <v>       0.84400221       0.16720356       0.34430784 </v>
   <v>       0.84016243       0.16728388       0.84263428 </v>
   <v>       0.84400221       0.49946311       0.34430784 </v>
   <v>       0.84016243       0.49938278       0.84263428 </v>
   <v>       0.84274028       0.83333333       0.34419898 </v>
   <v>       0.83970340       0.83333333       0.84234858 </v>
   <v>       0.58917661       0.17049772       0.39594255 </v>
   <v>       0.59198990       0.16653105       0.89804501 </v>
   <v>       0.58917661       0.49616894       0.39594255 </v>
   <v>       0.59198990       0.50013562       0.89804501 </v>
   <v>       0.59019907       0.83333333       0.39708674 </v>
   <v>       0.59282826       0.83333333       0.89886798 </v>
   <v>       0.90898537       0.00036336       0.10139402 </v>
   <v>       0.90931858       0.00021994       0.60284234 </v>
   <v>       0.91165537       0.33333333       0.10276699 </v>
   <v>       0.90981968       0.33333333       0.60264193 </v>
   <v>       0.90898537       0.66630331       0.10139402 </v>
   <v>       0.90931858       0.66644673       0.60284234 </v>
   <v>       0.16334554       0.16983287       0.16103173 </v>
   <v>       0.15997964       0.16691500       0.65799252 </v>
   <v>       0.16334554       0.49683379       0.16103173 </v>
   <v>       0.15997964       0.49975167       0.65799252 </v>
   <v>       0.15849881       0.83333333       0.15754770 </v>
   <v>       0.15946400       0.83333333       0.65981580 </v>
   <v>       0.34017290       0.00465905       0.34095672 </v>
   <v>       0.34266917       0.00021753       0.84410653 </v>
   <v>       0.34207606       0.33333333       0.84386168 </v>
   <v>       0.34017290       0.66200762       0.34095672 </v>
   <v>       0.34266917       0.66644913       0.84410653 </v>
   <v>       0.09259965       0.00061433       0.39799703 </v>
   <v>       0.08973131       0.00014783       0.89792252 </v>
   <v>       0.09984758       0.33333333       0.39707825 </v>
   <v>       0.09095286       0.33333333       0.89846679 </v>
   <v>       0.09259965       0.66605233       0.39799703 </v>
   <v>       0.08973131       0.66651884       0.89792252 </v>
   <v>       0.40973884       0.16576507       0.10515408 </v>
   <v>       0.40534914       0.16628162       0.59757983 </v>
   <v>       0.40973884       0.50090160       0.10515408 </v>
   <v>       0.40534914       0.50038505       0.59757983 </v>
   <v>       0.41011897       0.83333333       0.10416689 </v>
   <v>       0.40842110       0.83333333       0.60011924 </v>
   <v>       0.99666796       0.16557408       0.12369633 </v>
   <v>       0.99694281       0.16656207       0.62909754 </v>
   <v>       0.99666796       0.50109259       0.12369633 </v>
   <v>       0.99694281       0.50010460       0.62909754 </v>
   <v>       0.99456713       0.83333333       0.12523552 </v>
   <v>       0.99633545       0.83333333       0.62964302 </v>
   <v>       0.50428018       0.00100172       0.37364341 </v>
   <v>       0.50534893       0.99957322       0.87327762 </v>
   <v>       0.50130842       0.33333333       0.37198046 </v>
   <v>       0.50498153       0.33333333       0.87240744 </v>
   <v>       0.50428018       0.66566495       0.37364341 </v>
   <v>       0.50534893       0.66709345       0.87327762 </v>
   <v>       0.67468159       0.16630265       0.28080924 </v>
   <v>       0.67187307       0.16773374       0.77960248 </v>
   <v>       0.67468159       0.50036402       0.28080924 </v>
   <v>       0.67187307       0.49893293       0.77960248 </v>
   <v>       0.67422018       0.83333333       0.28159523 </v>
   <v>       0.67222610       0.83333333       0.77987259 </v>
   <v>       0.82921678       0.00039633       0.22026208 </v>
   <v>       0.82648211       0.00039614       0.71878378 </v>
   <v>       0.82977768       0.33333333       0.22005732 </v>
   <v>       0.82673255       0.33333333       0.71862395 </v>
   <v>       0.82921678       0.66627034       0.22026208 </v>
   <v>       0.82648211       0.66627053       0.71878378 </v>
   <v>       0.83360436       0.00026996       0.44628990 </v>
   <v>       0.83074181       0.00030946       0.94469815 </v>
   <v>       0.83269271       0.33333333       0.44642629 </v>
   <v>       0.83204595       0.33333333       0.94588556 </v>
   <v>       0.83360436       0.66639671       0.44628990 </v>
   <v>       0.83074181       0.66635720       0.94469815 </v>
   <v>       0.66897164       0.16725090       0.05456597 </v>
   <v>       0.66755995       0.16651434       0.55353014 </v>
   <v>       0.66897164       0.49941577       0.05456597 </v>
   <v>       0.66755995       0.50015233       0.55353014 </v>
   <v>       0.67112043       0.83333333       0.05502043 </v>
   <v>       0.66769858       0.83333333       0.55379414 </v>
   <v>       0.49936336       0.99924116       0.12661441 </v>
   <v>       0.49614328       0.00067252       0.62814147 </v>
   <v>       0.49775941       0.33333333       0.13127217 </v>
   <v>       0.49334760       0.33333333       0.62153965 </v>
   <v>       0.49936336       0.66742551       0.12661441 </v>
   <v>       0.49614328       0.66599415       0.62814147 </v>
   <v>       0.00626994       0.16824421       0.37583598 </v>
   <v>       0.00255270       0.16712700       0.87092667 </v>
   <v>       0.00626994       0.49842245       0.37583598 </v>
   <v>       0.00255270       0.49953967       0.87092667 </v>
   <v>       0.00452825       0.83333333       0.37506687 </v>
   <v>       0.00193660       0.83333333       0.87081596 </v>
   <v>       0.16898915       0.99654573       0.27838235 </v>
   <v>       0.17342622       0.00003045       0.78248843 </v>
   <v>       0.16128695       0.33333333       0.26951784 </v>
   <v>       0.17331414       0.33333333       0.78190944 </v>
   <v>       0.16898915       0.67012094       0.27838235 </v>
   <v>       0.17342622       0.66663621       0.78248843 </v>
   <v>       0.32491306       0.14767608       0.21324985 </v>
   <v>       0.32848512       0.16675046       0.72056413 </v>
   <v>       0.32491306       0.51899059       0.21324985 </v>
   <v>       0.32848512       0.49991621       0.72056413 </v>
   <v>       0.32776775       0.83333333       0.21921249 </v>
   <v>       0.32827741       0.83333333       0.71972782 </v>
   <v>       0.31382624       0.14768110       0.45091537 </v>
   <v>       0.33620986       0.16689767       0.94669934 </v>
   <v>       0.31382624       0.51898557       0.45091537 </v>
   <v>       0.33620986       0.49976900       0.94669934 </v>
   <v>       0.33252991       0.83333333       0.44378357 </v>
   <v>       0.33459420       0.83333333       0.94652481 </v>
   <v>       0.16477637       0.99945294       0.05349721 </v>
   <v>       0.16547826       0.99869723       0.55655381 </v>
   <v>       0.17103634       0.33333333       0.05228316 </v>
   <v>       0.16770798       0.33333333       0.55658284 </v>
   <v>       0.16477637       0.66721373       0.05349721 </v>
   <v>       0.16547826       0.66796944       0.55655381 </v>
  </varray>
 </structure>
</modeling>
