       N       E                     dE             d eps       ncg     rms          rms(c)
DAV:   1     0.218555950714E+05    0.21856E+05   -0.31821E+05 10016   0.281E+03
DAV:   2     0.485446332824E+04   -0.17001E+05   -0.16024E+05 10016   0.815E+02
DAV:   3    -0.141906155817E+03   -0.49964E+04   -0.47081E+04 12944   0.321E+02
DAV:   4    -0.763833209365E+03   -0.62193E+03   -0.60811E+03 12376   0.121E+02
DAV:   5    -0.806091712940E+03   -0.42259E+02   -0.41931E+02 14208   0.343E+01    0.602E+01
RMM:   6    -0.696141946312E+03    0.10995E+03   -0.37496E+02 13153   0.235E+01    0.195E+01
RMM:   7    -0.702612443929E+03   -0.64705E+01   -0.71538E+01 13787   0.101E+01    0.176E+01
RMM:   8    -0.699254017125E+03    0.33584E+01   -0.11229E+01 15321   0.459E+00    0.131E+01
RMM:   9    -0.698722327651E+03    0.53169E+00   -0.43057E+00 13996   0.226E+00    0.102E+01
RMM:  10    -0.702725349974E+03   -0.40030E+01   -0.61879E+00 11967   0.309E+00    0.170E+01
RMM:  11    -0.698414674786E+03    0.43107E+01   -0.21347E+00 14001   0.174E+00    0.583E+00
RMM:  12    -0.698234930922E+03    0.17974E+00   -0.31399E-01 14599   0.655E-01    0.638E+00
RMM:  13    -0.698072891108E+03    0.16204E+00   -0.11316E+00 13613   0.107E+00    0.453E+00
RMM:  14    -0.698022606503E+03    0.50285E-01   -0.11922E-01 14719   0.428E-01    0.416E+00
RMM:  15    -0.697906889150E+03    0.11572E+00   -0.48805E-02 13785   0.200E-01    0.276E+00
RMM:  16    -0.697874847257E+03    0.32042E-01   -0.25603E-02 13088   0.165E-01    0.190E+00
RMM:  17    -0.697855648302E+03    0.19199E-01   -0.14361E-02 13676   0.129E-01    0.113E+00
RMM:  18    -0.697851429236E+03    0.42191E-02   -0.35771E-03 14533   0.682E-02    0.603E-01
RMM:  19    -0.697852178662E+03   -0.74943E-03   -0.27258E-03 12930   0.524E-02    0.813E-01
RMM:  20    -0.697850928323E+03    0.12503E-02   -0.16607E-03 13233   0.486E-02    0.428E-01
RMM:  21    -0.697851008651E+03   -0.80328E-04   -0.45911E-04 11655   0.336E-02    0.295E-01
RMM:  22    -0.697850706243E+03    0.30241E-03   -0.11320E-04 10112   0.142E-02    0.902E-02
RMM:  23    -0.697850797988E+03   -0.91745E-04   -0.60584E-05  9068   0.104E-02    0.141E-01
RMM:  24    -0.697850730452E+03    0.67536E-04   -0.30785E-05  7930   0.735E-03    0.414E-02
RMM:  25    -0.697850752803E+03   -0.22351E-04   -0.14522E-05  6450   0.557E-03    0.698E-02
RMM:  26    -0.697850734460E+03    0.18342E-04   -0.46019E-06  6002   0.431E-03    0.135E-02
RMM:  27    -0.697850737103E+03   -0.26424E-05   -0.15302E-06  5825   0.260E-03
   1 F= -.69785074E+03 E0= -.69783291E+03  d E =-.697851E+03
       N       E                     dE             d eps       ncg     rms          rms(c)
DAV:   1    -0.696022733809E+03    0.18280E+01   -0.37234E+02 11456   0.268E+01    0.337E+00
RMM:   2    -0.698423087092E+03   -0.24004E+01   -0.20419E+01 13841   0.956E+00    0.102E+01
RMM:   3    -0.698445407017E+03   -0.22320E-01   -0.55319E+00 14344   0.359E+00    0.321E+00
RMM:   4    -0.698480647588E+03   -0.35241E-01   -0.91361E-01 15647   0.140E+00    0.300E+00
RMM:   5    -0.698422600899E+03    0.58047E-01   -0.13328E-01 15620   0.536E-01    0.250E+00
RMM:   6    -0.698399935045E+03    0.22666E-01   -0.37945E-02 13306   0.274E-01    0.179E+00
RMM:   7    -0.698356898910E+03    0.43036E-01   -0.74531E-02 13136   0.353E-01    0.863E-01
RMM:   8    -0.698338645471E+03    0.18253E-01   -0.55153E-02 13203   0.302E-01    0.106E+00
RMM:   9    -0.698334637859E+03    0.40076E-02   -0.11812E-02 15039   0.150E-01    0.273E-01
RMM:  10    -0.698334444512E+03    0.19335E-03   -0.43338E-03 13597   0.927E-02    0.183E-01
RMM:  11    -0.698334410641E+03    0.33871E-04   -0.11790E-03 13694   0.458E-02    0.926E-02
RMM:  12    -0.698334392789E+03    0.17853E-04   -0.24449E-04 12307   0.246E-02    0.378E-02
RMM:  13    -0.698334397573E+03   -0.47839E-05   -0.77812E-05 10526   0.151E-02
   2 F= -.69833440E+03 E0= -.69830883E+03  d E =-.483660E+00
       N       E                     dE             d eps       ncg     rms          rms(c)
DAV:   1    -0.698262465563E+03    0.71927E-01   -0.35247E+01 11432   0.872E+00    0.119E+00
RMM:   2    -0.698431359347E+03   -0.16889E+00   -0.17476E+00 14081   0.276E+00    0.112E+00
RMM:   3    -0.698456677263E+03   -0.25318E-01   -0.40920E-01 14358   0.990E-01    0.136E+00
RMM:   4    -0.698456472372E+03    0.20489E-03   -0.54029E-02 15710   0.360E-01    0.908E-01
RMM:   5    -0.698453105623E+03    0.33667E-02   -0.85976E-03 15157   0.139E-01    0.402E-01
RMM:   6    -0.698451562955E+03    0.15427E-02   -0.28423E-03 14870   0.713E-02    0.373E-01
RMM:   7    -0.698451204471E+03    0.35848E-03   -0.19294E-03 13144   0.500E-02    0.508E-01
RMM:   8    -0.698448764300E+03    0.24402E-02   -0.74887E-03 13764   0.940E-02    0.353E-01
RMM:   9    -0.698448274888E+03    0.48941E-03   -0.83708E-04 14003   0.413E-02    0.469E-02
RMM:  10    -0.698448337134E+03   -0.62245E-04   -0.17716E-04 10752   0.170E-02    0.228E-02
RMM:  11    -0.698448341034E+03   -0.38999E-05   -0.57063E-05 10085   0.111E-02
   3 F= -.69844834E+03 E0= -.69842747E+03  d E =-.597604E+00
       N       E                     dE             d eps       ncg     rms          rms(c)
DAV:   1    -0.698232437964E+03    0.21590E+00   -0.10426E+02 10424   0.135E+01    0.236E+00
RMM:   2    -0.699017604202E+03   -0.78517E+00   -0.40288E+00 13646   0.371E+00    0.888E+00
RMM:   3    -0.698765859775E+03    0.25174E+00   -0.91285E-01 15079   0.145E+00    0.355E+00
RMM:   4    -0.698668575479E+03    0.97284E-01   -0.14813E-01 15279   0.555E-01    0.129E+00
RMM:   5    -0.698671601402E+03   -0.30259E-02   -0.36360E-02 15277   0.242E-01    0.167E+00
RMM:   6    -0.698654514169E+03    0.17087E-01   -0.93618E-03 13924   0.121E-01    0.639E-01
RMM:   7    -0.698649880150E+03    0.46340E-02   -0.16240E-02 12667   0.139E-01    0.298E-01
RMM:   8    -0.698649118409E+03    0.76174E-03   -0.41604E-03 14402   0.776E-02    0.205E-01
RMM:   9    -0.698649468280E+03   -0.34987E-03   -0.12100E-03 13214   0.411E-02    0.306E-01
RMM:  10    -0.698649030579E+03    0.43770E-03   -0.27505E-04 11699   0.228E-02    0.796E-02
RMM:  11    -0.698649058965E+03   -0.28387E-04   -0.98654E-05 10125   0.136E-02    0.318E-02
RMM:  12    -0.698649061325E+03   -0.23595E-05   -0.37405E-05  9426   0.926E-03
   4 F= -.69864906E+03 E0= -.69862642E+03  d E =-.200720E+00
       N       E                     dE             d eps       ncg     rms          rms(c)
DAV:   1    -0.698647987225E+03    0.10717E-02   -0.60633E-01 11520   0.103E+00    0.184E-01
RMM:   2    -0.698654074958E+03   -0.60877E-02   -0.22476E-02 13360   0.277E-01    0.104E+00
RMM:   3    -0.698649599777E+03    0.44752E-02   -0.49141E-03 14931   0.110E-01    0.137E-01
RMM:   4    -0.698650313074E+03   -0.71330E-03   -0.65767E-04 13490   0.418E-02    0.114E-01
RMM:   5    -0.698650284273E+03    0.28802E-04   -0.12845E-04 11120   0.188E-02    0.811E-02
RMM:   6    -0.698650246144E+03    0.38129E-04   -0.40891E-05  8878   0.999E-03    0.400E-02
RMM:   7    -0.698650232353E+03    0.13791E-04   -0.57879E-05  8991   0.968E-03    0.389E-02
RMM:   8    -0.698650214139E+03    0.18214E-04   -0.53872E-05  9074   0.919E-03    0.976E-03
RMM:   9    -0.698650214226E+03   -0.86518E-07   -0.95737E-06  6047   0.597E-03
   5 F= -.69865021E+03 E0= -.69862743E+03  d E =-.201873E+00
       N       E                     dE             d eps       ncg     rms          rms(c)
DAV:   1    -0.698538355520E+03    0.11186E+00   -0.61382E+01 10352   0.103E+01    0.203E+00
RMM:   2    -0.699136968158E+03   -0.59861E+00   -0.22294E+00 13355   0.270E+00    0.882E+00
RMM:   3    -0.698817220111E+03    0.31975E+00   -0.48423E-01 15119   0.107E+00    0.295E+00
RMM:   4    -0.698762146240E+03    0.55074E-01   -0.85812E-02 15200   0.423E-01    0.860E-01
RMM:   5    -0.698768348017E+03   -0.62018E-02   -0.18725E-02 15169   0.184E-01    0.132E+00
RMM:   6    -0.698759808218E+03    0.85398E-02   -0.55191E-03 14485   0.873E-02    0.526E-01
RMM:   7    -0.698757183756E+03    0.26245E-02   -0.54567E-03 12904   0.796E-02    0.296E-01
RMM:   8    -0.698756579185E+03    0.60457E-03   -0.33904E-03 13300   0.641E-02    0.158E-01
RMM:   9    -0.698756479438E+03    0.99747E-04   -0.57708E-04 13632   0.331E-02    0.762E-02
RMM:  10    -0.698756492664E+03   -0.13225E-04   -0.16229E-04 10641   0.166E-02    0.633E-02
RMM:  11    -0.698756478581E+03    0.14082E-04   -0.49334E-05  9570   0.104E-02    0.233E-02
RMM:  12    -0.698756478900E+03   -0.31896E-06   -0.17882E-05  7297   0.670E-03
   6 F= -.69875648E+03 E0= -.69873374E+03  d E =-.106265E+00
       N       E                     dE             d eps       ncg     rms          rms(c)
DAV:   1    -0.698736318579E+03    0.20160E-01   -0.83568E+00 10888   0.380E+00    0.772E-01
RMM:   2    -0.698845557011E+03   -0.10924E+00   -0.30359E-01 13340   0.986E-01    0.478E+00
RMM:   3    -0.698757626043E+03    0.87931E-01   -0.63036E-02 14968   0.399E-01    0.961E-01
RMM:   4    -0.698767153708E+03   -0.95277E-02   -0.11387E-02 15195   0.161E-01    0.692E-01
RMM:   5    -0.698766579081E+03    0.57463E-03   -0.28455E-03 14492   0.748E-02    0.443E-01
RMM:   6    -0.698765622496E+03    0.95659E-03   -0.68291E-04 12965   0.355E-02    0.193E-01
RMM:   7    -0.698765161425E+03    0.46107E-03   -0.10743E-03 12338   0.365E-02    0.845E-02
RMM:   8    -0.698765175799E+03   -0.14374E-04   -0.35451E-04 11631   0.225E-02    0.632E-02
RMM:   9    -0.698765154033E+03    0.21767E-04   -0.49666E-05  9981   0.125E-02    0.217E-02
RMM:  10    -0.698765155397E+03   -0.13644E-05   -0.25284E-05  7612   0.719E-03
   7 F= -.69876516E+03 E0= -.69874246E+03  d E =-.114941E+00
       N       E                     dE             d eps       ncg     rms          rms(c)
DAV:   1    -0.698625887572E+03    0.13927E+00   -0.56504E+01 10196   0.978E+00    0.165E+00
RMM:   2    -0.698993817082E+03   -0.36793E+00   -0.19318E+00 13130   0.256E+00    0.545E+00
RMM:   3    -0.698839633631E+03    0.15418E+00   -0.43569E-01 15086   0.101E+00    0.182E+00
RMM:   4    -0.698846007814E+03   -0.63742E-02   -0.65100E-02 15297   0.369E-01    0.150E+00
RMM:   5    -0.698834255782E+03    0.11752E-01   -0.14848E-02 15049   0.165E-01    0.755E-01
RMM:   6    -0.698832040822E+03    0.22150E-02   -0.35435E-03 14554   0.781E-02    0.461E-01
RMM:   7    -0.698829552389E+03    0.24884E-02   -0.55594E-03 12581   0.814E-02    0.375E-01
RMM:   8    -0.698828944873E+03    0.60752E-03   -0.23208E-03 13350   0.551E-02    0.199E-01
RMM:   9    -0.698828775614E+03    0.16926E-03   -0.49200E-04 12878   0.305E-02    0.139E-01
RMM:  10    -0.698828697301E+03    0.78312E-04   -0.16232E-04 10612   0.166E-02    0.296E-02
RMM:  11    -0.698828704001E+03   -0.66997E-05   -0.45078E-05  9543   0.103E-02
   8 F= -.69882870E+03 E0= -.69880549E+03  d E =-.635486E-01
       N       E                     dE             d eps       ncg     rms          rms(c)
DAV:   1    -0.698826723119E+03    0.19742E-02   -0.84003E-01 11264   0.119E+00    0.211E-01
RMM:   2    -0.698833733363E+03   -0.70102E-02   -0.28268E-02 13124   0.306E-01    0.103E+00
RMM:   3    -0.698829082098E+03    0.46513E-02   -0.61351E-03 15054   0.122E-01    0.130E-01
RMM:   4    -0.698829663240E+03   -0.58114E-03   -0.70537E-04 13886   0.439E-02    0.735E-02
RMM:   5    -0.698829690233E+03   -0.26993E-04   -0.15725E-04 10974   0.193E-02    0.104E-01
RMM:   6    -0.698829608919E+03    0.81314E-04   -0.10793E-04 10161   0.143E-02    0.266E-02
RMM:   7    -0.698829611241E+03   -0.23223E-05   -0.39041E-05  9063   0.920E-03
   9 F= -.69882961E+03 E0= -.69880635E+03  d E =-.644558E-01
       N       E                     dE             d eps       ncg     rms          rms(c)
DAV:   1    -0.698750125862E+03    0.79483E-01   -0.32260E+01 10280   0.755E+00    0.101E+00
RMM:   2    -0.698882094530E+03   -0.13197E+00   -0.10125E+00 13018   0.195E+00    0.215E+00
RMM:   3    -0.698867260212E+03    0.14834E-01   -0.24666E-01 15047   0.775E-01    0.603E-01
RMM:   4    -0.698870264303E+03   -0.30041E-02   -0.30598E-02 15365   0.266E-01    0.616E-01
RMM:   5    -0.698869160585E+03    0.11037E-02   -0.57443E-03 15358   0.104E-01    0.588E-01
RMM:   6    -0.698868197236E+03    0.96335E-03   -0.18159E-03 14679   0.546E-02    0.403E-01
RMM:   7    -0.698866903524E+03    0.12937E-02   -0.29478E-03 12587   0.610E-02    0.318E-01
RMM:   8    -0.698866406449E+03    0.49707E-03   -0.11601E-03 12908   0.419E-02    0.659E-02
RMM:   9    -0.698866425709E+03   -0.19260E-04   -0.14704E-04 10908   0.194E-02    0.321E-02
RMM:  10    -0.698866436810E+03   -0.11101E-04   -0.71036E-05  9638   0.113E-02    0.387E-02
RMM:  11    -0.698866429365E+03    0.74452E-05   -0.20211E-05  7621   0.760E-03
  10 F= -.69886643E+03 E0= -.69884249E+03  d E =-.368181E-01
       N       E                     dE             d eps       ncg     rms          rms(c)
DAV:   1    -0.698862289384E+03    0.41474E-02   -0.15916E+00 11024   0.168E+00    0.214E-01
RMM:   2    -0.698868664739E+03   -0.63754E-02   -0.48845E-02 13005   0.424E-01    0.616E-01
RMM:   3    -0.698867813901E+03    0.85084E-03   -0.11538E-02 15028   0.168E-01    0.171E-01
RMM:   4    -0.698868025590E+03   -0.21169E-03   -0.12901E-03 14775   0.574E-02    0.133E-01
RMM:   5    -0.698867975376E+03    0.50214E-04   -0.26615E-04 12355   0.235E-02    0.950E-02
RMM:   6    -0.698867941017E+03    0.34359E-04   -0.11368E-04  9958   0.144E-02    0.740E-02
RMM:   7    -0.698867872522E+03    0.68495E-04   -0.16901E-04 10433   0.161E-02    0.263E-02
RMM:   8    -0.698867870011E+03    0.25110E-05   -0.36990E-05  8997   0.942E-03
  11 F= -.69886787E+03 E0= -.69884378E+03  d E =-.382588E-01
       N       E                     dE             d eps       ncg     rms          rms(c)
DAV:   1    -0.698786971402E+03    0.80901E-01   -0.31128E+01 10280   0.736E+00    0.935E-01
RMM:   2    -0.698895451551E+03   -0.10848E+00   -0.92361E-01 12735   0.185E+00    0.194E+00
RMM:   3    -0.698899352169E+03   -0.39006E-02   -0.23745E-01 15037   0.755E-01    0.104E+00
RMM:   4    -0.698906343453E+03   -0.69913E-02   -0.29067E-02 15230   0.259E-01    0.148E+00
RMM:   5    -0.698895727121E+03    0.10616E-01   -0.59950E-03 15050   0.113E-01    0.392E-01
RMM:   6    -0.698896138849E+03   -0.41173E-03   -0.21866E-03 13792   0.618E-02    0.311E-01
RMM:   7    -0.698896065715E+03    0.73134E-04   -0.38392E-03 12628   0.682E-02    0.454E-01
RMM:   8    -0.698894967769E+03    0.10979E-02   -0.58231E-04 13385   0.352E-02    0.979E-02
RMM:   9    -0.698895042090E+03   -0.74320E-04   -0.16601E-04 10529   0.164E-02    0.277E-02
RMM:  10    -0.698895058567E+03   -0.16478E-04   -0.46609E-05  9432   0.104E-02    0.175E-02
RMM:  11    -0.698895058862E+03   -0.29412E-06   -0.18408E-05  7530   0.731E-03
  12 F= -.69889506E+03 E0= -.69887039E+03  d E =-.271889E-01
       N       E                     dE             d eps       ncg     rms          rms(c)
DAV:   1    -0.698893497529E+03    0.15610E-02   -0.62727E-01 11256   0.105E+00    0.130E-01
RMM:   2    -0.698895672959E+03   -0.21754E-02   -0.18442E-02 12753   0.260E-01    0.323E-01
RMM:   3    -0.698895658143E+03    0.14816E-04   -0.45613E-03 15040   0.105E-01    0.127E-01
RMM:   4    -0.698895670953E+03   -0.12811E-04   -0.48110E-04 13242   0.353E-02    0.566E-02
RMM:   5    -0.698895667241E+03    0.37127E-05   -0.10519E-04 10701   0.174E-02    0.606E-02
RMM:   6    -0.698895665346E+03    0.18944E-05   -0.42010E-05  8681   0.961E-03
  13 F= -.69889567E+03 E0= -.69887091E+03  d E =-.277953E-01
       N       E                     dE             d eps       ncg     rms          rms(c)
DAV:   1    -0.698850673789E+03    0.44993E-01   -0.16989E+01 10276   0.554E+00    0.766E-01
RMM:   2    -0.698934789069E+03   -0.84115E-01   -0.53711E-01 13140   0.141E+00    0.315E+00
RMM:   3    -0.698908386776E+03    0.26402E-01   -0.12113E-01 15013   0.557E-01    0.798E-01
RMM:   4    -0.698914628215E+03   -0.62414E-02   -0.16984E-02 15290   0.208E-01    0.806E-01
RMM:   5    -0.698912169939E+03    0.24583E-02   -0.35133E-03 15289   0.829E-02    0.588E-01
RMM:   6    -0.698910990114E+03    0.11798E-02   -0.11458E-03 14105   0.456E-02    0.250E-01
RMM:   7    -0.698910328457E+03    0.66166E-03   -0.23313E-03 12877   0.553E-02    0.129E-01
RMM:   8    -0.698910306926E+03    0.21531E-04   -0.34541E-04 12801   0.265E-02    0.482E-02
RMM:   9    -0.698910303563E+03    0.33630E-05   -0.57915E-05 10306   0.125E-02
  14 F= -.69891030E+03 E0= -.69888538E+03  d E =-.146382E-01
       N       E                     dE             d eps       ncg     rms          rms(c)
DAV:   1    -0.698909505602E+03    0.80132E-03   -0.28647E-01 11456   0.721E-01    0.105E-01
RMM:   2    -0.698911075424E+03   -0.15698E-02   -0.91695E-03 13165   0.182E-01    0.435E-01
RMM:   3    -0.698910444786E+03    0.63064E-03   -0.19934E-03 14912   0.717E-02    0.102E-01
RMM:   4    -0.698910568707E+03   -0.12392E-03   -0.27042E-04 12703   0.274E-02    0.876E-02
RMM:   5    -0.698910533237E+03    0.35470E-04   -0.58516E-05  9581   0.139E-02    0.533E-02
RMM:   6    -0.698910525896E+03    0.73403E-05   -0.21550E-05  7559   0.744E-03
  15 F= -.69891053E+03 E0= -.69888568E+03  d E =-.148606E-01
       N       E                     dE             d eps       ncg     rms          rms(c)
DAV:   1    -0.698883284390E+03    0.27249E-01   -0.10636E+01 10376   0.441E+00    0.635E-01
RMM:   2    -0.698939076418E+03   -0.55792E-01   -0.33109E-01 13001   0.112E+00    0.236E+00
RMM:   3    -0.698919924576E+03    0.19152E-01   -0.80563E-02 14987   0.451E-01    0.670E-01
RMM:   4    -0.698923656737E+03   -0.37322E-02   -0.11073E-02 15268   0.167E-01    0.781E-01
RMM:   5    -0.698921288808E+03    0.23679E-02   -0.21995E-03 15104   0.677E-02    0.408E-01
RMM:   6    -0.698920798311E+03    0.49050E-03   -0.73089E-04 13194   0.378E-02    0.172E-01
RMM:   7    -0.698920465954E+03    0.33236E-03   -0.10136E-03 12626   0.381E-02    0.881E-02
RMM:   8    -0.698920423846E+03    0.42108E-04   -0.32297E-04 12001   0.232E-02    0.503E-02
RMM:   9    -0.698920416460E+03    0.73862E-05   -0.42970E-05  9667   0.116E-02
  16 F= -.69892042E+03 E0= -.69889531E+03  d E =-.989056E-02
       N       E                     dE             d eps       ncg     rms          rms(c)
DAV:   1    -0.698915253081E+03    0.51708E-02   -0.17626E+00 10720   0.180E+00    0.264E-01
RMM:   2    -0.698925146630E+03   -0.98935E-02   -0.54824E-02 13015   0.451E-01    0.109E+00
RMM:   3    -0.698921080053E+03    0.40666E-02   -0.13135E-02 14971   0.183E-01    0.287E-01
RMM:   4    -0.698922033765E+03   -0.95371E-03   -0.18765E-03 14912   0.693E-02    0.364E-01
RMM:   5    -0.698921485402E+03    0.54836E-03   -0.38845E-04 12905   0.298E-02    0.149E-01
RMM:   6    -0.698921441856E+03    0.43546E-04   -0.12833E-04 10283   0.169E-02    0.697E-02
RMM:   7    -0.698921389140E+03    0.52716E-04   -0.15764E-04 10619   0.162E-02    0.343E-02
RMM:   8    -0.698921380246E+03    0.88935E-05   -0.65426E-05  9664   0.114E-02
  17 F= -.69892138E+03 E0= -.69889619E+03  d E =-.108543E-01
       N       E                     dE             d eps       ncg     rms          rms(c)
DAV:   1    -0.698889885967E+03    0.31503E-01   -0.10488E+01 10360   0.444E+00    0.635E-01
RMM:   2    -0.698957295194E+03   -0.67409E-01   -0.32998E-01 12975   0.113E+00    0.349E+00
RMM:   3    -0.698921748939E+03    0.35546E-01   -0.83649E-02 14953   0.464E-01    0.598E-01
RMM:   4    -0.698929685758E+03   -0.79368E-02   -0.11312E-02 15236   0.174E-01    0.635E-01
RMM:   5    -0.698928084443E+03    0.16013E-02   -0.21036E-03 15154   0.670E-02    0.394E-01
RMM:   6    -0.698927659796E+03    0.42465E-03   -0.70229E-04 13242   0.354E-02    0.198E-01
RMM:   7    -0.698927271873E+03    0.38792E-03   -0.10114E-03 12684   0.380E-02    0.838E-02
RMM:   8    -0.698927228286E+03    0.43587E-04   -0.35403E-04 12156   0.243E-02    0.590E-02
RMM:   9    -0.698927216129E+03    0.12157E-04   -0.47654E-05  9837   0.123E-02    0.164E-02
RMM:  10    -0.698927217820E+03   -0.16906E-05   -0.17387E-05  6743   0.659E-03
  18 F= -.69892722E+03 E0= -.69890205E+03  d E =-.583757E-02
       N       E                     dE             d eps       ncg     rms          rms(c)
DAV:   1    -0.698927046226E+03    0.16990E-03   -0.56925E-02 10832   0.327E-01    0.457E-02
RMM:   2    -0.698927368102E+03   -0.32188E-03   -0.17624E-03 12936   0.822E-02    0.203E-01
RMM:   3    -0.698927227002E+03    0.14110E-03   -0.42477E-04 13611   0.334E-02    0.450E-02
RMM:   4    -0.698927253794E+03   -0.26792E-04   -0.58285E-05  9114   0.147E-02    0.355E-02
RMM:   5    -0.698927248112E+03    0.56818E-05   -0.14630E-05  6313   0.769E-03
  19 F= -.69892725E+03 E0= -.69890213E+03  d E =-.586787E-02
       N       E                     dE             d eps       ncg     rms          rms(c)
DAV:   1    -0.698912772511E+03    0.14481E-01   -0.48701E+00 10616   0.318E+00    0.356E-01
RMM:   2    -0.698929998028E+03   -0.17226E-01   -0.15086E-01 12875   0.818E-01    0.905E-01
RMM:   3    -0.698931717322E+03   -0.17193E-02   -0.42081E-02 15042   0.336E-01    0.514E-01
RMM:   4    -0.698931900321E+03   -0.18300E-03   -0.51254E-03 15304   0.117E-01    0.354E-01
RMM:   5    -0.698931418112E+03    0.48221E-03   -0.92141E-04 15081   0.442E-02    0.182E-01
RMM:   6    -0.698931351692E+03    0.66419E-04   -0.29592E-04 12338   0.230E-02    0.121E-01
RMM:   7    -0.698931140794E+03    0.21090E-03   -0.77311E-04 13141   0.335E-02    0.604E-02
RMM:   8    -0.698931133396E+03    0.73982E-05   -0.92812E-05 10946   0.148E-02
  20 F= -.69893113E+03 E0= -.69890594E+03  d E =-.388528E-02
       N       E                     dE             d eps       ncg     rms          rms(c)
DAV:   1    -0.698930197580E+03    0.94321E-03   -0.26309E-01 11528   0.739E-01    0.878E-02
RMM:   2    -0.698931143626E+03   -0.94605E-03   -0.83444E-03 12927   0.190E-01    0.205E-01
RMM:   3    -0.698931248745E+03   -0.10512E-03   -0.22518E-03 14930   0.777E-02    0.135E-01
RMM:   4    -0.698931252440E+03   -0.36950E-05   -0.28568E-04 12868   0.284E-02    0.910E-02
RMM:   5    -0.698931221126E+03    0.31314E-04   -0.63947E-05  9949   0.155E-02    0.397E-02
RMM:   6    -0.698931219735E+03    0.13917E-05   -0.21709E-05  7366   0.740E-03
  21 F= -.69893122E+03 E0= -.69890604E+03  d E =-.397162E-02
       N       E                     dE             d eps       ncg     rms          rms(c)
DAV:   1    -0.698915376862E+03    0.15844E-01   -0.51546E+00 10688   0.327E+00    0.396E-01
RMM:   2    -0.698937570075E+03   -0.22193E-01   -0.15341E-01 12594   0.813E-01    0.149E+00
RMM:   3    -0.698933477833E+03    0.40922E-02   -0.43603E-02 15017   0.343E-01    0.464E-01
RMM:   4    -0.698936115677E+03   -0.26378E-02   -0.58246E-03 15324   0.123E-01    0.640E-01
RMM:   5    -0.698933952366E+03    0.21633E-02   -0.10655E-03 14778   0.491E-02    0.136E-01
RMM:   6    -0.698934095759E+03   -0.14339E-03   -0.44384E-04 12694   0.276E-02    0.123E-01
RMM:   7    -0.698933982730E+03    0.11303E-03   -0.49667E-04 11774   0.273E-02    0.789E-02
RMM:   8    -0.698933953390E+03    0.29340E-04   -0.99105E-05 10660   0.152E-02    0.358E-02
RMM:   9    -0.698933945907E+03    0.74833E-05   -0.19055E-05  7449   0.749E-03
  22 F= -.69893395E+03 E0= -.69890859E+03  d E =-.272617E-02
       N       E                     dE             d eps       ncg     rms          rms(c)
DAV:   1    -0.698933941406E+03    0.11984E-04   -0.19872E-03 11296   0.655E-02    0.102E-02
RMM:   2    -0.698933953565E+03   -0.12158E-04   -0.81851E-05  9265   0.190E-02    0.352E-02
RMM:   3    -0.698933949883E+03    0.36822E-05   -0.20163E-05  6589   0.907E-03
  23 F= -.69893395E+03 E0= -.69890857E+03  d E =-.273015E-02
       N       E                     dE             d eps       ncg     rms          rms(c)
DAV:   1    -0.698928129046E+03    0.58245E-02   -0.19421E+00 10608   0.208E+00    0.226E-01
RMM:   2    -0.698935003151E+03   -0.68741E-02   -0.63616E-02 12998   0.542E-01    0.458E-01
RMM:   3    -0.698936346184E+03   -0.13430E-02   -0.16948E-02 15043   0.220E-01    0.418E-01
RMM:   4    -0.698936068508E+03    0.27768E-03   -0.21988E-03 15144   0.784E-02    0.175E-01
RMM:   5    -0.698935906337E+03    0.16217E-03   -0.38246E-04 14135   0.311E-02    0.720E-02
RMM:   6    -0.698935962114E+03   -0.55777E-04   -0.14580E-04 10425   0.162E-02    0.158E-01
RMM:   7    -0.698935821462E+03    0.14065E-03   -0.18458E-04 10872   0.183E-02    0.313E-02
RMM:   8    -0.698935837225E+03   -0.15764E-04   -0.51245E-05  9855   0.112E-02    0.176E-02
RMM:   9    -0.698935834182E+03    0.30435E-05   -0.94627E-06  6092   0.601E-03
  24 F= -.69893583E+03 E0= -.69891036E+03  d E =-.188430E-02
       N       E                     dE             d eps       ncg     rms          rms(c)
DAV:   1    -0.698935796901E+03    0.40325E-04   -0.15628E-02 11464   0.187E-01    0.218E-02
RMM:   2    -0.698935856581E+03   -0.59680E-04   -0.54128E-04 12944   0.478E-02    0.450E-02
RMM:   3    -0.698935864103E+03   -0.75222E-05   -0.13056E-04 12483   0.195E-02    0.399E-02
RMM:   4    -0.698935862729E+03    0.13734E-05   -0.19872E-05  6670   0.942E-03
  25 F= -.69893586E+03 E0= -.69891035E+03  d E =-.191285E-02
       N       E                     dE             d eps       ncg     rms          rms(c)
DAV:   1    -0.698932180391E+03    0.36837E-02   -0.12866E+00 10716   0.167E+00    0.205E-01
RMM:   2    -0.698937471830E+03   -0.52914E-02   -0.41553E-02 12859   0.427E-01    0.549E-01
RMM:   3    -0.698937198539E+03    0.27329E-03   -0.10701E-02 15046   0.175E-01    0.294E-01
RMM:   4    -0.698937466352E+03   -0.26781E-03   -0.15030E-03 15021   0.632E-02    0.315E-01
RMM:   5    -0.698937158613E+03    0.30774E-03   -0.33543E-04 12842   0.288E-02    0.168E-01
RMM:   6    -0.698937060211E+03    0.98401E-04   -0.10230E-04  9971   0.158E-02    0.511E-02
RMM:   7    -0.698937022566E+03    0.37645E-04   -0.16261E-04 10932   0.169E-02    0.307E-02
RMM:   8    -0.698937017803E+03    0.47638E-05   -0.57899E-05 10009   0.114E-02
  26 F= -.69893702E+03 E0= -.69891148E+03  d E =-.115507E-02
       N       E                     dE             d eps       ncg     rms          rms(c)
DAV:   1    -0.698936863009E+03    0.15956E-03   -0.46523E-02 11552   0.319E-01    0.435E-02
RMM:   2    -0.698937081576E+03   -0.21857E-03   -0.16221E-03 12922   0.848E-02    0.126E-01
RMM:   3    -0.698937051302E+03    0.30274E-04   -0.40422E-04 13769   0.347E-02    0.531E-02
RMM:   4    -0.698937071178E+03   -0.19877E-04   -0.69471E-05 10547   0.160E-02    0.670E-02
RMM:   5    -0.698937055994E+03    0.15184E-04   -0.20682E-05  6827   0.898E-03    0.342E-02
RMM:   6    -0.698937052659E+03    0.33354E-05   -0.62365E-06  5949   0.503E-03
  27 F= -.69893705E+03 E0= -.69891152E+03  d E =-.118993E-02
       N       E                     dE             d eps       ncg     rms          rms(c)
DAV:   1    -0.698933242651E+03    0.38133E-02   -0.12374E+00 10888   0.163E+00    0.187E-01
RMM:   2    -0.698937843122E+03   -0.46005E-02   -0.38270E-02 12635   0.410E-01    0.541E-01
RMM:   3    -0.698937883563E+03   -0.40441E-04   -0.10264E-02 14982   0.170E-01    0.246E-01
RMM:   4    -0.698938092702E+03   -0.20914E-03   -0.13343E-03 15008   0.609E-02    0.201E-01
RMM:   5    -0.698937910939E+03    0.18176E-03   -0.24842E-04 12743   0.245E-02    0.910E-02
RMM:   6    -0.698937896552E+03    0.14387E-04   -0.80909E-05  9528   0.132E-02    0.548E-02
RMM:   7    -0.698937852733E+03    0.43820E-04   -0.21909E-04 11278   0.189E-02    0.208E-02
RMM:   8    -0.698937851853E+03    0.87921E-06   -0.25796E-05  8302   0.965E-03
  28 F= -.69893785E+03 E0= -.69891231E+03  d E =-.799195E-03
       N       E                     dE             d eps       ncg     rms          rms(c)
DAV:   1    -0.698937721193E+03    0.13154E-03   -0.35536E-02 11880   0.277E-01    0.353E-02
RMM:   2    -0.698937859762E+03   -0.13857E-03   -0.11689E-03 12649   0.713E-02    0.891E-02
RMM:   3    -0.698937863942E+03   -0.41800E-05   -0.30210E-04 13099   0.296E-02    0.505E-02
RMM:   4    -0.698937867543E+03   -0.36014E-05   -0.48503E-05  8935   0.145E-02
  29 F= -.69893787E+03 E0= -.69891241E+03  d E =-.814885E-03
       N       E                     dE             d eps       ncg     rms          rms(c)
DAV:   1    -0.698937823792E+03    0.40149E-04   -0.10185E-02 11240   0.148E-01    0.243E-02
RMM:   2    -0.698937897496E+03   -0.73703E-04   -0.34649E-04 12524   0.370E-02    0.982E-02
RMM:   3    -0.698937857031E+03    0.40465E-04   -0.84473E-05 10947   0.160E-02    0.172E-02
RMM:   4    -0.698937865912E+03   -0.88811E-05   -0.16367E-05  6484   0.908E-03
  30 F= -.69893787E+03 E0= -.69891232E+03  d E =-.813253E-03
       N       E                     dE             d eps       ncg     rms          rms(c)
DAV:   1    -0.698937852091E+03    0.49391E-05   -0.27211E-03 11028   0.767E-02    0.191E-02
RMM:   2    -0.698937930866E+03   -0.78775E-04   -0.12115E-04 10504   0.207E-02    0.136E-01
RMM:   3    -0.698937851078E+03    0.79788E-04   -0.31894E-05  7506   0.105E-02    0.214E-02
RMM:   4    -0.698937862185E+03   -0.11107E-04   -0.91833E-06  5935   0.708E-03    0.958E-03
RMM:   5    -0.698937863128E+03   -0.94338E-06   -0.32164E-06  5838   0.443E-03
  31 F= -.69893786E+03 E0= -.69891228E+03  d E =-.810469E-03
       N       E                     dE             d eps       ncg     rms          rms(c)
DAV:   1    -0.698934717277E+03    0.31449E-02   -0.94824E-01 10914   0.145E+00    0.152E-01
RMM:   2    -0.698937668783E+03   -0.29515E-02   -0.29750E-02 12727   0.367E-01    0.175E-01
RMM:   3    -0.698938777646E+03   -0.11089E-02   -0.78942E-03 15016   0.151E-01    0.355E-01
RMM:   4    -0.698938434790E+03    0.34286E-03   -0.10392E-03 14935   0.538E-02    0.190E-01
RMM:   5    -0.698938365343E+03    0.69447E-04   -0.19787E-04 12417   0.231E-02    0.576E-02
RMM:   6    -0.698938369163E+03   -0.38192E-05   -0.57830E-05  9048   0.119E-02
  32 F= -.69893837E+03 E0= -.69891288E+03  d E =-.506034E-03
       N       E                     dE             d eps       ncg     rms          rms(c)
DAV:   1    -0.698938297173E+03    0.68170E-04   -0.65901E-03 10926   0.127E-01    0.208E-02
RMM:   2    -0.698938363148E+03   -0.65975E-04   -0.35181E-04 12712   0.379E-02    0.856E-02
RMM:   3    -0.698938337980E+03    0.25168E-04   -0.80325E-05 10912   0.161E-02    0.396E-02
RMM:   4    -0.698938337101E+03    0.87921E-06   -0.17308E-05  6275   0.913E-03
  33 F= -.69893834E+03 E0= -.69891275E+03  d E =-.473973E-03
       N       E                     dE             d eps       ncg     rms          rms(c)
DAV:   1    -0.698936827134E+03    0.15108E-02   -0.47919E-01 10952   0.105E+00    0.153E-01
RMM:   2    -0.698940849593E+03   -0.40225E-02   -0.16291E-02 13078   0.273E-01    0.824E-01
RMM:   3    -0.698938210870E+03    0.26387E-02   -0.41700E-03 14833   0.114E-01    0.109E-01
RMM:   4    -0.698938802984E+03   -0.59211E-03   -0.63409E-04 14659   0.439E-02    0.193E-01
RMM:   5    -0.698938682529E+03    0.12046E-03   -0.12848E-04 11487   0.199E-02    0.996E-02
RMM:   6    -0.698938655694E+03    0.26835E-04   -0.46210E-05  8861   0.113E-02    0.327E-02
RMM:   7    -0.698938642956E+03    0.12738E-04   -0.53465E-05  9130   0.103E-02    0.131E-02
RMM:   8    -0.698938643088E+03   -0.13138E-06   -0.16310E-05  6458   0.726E-03
  34 F= -.69893864E+03 E0= -.69891308E+03  d E =-.305987E-03
       N       E                     dE             d eps       ncg     rms          rms(c)
DAV:   1    -0.698938615025E+03    0.27931E-04   -0.67864E-03 12006   0.125E-01    0.182E-02
RMM:   2    -0.698938663057E+03   -0.48032E-04   -0.24865E-04 12960   0.332E-02    0.780E-02
RMM:   3    -0.698938638942E+03    0.24115E-04   -0.59546E-05 10026   0.139E-02    0.129E-02
RMM:   4    -0.698938644230E+03   -0.52885E-05   -0.11969E-05  5960   0.830E-03
  35 F= -.69893864E+03 E0= -.69891309E+03  d E =-.307129E-03
       N       E                     dE             d eps       ncg     rms          rms(c)
DAV:   1    -0.698938633556E+03    0.53855E-05   -0.24017E-03 11008   0.742E-02    0.144E-02
RMM:   2    -0.698938677825E+03   -0.44269E-04   -0.10223E-04 10376   0.200E-02    0.967E-02
RMM:   3    -0.698938636595E+03    0.41230E-04   -0.22551E-05  6534   0.973E-03    0.152E-02
RMM:   4    -0.698938643757E+03   -0.71619E-05   -0.69314E-06  5859   0.652E-03
  36 F= -.69893864E+03 E0= -.69891304E+03  d E =-.306656E-03
       N       E                     dE             d eps       ncg     rms          rms(c)
DAV:   1    -0.698938641266E+03   -0.46710E-05   -0.58679E-04 10610   0.368E-02    0.960E-03
RMM:   2    -0.698938654318E+03   -0.13052E-04   -0.26285E-05  6834   0.107E-02    0.483E-02
RMM:   3    -0.698938642799E+03    0.11519E-04   -0.71552E-06  5837   0.660E-03    0.138E-02
RMM:   4    -0.698938643499E+03   -0.70057E-06   -0.27288E-06  5724   0.399E-03
  37 F= -.69893864E+03 E0= -.69891308E+03  d E =-.306398E-03
       N       E                     dE             d eps       ncg     rms          rms(c)
DAV:   1    -0.698937323473E+03    0.13193E-02   -0.41024E-01 10868   0.963E-01    0.143E-01
RMM:   2    -0.698941572661E+03   -0.42492E-02   -0.14033E-02 13031   0.250E-01    0.897E-01
RMM:   3    -0.698938287351E+03    0.32853E-02   -0.36208E-03 14819   0.106E-01    0.888E-02
RMM:   4    -0.698938916302E+03   -0.62895E-03   -0.49233E-04 14316   0.403E-02    0.106E-01
RMM:   5    -0.698938886872E+03    0.29430E-04   -0.92566E-05 10887   0.174E-02    0.415E-02
RMM:   6    -0.698938889649E+03   -0.27771E-05   -0.41896E-05  8869   0.102E-02
  38 F= -.69893889E+03 E0= -.69891337E+03  d E =-.246149E-03
       N       E                     dE             d eps       ncg     rms          rms(c)
DAV:   1    -0.698938867850E+03    0.19022E-04   -0.18764E-04  8622   0.341E-02    0.110E-02
RMM:   2    -0.698938885140E+03   -0.17289E-04   -0.47435E-05  9181   0.132E-02    0.538E-02
RMM:   3    -0.698938871035E+03    0.14104E-04   -0.11483E-05  5920   0.704E-03    0.117E-02
RMM:   4    -0.698938872814E+03   -0.17789E-05   -0.36177E-06  5842   0.422E-03
  39 F= -.69893887E+03 E0= -.69891332E+03  d E =-.229315E-03
       N       E                     dE             d eps       ncg     rms          rms(c)
DAV:   1    -0.698938873031E+03   -0.19961E-05   -0.84473E-05 10666   0.142E-02    0.747E-03
RMM:   2    -0.698938883193E+03   -0.10162E-04   -0.81998E-06  5928   0.523E-03    0.509E-02
RMM:   3    -0.698938871988E+03    0.11205E-04   -0.29712E-06  5753   0.382E-03    0.860E-03
RMM:   4    -0.698938873383E+03   -0.13947E-05   -0.10315E-06  5603   0.221E-03
  40 F= -.69893887E+03 E0= -.69891334E+03  d E =-.229884E-03
       N       E                     dE             d eps       ncg     rms          rms(c)
DAV:   1    -0.698938005379E+03    0.86661E-03   -0.27065E-01 10828   0.772E-01    0.853E-02
RMM:   2    -0.698939028400E+03   -0.10230E-02   -0.87847E-03 12889   0.197E-01    0.216E-01
RMM:   3    -0.698939053044E+03   -0.24644E-04   -0.21551E-03 14998   0.795E-02    0.104E-01
RMM:   4    -0.698939131817E+03   -0.78773E-04   -0.28498E-04 13105   0.287E-02    0.149E-01
RMM:   5    -0.698939038611E+03    0.93206E-04   -0.62105E-05 10118   0.159E-02    0.284E-02
RMM:   6    -0.698939046482E+03   -0.78709E-05   -0.39597E-05  9143   0.933E-03
  41 F= -.69893905E+03 E0= -.69891350E+03  d E =-.173099E-03
       N       E                     dE             d eps       ncg     rms          rms(c)
DAV:   1    -0.698939039073E+03   -0.46217E-06   -0.17091E-05  6828   0.195E-02    0.991E-03
RMM:   2    -0.698939046238E+03   -0.71644E-05   -0.12631E-05  6149   0.648E-03
  42 F= -.69893905E+03 E0= -.69891347E+03  d E =-.172855E-03
       N       E                     dE             d eps       ncg     rms          rms(c)
DAV:   1    -0.698938277815E+03    0.76126E-03   -0.24398E-01 10996   0.716E-01    0.130E-01
RMM:   2    -0.698942169572E+03   -0.38918E-02   -0.85422E-03 12824   0.180E-01    0.992E-01
RMM:   3    -0.698938515136E+03    0.36544E-02   -0.20414E-03 14532   0.794E-02    0.100E-01
RMM:   4    -0.698939215362E+03   -0.70023E-03   -0.37690E-04 12855   0.332E-02    0.141E-01
RMM:   5    -0.698939140101E+03    0.75262E-04   -0.78616E-05 10175   0.167E-02    0.481E-02
RMM:   6    -0.698939139804E+03    0.29646E-06   -0.25707E-05  8016   0.815E-03
  43 F= -.69893914E+03 E0= -.69891362E+03  d E =-.935664E-04
       N       E                     dE             d eps       ncg     rms          rms(c)
DAV:   1    -0.698939124642E+03    0.15458E-04   -0.13038E-03 11040   0.558E-02    0.172E-02
RMM:   2    -0.698939175142E+03   -0.50500E-04   -0.99726E-05 10869   0.205E-02    0.109E-01
RMM:   3    -0.698939125583E+03    0.49559E-04   -0.22925E-05  6552   0.999E-03    0.154E-02
RMM:   4    -0.698939133236E+03   -0.76531E-05   -0.70656E-06  5878   0.641E-03
  44 F= -.69893913E+03 E0= -.69891354E+03  d E =-.869981E-04
       N       E                     dE             d eps       ncg     rms          rms(c)
DAV:   1    -0.698939128594E+03   -0.30114E-05   -0.68021E-04 10514   0.378E-02    0.105E-02
RMM:   2    -0.698939149454E+03   -0.20860E-04   -0.28827E-05  6732   0.108E-02    0.707E-02
RMM:   3    -0.698939128349E+03    0.21104E-04   -0.76547E-06  5935   0.675E-03    0.105E-02
RMM:   4    -0.698939131663E+03   -0.33136E-05   -0.30901E-06  5819   0.411E-03
  45 F= -.69893913E+03 E0= -.69891361E+03  d E =-.854253E-04
       N       E                     dE             d eps       ncg     rms          rms(c)
DAV:   1    -0.698939131151E+03   -0.28017E-05   -0.21568E-04 10104   0.215E-02    0.567E-03
RMM:   2    -0.698939135626E+03   -0.44743E-05   -0.10426E-05  5620   0.686E-03
  46 F= -.69893914E+03 E0= -.69891363E+03  d E =-.893878E-04
       N       E                     dE             d eps       ncg     rms          rms(c)
DAV:   1    -0.698939131238E+03   -0.86467E-07   -0.48230E-05  9122   0.119E-02    0.874E-03
RMM:   2    -0.698939147541E+03   -0.16304E-04   -0.11125E-05  5848   0.552E-03    0.635E-02
RMM:   3    -0.698939130095E+03    0.17447E-04   -0.51740E-06  5378   0.396E-03    0.136E-02
RMM:   4    -0.698939131702E+03   -0.16077E-05   -0.18046E-06  4940   0.299E-03
  47 F= -.69893913E+03 E0= -.69891358E+03  d E =-.854645E-04
       N       E                     dE             d eps       ncg     rms          rms(c)
DAV:   1    -0.698939131854E+03   -0.17597E-05   -0.75069E-06  5708   0.447E-03    0.322E-03
RMM:   2    -0.698939134132E+03   -0.22782E-05   -0.15334E-06  5079   0.265E-03
  48 F= -.69893913E+03 E0= -.69891352E+03  d E =-.878948E-04
       N       E                     dE             d eps       ncg     rms          rms(c)
DAV:   1    -0.698938655980E+03    0.47587E-03   -0.13572E-01 10896   0.561E-01    0.665E-02
RMM:   2    -0.698939524764E+03   -0.86878E-03   -0.47845E-03 13273   0.152E-01    0.332E-01
RMM:   3    -0.698939161130E+03    0.36363E-03   -0.12125E-03 14634   0.611E-02    0.692E-02
RMM:   4    -0.698939266033E+03   -0.10490E-03   -0.17781E-04 12723   0.238E-02    0.108E-01
RMM:   5    -0.698939216122E+03    0.49911E-04   -0.40343E-05  9125   0.135E-02    0.322E-02
RMM:   6    -0.698939217005E+03   -0.88281E-06   -0.13440E-05  6312   0.645E-03
  49 F= -.69893922E+03 E0= -.69891363E+03  d E =-.828725E-04
       N       E                     dE             d eps       ncg     rms          rms(c)
DAV:   1    -0.698939184688E+03    0.31434E-04   -0.47490E-03 11080   0.111E-01    0.146E-02
RMM:   2    -0.698939228478E+03   -0.43790E-04   -0.26900E-04 13117   0.397E-02    0.700E-02
RMM:   3    -0.698939211868E+03    0.16610E-04   -0.58948E-05  9923   0.161E-02    0.187E-02
RMM:   4    -0.698939215557E+03   -0.36889E-05   -0.13321E-05  5915   0.827E-03
  50 F= -.69893922E+03 E0= -.69891369E+03  d E =-.814241E-04
       N       E                     dE             d eps       ncg     rms          rms(c)
DAV:   1    -0.698939206774E+03    0.50933E-05   -0.13536E-03 11376   0.565E-02    0.116E-02
RMM:   2    -0.698939225342E+03   -0.18568E-04   -0.68768E-05 10085   0.168E-02    0.538E-02
RMM:   3    -0.698939211175E+03    0.14167E-04   -0.13440E-05  5962   0.819E-03    0.954E-03
RMM:   4    -0.698939213454E+03   -0.22789E-05   -0.51147E-06  5781   0.551E-03
  51 F= -.69893921E+03 E0= -.69891364E+03  d E =-.793218E-04
       N       E                     dE             d eps       ncg     rms          rms(c)
DAV:   1    -0.698939213050E+03   -0.18751E-05   -0.38462E-04 10484   0.307E-02    0.159E-02
RMM:   2    -0.698939283373E+03   -0.70323E-04   -0.38550E-05  7725   0.114E-02    0.139E-01
RMM:   3    -0.698939202162E+03    0.81211E-04   -0.14453E-05  6282   0.785E-03    0.152E-02
RMM:   4    -0.698939213881E+03   -0.11719E-04   -0.45472E-06  5543   0.436E-03    0.685E-03
RMM:   5    -0.698939214250E+03   -0.36877E-06   -0.17137E-06  5466   0.313E-03
  52 F= -.69893921E+03 E0= -.69891364E+03  d E =-.801171E-04
       N       E                     dE             d eps       ncg     rms          rms(c)
DAV:   1    -0.698938954538E+03    0.25934E-03   -0.88524E-02 10944   0.455E-01    0.983E-02
RMM:   2    -0.698941421430E+03   -0.24669E-02   -0.36093E-03 13256   0.125E-01    0.741E-01
RMM:   3    -0.698938929049E+03    0.24924E-02   -0.10002E-03 14221   0.568E-02    0.614E-02
RMM:   4    -0.698939290189E+03   -0.36114E-03   -0.17242E-04 12450   0.235E-02    0.380E-02
RMM:   5    -0.698939294611E+03   -0.44226E-05   -0.32609E-05  8167   0.120E-02
  53 F= -.69893929E+03 E0= -.69891383E+03  d E =-.803616E-04
       N       E                     dE             d eps       ncg     rms          rms(c)
DAV:   1    -0.698939284519E+03    0.56699E-05   -0.11433E-03 10796   0.524E-02    0.198E-02
RMM:   2    -0.698939339265E+03   -0.54747E-04   -0.72881E-05  9856   0.158E-02    0.111E-01
RMM:   3    -0.698939279896E+03    0.59369E-04   -0.18528E-05  6535   0.868E-03    0.187E-02
RMM:   4    -0.698939289626E+03   -0.97293E-05   -0.72931E-06  5953   0.583E-03
  54 F= -.69893929E+03 E0= -.69891373E+03  d E =-.753759E-04
       N       E                     dE             d eps       ncg     rms          rms(c)
DAV:   1    -0.698939287084E+03   -0.71875E-05   -0.69619E-04 11244   0.407E-02    0.128E-02
RMM:   2    -0.698939306679E+03   -0.19595E-04   -0.36566E-05  7940   0.123E-02    0.582E-02
RMM:   3    -0.698939289249E+03    0.17429E-04   -0.98231E-06  5935   0.711E-03    0.208E-02
RMM:   4    -0.698939289149E+03    0.99906E-07   -0.37790E-06  5622   0.458E-03
  55 F= -.69893929E+03 E0= -.69891374E+03  d E =-.748998E-04
       N       E                     dE             d eps       ncg     rms          rms(c)
DAV:   1    -0.698939170356E+03    0.11889E-03   -0.42705E-02 10520   0.307E-01    0.586E-02
RMM:   2    -0.698939931691E+03   -0.76134E-03   -0.17270E-03 13329   0.829E-02    0.413E-01
RMM:   3    -0.698939243829E+03    0.68786E-03   -0.40513E-04 13667   0.352E-02    0.622E-02
RMM:   4    -0.698939351433E+03   -0.10760E-03   -0.77784E-05  9912   0.165E-02    0.603E-02
RMM:   5    -0.698939336867E+03    0.14566E-04   -0.17994E-05  6582   0.884E-03    0.135E-02
RMM:   6    -0.698939336332E+03    0.53539E-06   -0.10123E-05  5919   0.582E-03
  56 F= -.69893934E+03 E0= -.69891379E+03  d E =-.471824E-04
       N       E                     dE             d eps       ncg     rms          rms(c)
DAV:   1    -0.698939335052E+03    0.18154E-05   -0.12125E-04 11248   0.189E-02    0.686E-03
RMM:   2    -0.698939339100E+03   -0.40484E-05   -0.13892E-05  6050   0.830E-03
  57 F= -.69893934E+03 E0= -.69891381E+03  d E =-.499508E-04
       N       E                     dE             d eps       ncg     rms          rms(c)
DAV:   1    -0.698939335421E+03   -0.36897E-06   -0.96576E-05  9908   0.163E-02    0.109E-02
RMM:   2    -0.698939370300E+03   -0.34880E-04   -0.19052E-05  6768   0.770E-03    0.978E-02
RMM:   3    -0.698939329422E+03    0.40879E-04   -0.83798E-06  5715   0.556E-03    0.983E-03
RMM:   4    -0.698939335875E+03   -0.64537E-05   -0.26016E-06  5277   0.333E-03
  58 F= -.69893934E+03 E0= -.69891380E+03  d E =-.467260E-04
       N       E                     dE             d eps       ncg     rms          rms(c)
DAV:   1    -0.698939218125E+03    0.11130E-03   -0.35973E-02 10878   0.286E-01    0.327E-02
RMM:   2    -0.698939382497E+03   -0.16437E-03   -0.12438E-03 13135   0.753E-02    0.108E-01
RMM:   3    -0.698939363386E+03    0.19112E-04   -0.29536E-04 13849   0.301E-02    0.469E-02
RMM:   4    -0.698939372239E+03   -0.88532E-05   -0.46852E-05  8815   0.133E-02
  59 F= -.69893937E+03 E0= -.69891394E+03  d E =-.363635E-04
       N       E                     dE             d eps       ncg     rms          rms(c)
DAV:   1    -0.698939341328E+03    0.22057E-04   -0.45484E-03 11092   0.102E-01    0.279E-02
RMM:   2    -0.698939470716E+03   -0.12939E-03   -0.21424E-04 12678   0.291E-02    0.163E-01
RMM:   3    -0.698939343101E+03    0.12761E-03   -0.57865E-05  9784   0.138E-02    0.271E-02
RMM:   4    -0.698939362719E+03   -0.19618E-04   -0.14435E-05  6085   0.816E-03    0.324E-02
RMM:   5    -0.698939360618E+03    0.21016E-05   -0.53799E-06  5895   0.534E-03
  60 F= -.69893936E+03 E0= -.69891385E+03  d E =-.247422E-04
       N       E                     dE             d eps       ncg     rms          rms(c)
DAV:   1    -0.698939356091E+03    0.66280E-05   -0.12446E-03 10724   0.536E-02    0.698E-03
RMM:   2    -0.698939363024E+03   -0.69327E-05   -0.55244E-05  8972   0.156E-02
  61 F= -.69893936E+03 E0= -.69891382E+03  d E =-.271484E-04
       N       E                     dE             d eps       ncg     rms          rms(c)
DAV:   1    -0.698939359966E+03   -0.38746E-05   -0.36281E-04 10068   0.287E-02    0.124E-02
RMM:   2    -0.698939399445E+03   -0.39479E-04   -0.24119E-05  6508   0.894E-03    0.103E-01
RMM:   3    -0.698939354252E+03    0.45193E-04   -0.87621E-06  5836   0.638E-03    0.124E-02
RMM:   4    -0.698939360733E+03   -0.64814E-05   -0.27439E-06  5506   0.349E-03
  62 F= -.69893936E+03 E0= -.69891383E+03  d E =-.248579E-04
       N       E                     dE             d eps       ncg     rms          rms(c)
DAV:   1    -0.698939361312E+03   -0.70606E-05   -0.91497E-05 10578   0.148E-02    0.663E-03
RMM:   2    -0.698939370742E+03   -0.94299E-05   -0.75546E-06  5383   0.516E-03
  63 F= -.69893937E+03 E0= -.69891397E+03  d E =-.348669E-04
       N       E                     dE             d eps       ncg     rms          rms(c)
DAV:   1    -0.698939281494E+03    0.79818E-04   -0.24712E-02 10856   0.236E-01    0.802E-02
RMM:   2    -0.698940783805E+03   -0.15023E-02   -0.14043E-03 13355   0.671E-02    0.628E-01
RMM:   3    -0.698939078944E+03    0.17049E-02   -0.37104E-04 12696   0.338E-02    0.642E-02
RMM:   4    -0.698939363499E+03   -0.28456E-03   -0.77249E-05  8861   0.165E-02    0.481E-02
RMM:   5    -0.698939363347E+03    0.15247E-06   -0.18804E-05  6755   0.889E-03
  64 F= -.69893936E+03 E0= -.69891386E+03  d E =0.739573E-05
       N       E                     dE             d eps       ncg     rms          rms(c)
DAV:   1    -0.698939349399E+03    0.14100E-04   -0.40814E-03 10692   0.961E-02    0.281E-02
RMM:   2    -0.698939511374E+03   -0.16198E-03   -0.22186E-04 12902   0.286E-02    0.190E-01
RMM:   3    -0.698939343096E+03    0.16828E-03   -0.54684E-05  9323   0.136E-02    0.318E-02
RMM:   4    -0.698939366701E+03   -0.23606E-04   -0.12513E-05  5960   0.810E-03    0.214E-02
RMM:   5    -0.698939366708E+03   -0.65775E-08   -0.49551E-06  5822   0.535E-03
  65 F= -.69893937E+03 E0= -.69891385E+03  d E =0.403430E-05
       N       E                     dE             d eps       ncg     rms          rms(c)
DAV:   1    -0.698939367111E+03   -0.40954E-06   -0.30477E-04 10752   0.264E-02    0.779E-03
RMM:   2    -0.698939379892E+03   -0.12781E-04   -0.18091E-05  6466   0.797E-03    0.544E-02
RMM:   3    -0.698939366363E+03    0.13529E-04   -0.52561E-06  5502   0.547E-03    0.742E-03
RMM:   4    -0.698939368524E+03   -0.21608E-05   -0.17601E-06  5412   0.290E-03
  66 F= -.69893937E+03 E0= -.69891385E+03  d E =0.221880E-05
       N       E                     dE             d eps       ncg     rms          rms(c)
DAV:   1    -0.698939368627E+03   -0.22638E-05   -0.13374E-04 10232   0.175E-02    0.565E-03
RMM:   2    -0.698939375511E+03   -0.68845E-05   -0.93670E-06  5339   0.571E-03
  67 F= -.69893938E+03 E0= -.69891394E+03  d E =-.476868E-05
       N       E                     dE             d eps       ncg     rms          rms(c)
DAV:   1    -0.698939367079E+03    0.15474E-05   -0.58958E-05  8272   0.125E-02    0.657E-03
RMM:   2    -0.698939376628E+03   -0.95488E-05   -0.13042E-05  5624   0.686E-03
  68 F= -.69893938E+03 E0= -.69891377E+03  d E =-.588561E-05
       N       E                     dE             d eps       ncg     rms          rms(c)
DAV:   1    -0.698939367869E+03   -0.78942E-06   -0.13090E-05  6160   0.900E-03    0.866E-03
RMM:   2    -0.698939384701E+03   -0.16832E-04   -0.81149E-06  5576   0.464E-03    0.642E-02
RMM:   3    -0.698939366543E+03    0.18158E-04   -0.33644E-06  5124   0.358E-03    0.106E-02
RMM:   4    -0.698939369028E+03   -0.24858E-05   -0.94625E-07  4034   0.196E-03
  69 F= -.69893937E+03 E0= -.69891383E+03  d E =0.171396E-05
       N       E                     dE             d eps       ncg     rms          rms(c)
DAV:   1    -0.698939329271E+03    0.37272E-04   -0.12744E-02 10998   0.168E-01    0.260E-02
RMM:   2    -0.698939476468E+03   -0.14720E-03   -0.47291E-04 12980   0.443E-02    0.169E-01
RMM:   3    -0.698939360889E+03    0.11558E-03   -0.10879E-04 12102   0.187E-02    0.209E-02
RMM:   4    -0.698939381013E+03   -0.20124E-04   -0.20297E-05  6615   0.100E-02    0.193E-02
RMM:   5    -0.698939380102E+03    0.91080E-06   -0.59249E-06  5896   0.551E-03
  70 F= -.69893938E+03 E0= -.69891380E+03  d E =-.110734E-04
       N       E                     dE             d eps       ncg     rms          rms(c)
DAV:   1    -0.698939374902E+03    0.61104E-05   -0.50630E-04 10264   0.339E-02    0.751E-03
RMM:   2    -0.698939380102E+03   -0.51995E-05   -0.21257E-05  6175   0.990E-03
  71 F= -.69893938E+03 E0= -.69891383E+03  d E =-.110734E-04
       N       E                     dE             d eps       ncg     rms          rms(c)
DAV:   1    -0.698939375625E+03   -0.72306E-06   -0.32437E-04 10676   0.274E-02    0.691E-03
RMM:   2    -0.698939384022E+03   -0.83965E-05   -0.17902E-05  6411   0.878E-03
  72 F= -.69893938E+03 E0= -.69891387E+03  d E =-.149934E-04
       N       E                     dE             d eps       ncg     rms          rms(c)
DAV:   1    -0.698939376370E+03   -0.74450E-06   -0.84303E-05  9488   0.158E-02    0.139E-02
RMM:   2    -0.698939417882E+03   -0.41513E-04   -0.23203E-05  6791   0.775E-03    0.104E-01
RMM:   3    -0.698939372509E+03    0.45374E-04   -0.11174E-05  5796   0.573E-03    0.205E-02
RMM:   4    -0.698939377138E+03   -0.46295E-05   -0.37571E-06  5224   0.388E-03
  73 F= -.69893938E+03 E0= -.69891384E+03  d E =-.810972E-05
       N       E                     dE             d eps       ncg     rms          rms(c)
DAV:   1    -0.698939377137E+03   -0.46285E-05   -0.97917E-06  5856   0.765E-03    0.122E-03
RMM:   2    -0.698939377514E+03   -0.37678E-06   -0.28054E-06  5058   0.381E-03
  74 F= -.69893938E+03 E0= -.69891383E+03  d E =-.848551E-05
       N       E                     dE             d eps       ncg     rms          rms(c)
DAV:   1    -0.698939377386E+03   -0.24926E-06   -0.28227E-06  5224   0.320E-03    0.915E-04
RMM:   2    -0.698939377478E+03   -0.91582E-07   -0.68083E-07  4520   0.197E-03
  75 F= -.69893938E+03 E0= -.69891383E+03  d E =-.844957E-05
       N       E                     dE             d eps       ncg     rms          rms(c)
DAV:   1    -0.698939377490E+03   -0.10360E-06   -0.51884E-07  5208   0.147E-03    0.124E-03
RMM:   2    -0.698939377916E+03   -0.42619E-06   -0.16274E-07  2295   0.938E-04
  76 F= -.69893938E+03 E0= -.69891383E+03  d E =-.888778E-05
       N       E                     dE             d eps       ncg     rms          rms(c)
DAV:   1    -0.698939377425E+03    0.64800E-07   -0.80046E-07  5184   0.147E-03    0.105E-03
RMM:   2    -0.698939377571E+03   -0.14591E-06   -0.29146E-08   703   0.512E-04
  77 F= -.69893938E+03 E0= -.69891385E+03  d E =-.854270E-05
       N       E                     dE             d eps       ncg     rms          rms(c)
DAV:   1    -0.698939377403E+03    0.22337E-07   -0.39617E-03 10670   0.952E-02    0.360E-02
RMM:   2    -0.698939696504E+03   -0.31910E-03   -0.25149E-04 12710   0.286E-02    0.283E-01
RMM:   3    -0.698939338027E+03    0.35848E-03   -0.73919E-05  9635   0.151E-02    0.451E-02
RMM:   4    -0.698939388308E+03   -0.50281E-04   -0.16761E-05  6227   0.867E-03    0.116E-02
RMM:   5    -0.698939390753E+03   -0.24451E-05   -0.56366E-06  5928   0.574E-03
  78 F= -.69893939E+03 E0= -.69891384E+03  d E =-.131822E-04
