<?xml version="1.0" encoding="ISO-8859-1"?>
<modeling>
 <generator>
  <i name="program" type="string">vasp </i>
  <i name="version" type="string">6.4.2  </i>
  <i name="subversion" type="string">20Jul23 (build Nov 12 2023 22:16:35) complex                          parallel </i>
  <i name="platform" type="string">LinuxNV </i>
  <i name="date" type="string">2025 03 08 </i>
  <i name="time" type="string">03:07:41 </i>
 </generator>
 <incar>
  <i type="int" name="ISTART">     0</i>
  <i type="string" name="PREC">Normal</i>
  <i type="string" name="ALGO">Fast</i>
  <i type="int" name="ISPIN">     1</i>
  <i type="int" name="ICHARG">     2</i>
  <i type="int" name="NELM">   500</i>
  <i type="int" name="IBRION">     2</i>
  <i name="EDIFF">      0.00001000</i>
  <i name="EDIFFG">     -0.00500000</i>
  <i type="int" name="NSW">   300</i>
  <i type="int" name="ISIF">     2</i>
  <i name="ENCUT">    450.00000000</i>
  <i name="NELECT">   1044.00000000</i>
  <i type="string" name="LREAL">Auto</i>
  <i type="logical" name="LPLANE"> T  </i>
  <i type="int" name="ISMEAR">     0</i>
  <i name="SIGMA">      0.05000000</i>
  <i type="logical" name="LWAVE"> F  </i>
  <i type="logical" name="LCHARG"> F  </i>
 </incar>
 <primitive_cell>
  <structure name="primitive_cell" >
   <crystal>
    <varray name="basis" >
     <v>       0.00000000      12.28047342       0.00000000 </v>
     <v>       9.14270205       0.00000000       0.00000000 </v>
     <v>       0.00000000      -2.76826177     -11.30069772 </v>
    </varray>
    <i name="volume">   1268.80515525 </i>
    <varray name="rec_basis" >
     <v>       0.00000000       0.08143009      -0.01994742 </v>
     <v>       0.10937686      -0.00000000       0.00000000 </v>
     <v>       0.00000000       0.00000000      -0.08849011 </v>
    </varray>
   </crystal>
   <varray name="positions" >
    <v>       0.65883830       0.00000000       0.15736517 </v>
    <v>       0.65883830       0.00000000       0.65736517 </v>
    <v>       0.65883830       0.33333333       0.15736517 </v>
    <v>       0.65883830       0.33333333       0.65736517 </v>
    <v>       0.65883830       0.66666667       0.15736517 </v>
    <v>       0.65883830       0.66666667       0.65736517 </v>
    <v>       0.84116170       0.16666667       0.34263483 </v>
    <v>       0.84116170       0.16666667       0.84263483 </v>
    <v>       0.84116170       0.50000000       0.34263483 </v>
    <v>       0.84116170       0.50000000       0.84263483 </v>
    <v>       0.84116170       0.83333333       0.34263483 </v>
    <v>       0.84116170       0.83333333       0.84263483 </v>
    <v>       0.59047440       0.16666667       0.39739300 </v>
    <v>       0.59047440       0.16666667       0.89739300 </v>
    <v>       0.59047440       0.50000000       0.39739300 </v>
    <v>       0.59047440       0.50000000       0.89739300 </v>
    <v>       0.59047440       0.83333333       0.39739300 </v>
    <v>       0.59047440       0.83333333       0.89739300 </v>
    <v>       0.90952560       0.00000000       0.10260700 </v>
    <v>       0.90952560       0.00000000       0.60260700 </v>
    <v>       0.90952560       0.33333333       0.10260700 </v>
    <v>       0.90952560       0.33333333       0.60260700 </v>
    <v>       0.90952560       0.66666667       0.10260700 </v>
    <v>       0.90952560       0.66666667       0.60260700 </v>
    <v>       0.15883830       0.16666667       0.15736517 </v>
    <v>       0.15883830       0.16666667       0.65736517 </v>
    <v>       0.15883830       0.50000000       0.15736517 </v>
    <v>       0.15883830       0.50000000       0.65736517 </v>
    <v>       0.15883830       0.83333333       0.15736517 </v>
    <v>       0.15883830       0.83333333       0.65736517 </v>
    <v>       0.34116170       0.00000000       0.34263483 </v>
    <v>       0.34116170       0.00000000       0.84263483 </v>
    <v>       0.34116170       0.33333333       0.84263483 </v>
    <v>       0.34116170       0.66666667       0.34263483 </v>
    <v>       0.34116170       0.66666667       0.84263483 </v>
    <v>       0.09047440       0.00000000       0.39739300 </v>
    <v>       0.09047440       0.00000000       0.89739300 </v>
    <v>       0.09047440       0.33333333       0.39739300 </v>
    <v>       0.09047440       0.33333333       0.89739300 </v>
    <v>       0.09047440       0.66666667       0.39739300 </v>
    <v>       0.09047440       0.66666667       0.89739300 </v>
    <v>       0.40952560       0.16666667       0.10260700 </v>
    <v>       0.40952560       0.16666667       0.60260700 </v>
    <v>       0.40952560       0.50000000       0.10260700 </v>
    <v>       0.40952560       0.50000000       0.60260700 </v>
    <v>       0.40952560       0.83333333       0.10260700 </v>
    <v>       0.40952560       0.83333333       0.60260700 </v>
    <v>       0.99646913       0.16666667       0.12833205 </v>
    <v>       0.99646913       0.16666667       0.62833205 </v>
    <v>       0.99646913       0.50000000       0.12833205 </v>
    <v>       0.99646913       0.50000000       0.62833205 </v>
    <v>       0.99646913       0.83333333       0.12833205 </v>
    <v>       0.99646913       0.83333333       0.62833205 </v>
    <v>       0.50353087       0.00000000       0.37166795 </v>
    <v>       0.50353087       0.00000000       0.87166795 </v>
    <v>       0.50353087       0.33333333       0.37166795 </v>
    <v>       0.50353087       0.33333333       0.87166795 </v>
    <v>       0.50353087       0.66666667       0.37166795 </v>
    <v>       0.50353087       0.66666667       0.87166795 </v>
    <v>       0.67337106       0.16666667       0.28161508 </v>
    <v>       0.67337106       0.16666667       0.78161508 </v>
    <v>       0.67337106       0.50000000       0.28161508 </v>
    <v>       0.67337106       0.50000000       0.78161508 </v>
    <v>       0.67337106       0.83333333       0.28161508 </v>
    <v>       0.67337106       0.83333333       0.78161508 </v>
    <v>       0.82662894       0.00000000       0.21838492 </v>
    <v>       0.82662894       0.00000000       0.71838492 </v>
    <v>       0.82662894       0.33333333       0.21838492 </v>
    <v>       0.82662894       0.33333333       0.71838492 </v>
    <v>       0.82662894       0.66666667       0.21838492 </v>
    <v>       0.82662894       0.66666667       0.71838492 </v>
    <v>       0.83549502       0.00000000       0.44542296 </v>
    <v>       0.83549502       0.00000000       0.94542296 </v>
    <v>       0.83549502       0.33333333       0.44542296 </v>
    <v>       0.83549502       0.33333333       0.94542296 </v>
    <v>       0.83549502       0.66666667       0.44542296 </v>
    <v>       0.83549502       0.66666667       0.94542296 </v>
    <v>       0.66450498       0.16666667       0.05457704 </v>
    <v>       0.66450498       0.16666667       0.55457704 </v>
    <v>       0.66450498       0.50000000       0.05457704 </v>
    <v>       0.66450498       0.50000000       0.55457704 </v>
    <v>       0.66450498       0.83333333       0.05457704 </v>
    <v>       0.66450498       0.83333333       0.55457704 </v>
    <v>       0.49646913       0.00000000       0.12833205 </v>
    <v>       0.49646913       0.00000000       0.62833205 </v>
    <v>       0.49646913       0.33333333       0.12833205 </v>
    <v>       0.49646913       0.33333333       0.62833205 </v>
    <v>       0.49646913       0.66666667       0.12833205 </v>
    <v>       0.49646913       0.66666667       0.62833205 </v>
    <v>       0.00353087       0.16666667       0.37166795 </v>
    <v>       0.00353087       0.16666667       0.87166795 </v>
    <v>       0.00353087       0.50000000       0.37166795 </v>
    <v>       0.00353087       0.50000000       0.87166795 </v>
    <v>       0.00353087       0.83333333       0.37166795 </v>
    <v>       0.00353087       0.83333333       0.87166795 </v>
    <v>       0.17337106       0.00000000       0.28161508 </v>
    <v>       0.17337106       0.00000000       0.78161508 </v>
    <v>       0.17337106       0.33333333       0.28161508 </v>
    <v>       0.17337106       0.33333333       0.78161508 </v>
    <v>       0.17337106       0.66666667       0.28161508 </v>
    <v>       0.17337106       0.66666667       0.78161508 </v>
    <v>       0.32662894       0.16666667       0.21838492 </v>
    <v>       0.32662894       0.16666667       0.71838492 </v>
    <v>       0.32662894       0.50000000       0.21838492 </v>
    <v>       0.32662894       0.50000000       0.71838492 </v>
    <v>       0.32662894       0.83333333       0.21838492 </v>
    <v>       0.32662894       0.83333333       0.71838492 </v>
    <v>       0.33549502       0.16666667       0.44542296 </v>
    <v>       0.33549502       0.16666667       0.94542296 </v>
    <v>       0.33549502       0.50000000       0.44542296 </v>
    <v>       0.33549502       0.50000000       0.94542296 </v>
    <v>       0.33549502       0.83333333       0.44542296 </v>
    <v>       0.33549502       0.83333333       0.94542296 </v>
    <v>       0.16450498       0.00000000       0.05457704 </v>
    <v>       0.16450498       0.00000000       0.55457704 </v>
    <v>       0.16450498       0.33333333       0.05457704 </v>
    <v>       0.16450498       0.33333333       0.55457704 </v>
    <v>       0.16450498       0.66666667       0.05457704 </v>
    <v>       0.16450498       0.66666667       0.55457704 </v>
   </varray>
  </structure>
  <varray name="primitive_index" >
   <v type="int" >        1 </v>
   <v type="int" >        2 </v>
   <v type="int" >        3 </v>
   <v type="int" >        4 </v>
   <v type="int" >        5 </v>
   <v type="int" >        6 </v>
   <v type="int" >        7 </v>
   <v type="int" >        8 </v>
   <v type="int" >        9 </v>
   <v type="int" >       10 </v>
   <v type="int" >       11 </v>
   <v type="int" >       12 </v>
   <v type="int" >       13 </v>
   <v type="int" >       14 </v>
   <v type="int" >       15 </v>
   <v type="int" >       16 </v>
   <v type="int" >       17 </v>
   <v type="int" >       18 </v>
   <v type="int" >       19 </v>
   <v type="int" >       20 </v>
   <v type="int" >       21 </v>
   <v type="int" >       22 </v>
   <v type="int" >       23 </v>
   <v type="int" >       24 </v>
   <v type="int" >       25 </v>
   <v type="int" >       26 </v>
   <v type="int" >       27 </v>
   <v type="int" >       28 </v>
   <v type="int" >       29 </v>
   <v type="int" >       30 </v>
   <v type="int" >       31 </v>
   <v type="int" >       32 </v>
   <v type="int" >       33 </v>
   <v type="int" >       34 </v>
   <v type="int" >       35 </v>
   <v type="int" >       36 </v>
   <v type="int" >       37 </v>
   <v type="int" >       38 </v>
   <v type="int" >       39 </v>
   <v type="int" >       40 </v>
   <v type="int" >       41 </v>
   <v type="int" >       42 </v>
   <v type="int" >       43 </v>
   <v type="int" >       44 </v>
   <v type="int" >       45 </v>
   <v type="int" >       46 </v>
   <v type="int" >       47 </v>
   <v type="int" >       48 </v>
   <v type="int" >       49 </v>
   <v type="int" >       50 </v>
   <v type="int" >       51 </v>
   <v type="int" >       52 </v>
   <v type="int" >       53 </v>
   <v type="int" >       54 </v>
   <v type="int" >       55 </v>
   <v type="int" >       56 </v>
   <v type="int" >       57 </v>
   <v type="int" >       58 </v>
   <v type="int" >       59 </v>
   <v type="int" >       60 </v>
   <v type="int" >       61 </v>
   <v type="int" >       62 </v>
   <v type="int" >       63 </v>
   <v type="int" >       64 </v>
   <v type="int" >       65 </v>
   <v type="int" >       66 </v>
   <v type="int" >       67 </v>
   <v type="int" >       68 </v>
   <v type="int" >       69 </v>
   <v type="int" >       70 </v>
   <v type="int" >       71 </v>
   <v type="int" >       72 </v>
   <v type="int" >       73 </v>
   <v type="int" >       74 </v>
   <v type="int" >       75 </v>
   <v type="int" >       76 </v>
   <v type="int" >       77 </v>
   <v type="int" >       78 </v>
   <v type="int" >       79 </v>
   <v type="int" >       80 </v>
   <v type="int" >       81 </v>
   <v type="int" >       82 </v>
   <v type="int" >       83 </v>
   <v type="int" >       84 </v>
   <v type="int" >       85 </v>
   <v type="int" >       86 </v>
   <v type="int" >       87 </v>
   <v type="int" >       88 </v>
   <v type="int" >       89 </v>
   <v type="int" >       90 </v>
   <v type="int" >       91 </v>
   <v type="int" >       92 </v>
   <v type="int" >       93 </v>
   <v type="int" >       94 </v>
   <v type="int" >       95 </v>
   <v type="int" >       96 </v>
   <v type="int" >       97 </v>
   <v type="int" >       98 </v>
   <v type="int" >       99 </v>
   <v type="int" >      100 </v>
   <v type="int" >      101 </v>
   <v type="int" >      102 </v>
   <v type="int" >      103 </v>
   <v type="int" >      104 </v>
   <v type="int" >      105 </v>
   <v type="int" >      106 </v>
   <v type="int" >      107 </v>
   <v type="int" >      108 </v>
   <v type="int" >      109 </v>
   <v type="int" >      110 </v>
   <v type="int" >      111 </v>
   <v type="int" >      112 </v>
   <v type="int" >      113 </v>
   <v type="int" >      114 </v>
   <v type="int" >      115 </v>
   <v type="int" >      116 </v>
   <v type="int" >      117 </v>
   <v type="int" >      118 </v>
   <v type="int" >      119 </v>
  </varray>
 </primitive_cell>
 <kpoints>
  <generation param="Gamma">
   <v type="int" name="divisions">       2        2        2 </v>
   <v name="usershift">      0.00000000       0.00000000       0.00000000 </v>
   <v name="genvec1">      0.50000000       0.00000000       0.00000000 </v>
   <v name="genvec2">      0.00000000       0.50000000       0.00000000 </v>
   <v name="genvec3">      0.00000000       0.00000000       0.50000000 </v>
   <v name="shift">      0.00000000       0.00000000       0.00000000 </v>
  </generation>
  <varray name="kpointlist" >
   <v>       0.00000000       0.00000000       0.00000000 </v>
   <v>       0.50000000       0.00000000       0.00000000 </v>
   <v>       0.00000000       0.50000000       0.00000000 </v>
   <v>       0.50000000       0.50000000       0.00000000 </v>
   <v>       0.00000000       0.00000000       0.50000000 </v>
   <v>       0.50000000       0.00000000       0.50000000 </v>
   <v>       0.00000000       0.50000000       0.50000000 </v>
   <v>       0.50000000       0.50000000       0.50000000 </v>
  </varray>
  <varray name="weights" >
   <v>       0.12500000 </v>
   <v>       0.12500000 </v>
   <v>       0.12500000 </v>
   <v>       0.12500000 </v>
   <v>       0.12500000 </v>
   <v>       0.12500000 </v>
   <v>       0.12500000 </v>
   <v>       0.12500000 </v>
  </varray>
 </kpoints>
 <parameters>
  <separator name="general" >
   <i type="string" name="SYSTEM">unknown system</i>
   <i type="logical" name="LCOMPAT"> F  </i>
  </separator>
  <separator name="electronic" >
   <i type="string" name="PREC">normal</i>
   <i name="ENMAX">    450.00000000</i>
   <i name="ENAUG">    605.39200000</i>
   <i name="EDIFF">      0.00001000</i>
   <i type="int" name="IALGO">    68</i>
   <i type="int" name="IWAVPR">    11</i>
   <i type="int" name="NBANDS">   626</i>
   <i type="int" name="NBANDSLOW">    -1</i>
   <i type="int" name="NBANDSHIGH">    -1</i>
   <i name="NELECT">   1044.00000000</i>
   <i type="int" name="TURBO">     0</i>
   <i type="int" name="IRESTART">     0</i>
   <i type="int" name="NREBOOT">     0</i>
   <i type="int" name="NMIN">     0</i>
   <i name="EREF">      0.00000000</i>
   <separator name="electronic smearing" >
    <i type="int" name="ISMEAR">     0</i>
    <i name="SIGMA">      0.05000000</i>
    <i name="KSPACING">      0.50000000</i>
    <i type="logical" name="KGAMMA"> T  </i>
    <i type="logical" name="KBLOWUP"> T  </i>
   </separator>
   <separator name="electronic projectors" >
    <i type="logical" name="LREAL"> T  </i>
    <v name="ROPT">     -0.00050000     -0.00050000</v>
    <i type="int" name="LMAXPAW">  -100</i>
    <i type="int" name="LMAXMIX">     2</i>
    <i type="logical" name="NLSPLINE"> F  </i>
   </separator>
   <separator name="electronic startup" >
    <i type="int" name="ISTART">     0</i>
    <i type="int" name="ICHARG">     2</i>
    <i type="int" name="INIWAV">     1</i>
   </separator>
   <separator name="electronic spin" >
    <i type="int" name="ISPIN">     1</i>
    <i type="logical" name="LNONCOLLINEAR"> F  </i>
    <v name="MAGMOM">      1.00000000      1.00000000      1.00000000      1.00000000      1.00000000      1.00000000      1.00000000      1.00000000      1.00000000      1.00000000      1.00000000      1.00000000      1.00000000      1.00000000      1.00000000      1.00000000      1.00000000      1.00000000      1.00000000      1.00000000
      1.00000000      1.00000000      1.00000000      1.00000000      1.00000000      1.00000000      1.00000000      1.00000000      1.00000000      1.00000000      1.00000000      1.00000000      1.00000000      1.00000000      1.00000000      1.00000000      1.00000000      1.00000000      1.00000000      1.00000000
      1.00000000      1.00000000      1.00000000      1.00000000      1.00000000      1.00000000      1.00000000      1.00000000      1.00000000      1.00000000      1.00000000      1.00000000      1.00000000      1.00000000      1.00000000      1.00000000      1.00000000      1.00000000      1.00000000      1.00000000
      1.00000000      1.00000000      1.00000000      1.00000000      1.00000000      1.00000000      1.00000000      1.00000000      1.00000000      1.00000000      1.00000000      1.00000000      1.00000000      1.00000000      1.00000000      1.00000000      1.00000000      1.00000000      1.00000000      1.00000000
      1.00000000      1.00000000      1.00000000      1.00000000      1.00000000      1.00000000      1.00000000      1.00000000      1.00000000      1.00000000      1.00000000      1.00000000      1.00000000      1.00000000      1.00000000      1.00000000      1.00000000      1.00000000      1.00000000      1.00000000
      1.00000000      1.00000000      1.00000000      1.00000000      1.00000000      1.00000000      1.00000000      1.00000000      1.00000000      1.00000000      1.00000000      1.00000000      1.00000000      1.00000000      1.00000000      1.00000000      1.00000000      1.00000000      1.00000000</v>
    <i name="NUPDOWN">     -1.00000000</i>
    <i type="logical" name="LSORBIT"> F  </i>
    <v name="SAXIS">      0.00000000      0.00000000      1.00000000</v>
    <i type="logical" name="LSPIRAL"> F  </i>
    <v name="QSPIRAL">      0.00000000      0.00000000      0.00000000</v>
    <i type="logical" name="LZEROZ"> F  </i>
   </separator>
   <separator name="electronic exchange-correlation" >
    <i type="logical" name="LASPH"> F  </i>
    <i type="logical" name="LMETAGGA"> F  </i>
   </separator>
   <separator name="electronic convergence" >
    <i type="int" name="NELM">   500</i>
    <i type="int" name="NELMDL">    -5</i>
    <i type="int" name="NELMIN">     2</i>
    <i name="ENINI">    450.00000000</i>
    <separator name="electronic convergence detail" >
     <i type="logical" name="LDIAG"> T  </i>
     <i type="logical" name="LSUBROT"> F  </i>
     <i name="WEIMIN">      0.00100000</i>
     <i name="EBREAK">      0.00000000</i>
     <i name="DEPER">      0.30000000</i>
     <i type="int" name="NRMM">     4</i>
     <i name="TIME">      0.40000000</i>
    </separator>
   </separator>
   <separator name="electronic mixer" >
    <i name="AMIX">      0.40000000</i>
    <i name="BMIX">      1.00000000</i>
    <i name="AMIN">      0.10000000</i>
    <i name="AMIX_MAG">      1.60000000</i>
    <i name="BMIX_MAG">      1.00000000</i>
    <separator name="electronic mixer details" >
     <i type="int" name="IMIX">     4</i>
     <i type="logical" name="MIXFIRST"> F  </i>
     <i type="int" name="MAXMIX">   -45</i>
     <i name="WC">    100.00000000</i>
     <i type="int" name="INIMIX">     1</i>
     <i type="int" name="MIXPRE">     1</i>
     <i type="int" name="MREMOVE">     5</i>
    </separator>
   </separator>
   <separator name="electronic dipolcorrection" >
    <i type="logical" name="LDIPOL"> F  </i>
    <i type="logical" name="LMONO"> F  </i>
    <i type="int" name="IDIPOL">     0</i>
    <i name="EPSILON">      1.00000000</i>
    <v name="DIPOL">   -100.00000000   -100.00000000   -100.00000000</v>
    <i name="EFIELD">      0.00000000</i>
   </separator>
  </separator>
  <separator name="grids" >
   <i type="int" name="NGX">    64</i>
   <i type="int" name="NGY">    48</i>
   <i type="int" name="NGZ">    60</i>
   <i type="int" name="NGXF">   128</i>
   <i type="int" name="NGYF">    96</i>
   <i type="int" name="NGZF">   120</i>
   <i type="logical" name="ADDGRID"> F  </i>
  </separator>
  <separator name="ionic" >
   <i type="int" name="NSW">   300</i>
   <i type="int" name="IBRION">     2</i>
   <i type="int" name="MDALGO">     0</i>
   <i type="int" name="ISIF">     2</i>
   <i name="PSTRESS">      0.00000000</i>
   <i name="EDIFFG">     -0.00500000</i>
   <i type="int" name="NFREE">     1</i>
   <i name="POTIM">      0.50000000</i>
   <i name="SMASS">     -3.00000000</i>
   <i name="SCALEE">      1.00000000</i>
  </separator>
  <separator name="ionic md" >
   <i name="TEBEG">      0.00010000</i>
   <i name="TEEND">      0.00010000</i>
   <i type="int" name="NBLOCK">     1</i>
   <i type="int" name="KBLOCK">   300</i>
   <i type="int" name="NPACO">   256</i>
   <i name="APACO">     10.00000000</i>
  </separator>
  <separator name="symmetry" >
   <i type="int" name="ISYM">     2</i>
   <i name="SYMPREC">      0.00001000</i>
  </separator>
  <separator name="dos" >
   <i type="int" name="LORBIT">     0</i>
   <v name="RWIGS">     -1.00000000     -1.00000000</v>
   <i type="int" name="NEDOS">   301</i>
   <i name="EMIN">     10.00000000</i>
   <i name="EMAX">    -10.00000000</i>
   <i name="EFERMI">      0.00000000</i>
  </separator>
  <separator name="writing" >
   <i type="int" name="NWRITE">     2</i>
   <i type="logical" name="LWAVE"> F  </i>
   <i type="logical" name="LDOWNSAMPLE"> F  </i>
   <i type="logical" name="LCHARG"> F  </i>
   <i type="logical" name="LPARD"> F  </i>
   <i type="logical" name="LVTOT"> F  </i>
   <i type="logical" name="LVHAR"> F  </i>
   <i type="logical" name="LELF"> F  </i>
   <i type="logical" name="LOPTICS"> F  </i>
   <v name="STM">      0.00000000      0.00000000      0.00000000      0.00000000      0.00000000      0.00000000      0.00000000</v>
  </separator>
  <separator name="performance" >
   <i type="int" name="NPAR">     1</i>
   <i type="int" name="NSIM">     4</i>
   <i type="int" name="NBLK">    -1</i>
   <i type="logical" name="LPLANE"> T  </i>
   <i type="logical" name="LSCALAPACK"> T  </i>
   <i type="logical" name="LSCAAWARE"> F  </i>
   <i type="logical" name="LSCALU"> F  </i>
   <i type="logical" name="LASYNC"> F  </i>
   <i type="logical" name="LORBITALREAL"> F  </i>
  </separator>
  <separator name="miscellaneous" >
   <i type="int" name="IDIOT">     3</i>
   <i type="int" name="PHON_NSTRUCT">    -1</i>
   <i type="logical" name="LMUSIC"> F  </i>
   <v name="POMASS">     69.72300000     16.00000000</v>
   <v name="DARWINR">      0.00000000      0.00000000</v>
   <v name="DARWINV">      1.00000000      1.00000000</v>
   <i type="logical" name="LCORR"> T  </i>
  </separator>
  <i type="logical" name="GGA_COMPAT"> T  </i>
  <i type="logical" name="LBERRY"> F  </i>
  <i type="int" name="ICORELEVEL">     0</i>
  <i type="logical" name="LDAU"> F  </i>
  <i type="int" name="I_CONSTRAINED_M">     0</i>
  <separator name="electronic exchange-correlation" >
   <i type="string" name="GGA">--</i>
   <i type="int" name="VOSKOWN">     0</i>
   <i type="logical" name="LHFCALC"> F  </i>
   <i type="string" name="PRECFOCK"></i>
   <i type="logical" name="LSYMGRAD"> F  </i>
   <i type="logical" name="LHFONE"> F  </i>
   <i type="logical" name="LRHFCALC"> F  </i>
   <i type="logical" name="LTHOMAS"> F  </i>
   <i type="logical" name="LMODELHF"> F  </i>
   <i type="logical" name="LFOCKACE"> F  </i>
   <i name="ENCUT4O">     -1.00000000</i>
   <i type="int" name="EXXOEP">     0</i>
   <i type="int" name="FOURORBIT">     0</i>
   <i name="AEXX">      0.00000000</i>
   <i name="HFALPHA">      0.00000000</i>
   <i name="MCALPHA">      0.00000000</i>
   <i name="ALDAX">      1.00000000</i>
   <i name="AGGAX">      1.00000000</i>
   <i name="ALDAC">      1.00000000</i>
   <i name="AGGAC">      1.00000000</i>
   <i type="int" name="NKREDX">     1</i>
   <i type="int" name="NKREDY">     1</i>
   <i type="int" name="NKREDZ">     1</i>
   <i type="logical" name="SHIFTRED"> F  </i>
   <i type="logical" name="ODDONLY"> F  </i>
   <i type="logical" name="EVENONLY"> F  </i>
   <i type="int" name="LMAXFOCK">     0</i>
   <i type="int" name="NMAXFOCKAE">     0</i>
   <i type="logical" name="LFOCKAEDFT"> F  </i>
   <i name="HFSCREEN">      0.00000000</i>
   <i name="HFSCREENC">      0.00000000</i>
   <i type="int" name="NBANDSGWLOW">     0</i>
  </separator>
  <separator name="vdW DFT" >
   <i type="logical" name="LUSE_VDW"> F  </i>
   <i type="int" name="IVDW_NL">     1</i>
   <i type="logical" name="LSPIN_VDW"> F  </i>
   <i name="Zab_VDW">     -0.84910000</i>
   <i name="PARAM1">      0.12340000</i>
   <i name="PARAM2">      1.00000000</i>
   <i name="PARAM3">      0.00000000</i>
  </separator>
  <separator name="model GW" >
   <i type="int" name="MODEL_GW">     0</i>
   <i name="MODEL_EPS0">      6.39733692</i>
   <i name="MODEL_ALPHA">      1.00000000</i>
  </separator>
  <separator name="linear response parameters" >
   <i type="logical" name="LEPSILON"> F  </i>
   <i type="logical" name="LRPA"> F  </i>
   <i type="logical" name="LNABLA"> F  </i>
   <i type="logical" name="LVEL"> F  </i>
   <i name="CSHIFT">      0.10000000</i>
   <i name="OMEGAMAX">     -1.00000000</i>
   <i name="DEG_THRESHOLD">      0.00200000</i>
   <i name="RTIME">     -0.10000000</i>
   <i name="WPLASMAI">      0.00000000</i>
   <v name="DFIELD">      0.00000000      0.00000000      0.00000000</v>
   <v name="WPLASMA">      0.00000000      0.00000000      0.00000000      0.00000000      0.00000000      0.00000000      0.00000000      0.00000000      0.00000000</v>
  </separator>
  <separator name="orbital magnetization" >
   <i type="logical" name="NUCIND"> F  </i>
   <v name="MAGPOS">      0.00000000      0.00000000      0.00000000</v>
   <i type="logical" name="LNICSALL"> T  </i>
   <i type="logical" name="ORBITALMAG"> F  </i>
   <i type="logical" name="LMAGBLOCH"> F  </i>
   <i type="logical" name="LCHIMAG"> F  </i>
   <i type="logical" name="LGAUGE"> T  </i>
   <i type="int" name="MAGATOM">     0</i>
   <v name="MAGDIPOL">      0.00000000      0.00000000      0.00000000</v>
   <v name="AVECCONST">      0.00000000      0.00000000      0.00000000</v>
  </separator>
  <separator name="response functions" >
   <i type="logical" name="LALL_IN_ONE"> F  </i>
   <i type="int" name="IALL_IN_ONE">    -1</i>
   <i type="int" name="NBANDS_WAVE">    -1</i>
   <i type="logical" name="LFINITE_TEMPERATURE"> F  </i>
   <i type="logical" name="LADDER"> F  </i>
   <i type="logical" name="LRPAFORCE"> F  </i>
   <i type="logical" name="LFXC"> F  </i>
   <i type="logical" name="LHARTREE"> T  </i>
   <i type="int" name="IBSE">     0</i>
   <v type="int" name="KPOINT">    -1     0     0     0</v>
   <i type="logical" name="LTCTC"> F  </i>
   <i type="logical" name="LTCTE"> F  </i>
   <i type="logical" name="LTETE"> F  </i>
   <i type="logical" name="LTRIPLET"> F  </i>
   <i type="logical" name="LFXCEPS"> F  </i>
   <i type="logical" name="LFXHEG"> F  </i>
   <i type="int" name="NATURALO">     2</i>
   <i type="logical" name="LHOLEGF"> F  </i>
   <i type="logical" name="L2ORDER"> F  </i>
   <i type="logical" name="LDMP1"> F  </i>
   <i type="logical" name="LMP2LT"> F  </i>
   <i type="logical" name="LSMP2LT"> F  </i>
   <i type="logical" name="LGWLF"> F  </i>
   <i name="ENCUTGW">     -1.60000002</i>
   <i name="ENCUTGWSOFT">     -1.60000002</i>
   <i name="ENCUTLF">     -1.00000000</i>
   <i type="logical" name="LESF_SPLINES"> F  </i>
   <i type="int" name="LMAXMP2">    -1</i>
   <i name="SCISSOR">      0.00000000</i>
   <i type="int" name="NOMEGA">     0</i>
   <i type="int" name="NOMEGAR">     0</i>
   <i type="int" name="NBANDSGW">    -1</i>
   <i type="int" name="NBANDSO">    -1</i>
   <i type="int" name="NBANDSV">    -1</i>
   <i type="int" name="NELMGW">     1</i>
   <i type="int" name="NELMHF">     1</i>
   <i type="int" name="DIM">     3</i>
   <i type="int" name="IESPILON">     4</i>
   <i type="int" name="ANTIRES">     0</i>
   <i name="OMEGAMAX">    -30.00000000</i>
   <i name="OMEGAMIN">    -30.00000000</i>
   <i name="OMEGATL">   -200.00000000</i>
   <i type="int" name="OMEGAGRID">     0</i>
   <i name="CSHIFT">     -0.10000000</i>
   <i type="logical" name="LSELFENERGY"> F  </i>
   <i type="logical" name="LSPECTRAL"> F  </i>
   <i type="logical" name="LSPECTRALGW"> F  </i>
   <i type="logical" name="LSINGLES"> F  </i>
   <i type="logical" name="LFERMIGW"> F  </i>
   <i type="logical" name="ODDONLYGW"> F  </i>
   <i type="logical" name="EVENONLYGW"> F  </i>
   <i type="int" name="NKREDLFX">     1</i>
   <i type="int" name="NKREDLFY">     1</i>
   <i type="int" name="NKREDLFZ">     1</i>
   <i type="int" name="MAXMEM">  2800</i>
   <i type="int" name="TELESCOPE">     0</i>
   <i type="int" name="NTAUPAR">    -1</i>
   <i type="int" name="NOMEGAPAR">    -1</i>
   <i name="DAMP_NEWTON">      0.80000001</i>
   <i name="LAMBDA">      1.00000000</i>
  </separator>
  <separator name="External order field" >
   <i name="OFIELD_KAPPA">      0.00000000</i>
   <v name="OFIELD_K">      0.00000000      0.00000000      0.00000000</v>
   <i name="OFIELD_Q6_NEAR">      0.00000000</i>
   <i name="OFIELD_Q6_FAR">      0.00000000</i>
   <i name="OFIELD_A">      0.00000000</i>
  </separator>
  <separator name="optional k-points parameters" >
   <i type="int" name="KPOINTS_OPT_MODE">     1</i>
   <i type="logical" name="LKPOINTS_OPT"> F  </i>
  </separator>
 </parameters>
 <atominfo>
  <atoms>     119 </atoms>
  <types>       2 </types>
  <array name="atoms" >
   <dimension dim="1">ion</dimension>
   <field type="string">element</field>
   <field type="int">atomtype</field>
   <set>
    <rc><c>Ga</c><c>   1</c></rc>
    <rc><c>Ga</c><c>   1</c></rc>
    <rc><c>Ga</c><c>   1</c></rc>
    <rc><c>Ga</c><c>   1</c></rc>
    <rc><c>Ga</c><c>   1</c></rc>
    <rc><c>Ga</c><c>   1</c></rc>
    <rc><c>Ga</c><c>   1</c></rc>
    <rc><c>Ga</c><c>   1</c></rc>
    <rc><c>Ga</c><c>   1</c></rc>
    <rc><c>Ga</c><c>   1</c></rc>
    <rc><c>Ga</c><c>   1</c></rc>
    <rc><c>Ga</c><c>   1</c></rc>
    <rc><c>Ga</c><c>   1</c></rc>
    <rc><c>Ga</c><c>   1</c></rc>
    <rc><c>Ga</c><c>   1</c></rc>
    <rc><c>Ga</c><c>   1</c></rc>
    <rc><c>Ga</c><c>   1</c></rc>
    <rc><c>Ga</c><c>   1</c></rc>
    <rc><c>Ga</c><c>   1</c></rc>
    <rc><c>Ga</c><c>   1</c></rc>
    <rc><c>Ga</c><c>   1</c></rc>
    <rc><c>Ga</c><c>   1</c></rc>
    <rc><c>Ga</c><c>   1</c></rc>
    <rc><c>Ga</c><c>   1</c></rc>
    <rc><c>Ga</c><c>   1</c></rc>
    <rc><c>Ga</c><c>   1</c></rc>
    <rc><c>Ga</c><c>   1</c></rc>
    <rc><c>Ga</c><c>   1</c></rc>
    <rc><c>Ga</c><c>   1</c></rc>
    <rc><c>Ga</c><c>   1</c></rc>
    <rc><c>Ga</c><c>   1</c></rc>
    <rc><c>Ga</c><c>   1</c></rc>
    <rc><c>Ga</c><c>   1</c></rc>
    <rc><c>Ga</c><c>   1</c></rc>
    <rc><c>Ga</c><c>   1</c></rc>
    <rc><c>Ga</c><c>   1</c></rc>
    <rc><c>Ga</c><c>   1</c></rc>
    <rc><c>Ga</c><c>   1</c></rc>
    <rc><c>Ga</c><c>   1</c></rc>
    <rc><c>Ga</c><c>   1</c></rc>
    <rc><c>Ga</c><c>   1</c></rc>
    <rc><c>Ga</c><c>   1</c></rc>
    <rc><c>Ga</c><c>   1</c></rc>
    <rc><c>Ga</c><c>   1</c></rc>
    <rc><c>Ga</c><c>   1</c></rc>
    <rc><c>Ga</c><c>   1</c></rc>
    <rc><c>Ga</c><c>   1</c></rc>
    <rc><c>O </c><c>   2</c></rc>
    <rc><c>O </c><c>   2</c></rc>
    <rc><c>O </c><c>   2</c></rc>
    <rc><c>O </c><c>   2</c></rc>
    <rc><c>O </c><c>   2</c></rc>
    <rc><c>O </c><c>   2</c></rc>
    <rc><c>O </c><c>   2</c></rc>
    <rc><c>O </c><c>   2</c></rc>
    <rc><c>O </c><c>   2</c></rc>
    <rc><c>O </c><c>   2</c></rc>
    <rc><c>O </c><c>   2</c></rc>
    <rc><c>O </c><c>   2</c></rc>
    <rc><c>O </c><c>   2</c></rc>
    <rc><c>O </c><c>   2</c></rc>
    <rc><c>O </c><c>   2</c></rc>
    <rc><c>O </c><c>   2</c></rc>
    <rc><c>O </c><c>   2</c></rc>
    <rc><c>O </c><c>   2</c></rc>
    <rc><c>O </c><c>   2</c></rc>
    <rc><c>O </c><c>   2</c></rc>
    <rc><c>O </c><c>   2</c></rc>
    <rc><c>O </c><c>   2</c></rc>
    <rc><c>O </c><c>   2</c></rc>
    <rc><c>O </c><c>   2</c></rc>
    <rc><c>O </c><c>   2</c></rc>
    <rc><c>O </c><c>   2</c></rc>
    <rc><c>O </c><c>   2</c></rc>
    <rc><c>O </c><c>   2</c></rc>
    <rc><c>O </c><c>   2</c></rc>
    <rc><c>O </c><c>   2</c></rc>
    <rc><c>O </c><c>   2</c></rc>
    <rc><c>O </c><c>   2</c></rc>
    <rc><c>O </c><c>   2</c></rc>
    <rc><c>O </c><c>   2</c></rc>
    <rc><c>O </c><c>   2</c></rc>
    <rc><c>O </c><c>   2</c></rc>
    <rc><c>O </c><c>   2</c></rc>
    <rc><c>O </c><c>   2</c></rc>
    <rc><c>O </c><c>   2</c></rc>
    <rc><c>O </c><c>   2</c></rc>
    <rc><c>O </c><c>   2</c></rc>
    <rc><c>O </c><c>   2</c></rc>
    <rc><c>O </c><c>   2</c></rc>
    <rc><c>O </c><c>   2</c></rc>
    <rc><c>O </c><c>   2</c></rc>
    <rc><c>O </c><c>   2</c></rc>
    <rc><c>O </c><c>   2</c></rc>
    <rc><c>O </c><c>   2</c></rc>
    <rc><c>O </c><c>   2</c></rc>
    <rc><c>O </c><c>   2</c></rc>
    <rc><c>O </c><c>   2</c></rc>
    <rc><c>O </c><c>   2</c></rc>
    <rc><c>O </c><c>   2</c></rc>
    <rc><c>O </c><c>   2</c></rc>
    <rc><c>O </c><c>   2</c></rc>
    <rc><c>O </c><c>   2</c></rc>
    <rc><c>O </c><c>   2</c></rc>
    <rc><c>O </c><c>   2</c></rc>
    <rc><c>O </c><c>   2</c></rc>
    <rc><c>O </c><c>   2</c></rc>
    <rc><c>O </c><c>   2</c></rc>
    <rc><c>O </c><c>   2</c></rc>
    <rc><c>O </c><c>   2</c></rc>
    <rc><c>O </c><c>   2</c></rc>
    <rc><c>O </c><c>   2</c></rc>
    <rc><c>O </c><c>   2</c></rc>
    <rc><c>O </c><c>   2</c></rc>
    <rc><c>O </c><c>   2</c></rc>
    <rc><c>O </c><c>   2</c></rc>
    <rc><c>O </c><c>   2</c></rc>
    <rc><c>O </c><c>   2</c></rc>
    <rc><c>O </c><c>   2</c></rc>
   </set>
  </array>
  <array name="atomtypes" >
   <dimension dim="1">type</dimension>
   <field type="int">atomspertype</field>
   <field type="string">element</field>
   <field>mass</field>
   <field>valence</field>
   <field type="string">pseudopotential</field>
   <set>
    <rc><c>  47</c><c>Ga</c><c>     69.72300000</c><c>     13.00000000</c><c>  PAW_PBE Ga_d 06Jul2010                </c></rc>
    <rc><c>  72</c><c>O </c><c>     16.00000000</c><c>      6.00000000</c><c>  PAW_PBE O 08Apr2002                   </c></rc>
   </set>
  </array>
 </atominfo>
 <structure name="initialpos" >
  <crystal>
   <varray name="basis" >
    <v>       0.00000000      12.28047342       0.00000000 </v>
    <v>       9.14270205       0.00000000       0.00000000 </v>
    <v>       0.00000000      -2.76826177     -11.30069772 </v>
   </varray>
   <i name="volume">   1268.80515525 </i>
   <varray name="rec_basis" >
    <v>       0.00000000       0.08143009      -0.01994742 </v>
    <v>       0.10937686      -0.00000000       0.00000000 </v>
    <v>       0.00000000       0.00000000      -0.08849011 </v>
   </varray>
  </crystal>
  <varray name="positions" >
   <v>       0.65883830       0.00000000       0.15736517 </v>
   <v>       0.65883830       0.00000000       0.65736517 </v>
   <v>       0.65883830       0.33333333       0.15736517 </v>
   <v>       0.65883830       0.33333333       0.65736517 </v>
   <v>       0.65883830       0.66666667       0.15736517 </v>
   <v>       0.65883830       0.66666667       0.65736517 </v>
   <v>       0.84116170       0.16666667       0.34263483 </v>
   <v>       0.84116170       0.16666667       0.84263483 </v>
   <v>       0.84116170       0.50000000       0.34263483 </v>
   <v>       0.84116170       0.50000000       0.84263483 </v>
   <v>       0.84116170       0.83333333       0.34263483 </v>
   <v>       0.84116170       0.83333333       0.84263483 </v>
   <v>       0.59047440       0.16666667       0.39739300 </v>
   <v>       0.59047440       0.16666667       0.89739300 </v>
   <v>       0.59047440       0.50000000       0.39739300 </v>
   <v>       0.59047440       0.50000000       0.89739300 </v>
   <v>       0.59047440       0.83333333       0.39739300 </v>
   <v>       0.59047440       0.83333333       0.89739300 </v>
   <v>       0.90952560       0.00000000       0.10260700 </v>
   <v>       0.90952560       0.00000000       0.60260700 </v>
   <v>       0.90952560       0.33333333       0.10260700 </v>
   <v>       0.90952560       0.33333333       0.60260700 </v>
   <v>       0.90952560       0.66666667       0.10260700 </v>
   <v>       0.90952560       0.66666667       0.60260700 </v>
   <v>       0.15883830       0.16666667       0.15736517 </v>
   <v>       0.15883830       0.16666667       0.65736517 </v>
   <v>       0.15883830       0.50000000       0.15736517 </v>
   <v>       0.15883830       0.50000000       0.65736517 </v>
   <v>       0.15883830       0.83333333       0.15736517 </v>
   <v>       0.15883830       0.83333333       0.65736517 </v>
   <v>       0.34116170       0.00000000       0.34263483 </v>
   <v>       0.34116170       0.00000000       0.84263483 </v>
   <v>       0.34116170       0.33333333       0.84263483 </v>
   <v>       0.34116170       0.66666667       0.34263483 </v>
   <v>       0.34116170       0.66666667       0.84263483 </v>
   <v>       0.09047440       0.00000000       0.39739300 </v>
   <v>       0.09047440       0.00000000       0.89739300 </v>
   <v>       0.09047440       0.33333333       0.39739300 </v>
   <v>       0.09047440       0.33333333       0.89739300 </v>
   <v>       0.09047440       0.66666667       0.39739300 </v>
   <v>       0.09047440       0.66666667       0.89739300 </v>
   <v>       0.40952560       0.16666667       0.10260700 </v>
   <v>       0.40952560       0.16666667       0.60260700 </v>
   <v>       0.40952560       0.50000000       0.10260700 </v>
   <v>       0.40952560       0.50000000       0.60260700 </v>
   <v>       0.40952560       0.83333333       0.10260700 </v>
   <v>       0.40952560       0.83333333       0.60260700 </v>
   <v>       0.99646913       0.16666667       0.12833205 </v>
   <v>       0.99646913       0.16666667       0.62833205 </v>
   <v>       0.99646913       0.50000000       0.12833205 </v>
   <v>       0.99646913       0.50000000       0.62833205 </v>
   <v>       0.99646913       0.83333333       0.12833205 </v>
   <v>       0.99646913       0.83333333       0.62833205 </v>
   <v>       0.50353087       0.00000000       0.37166795 </v>
   <v>       0.50353087       0.00000000       0.87166795 </v>
   <v>       0.50353087       0.33333333       0.37166795 </v>
   <v>       0.50353087       0.33333333       0.87166795 </v>
   <v>       0.50353087       0.66666667       0.37166795 </v>
   <v>       0.50353087       0.66666667       0.87166795 </v>
   <v>       0.67337106       0.16666667       0.28161508 </v>
   <v>       0.67337106       0.16666667       0.78161508 </v>
   <v>       0.67337106       0.50000000       0.28161508 </v>
   <v>       0.67337106       0.50000000       0.78161508 </v>
   <v>       0.67337106       0.83333333       0.28161508 </v>
   <v>       0.67337106       0.83333333       0.78161508 </v>
   <v>       0.82662894       0.00000000       0.21838492 </v>
   <v>       0.82662894       0.00000000       0.71838492 </v>
   <v>       0.82662894       0.33333333       0.21838492 </v>
   <v>       0.82662894       0.33333333       0.71838492 </v>
   <v>       0.82662894       0.66666667       0.21838492 </v>
   <v>       0.82662894       0.66666667       0.71838492 </v>
   <v>       0.83549502       0.00000000       0.44542296 </v>
   <v>       0.83549502       0.00000000       0.94542296 </v>
   <v>       0.83549502       0.33333333       0.44542296 </v>
   <v>       0.83549502       0.33333333       0.94542296 </v>
   <v>       0.83549502       0.66666667       0.44542296 </v>
   <v>       0.83549502       0.66666667       0.94542296 </v>
   <v>       0.66450498       0.16666667       0.05457704 </v>
   <v>       0.66450498       0.16666667       0.55457704 </v>
   <v>       0.66450498       0.50000000       0.05457704 </v>
   <v>       0.66450498       0.50000000       0.55457704 </v>
   <v>       0.66450498       0.83333333       0.05457704 </v>
   <v>       0.66450498       0.83333333       0.55457704 </v>
   <v>       0.49646913       0.00000000       0.12833205 </v>
   <v>       0.49646913       0.00000000       0.62833205 </v>
   <v>       0.49646913       0.33333333       0.12833205 </v>
   <v>       0.49646913       0.33333333       0.62833205 </v>
   <v>       0.49646913       0.66666667       0.12833205 </v>
   <v>       0.49646913       0.66666667       0.62833205 </v>
   <v>       0.00353087       0.16666667       0.37166795 </v>
   <v>       0.00353087       0.16666667       0.87166795 </v>
   <v>       0.00353087       0.50000000       0.37166795 </v>
   <v>       0.00353087       0.50000000       0.87166795 </v>
   <v>       0.00353087       0.83333333       0.37166795 </v>
   <v>       0.00353087       0.83333333       0.87166795 </v>
   <v>       0.17337106       0.00000000       0.28161508 </v>
   <v>       0.17337106       0.00000000       0.78161508 </v>
   <v>       0.17337106       0.33333333       0.28161508 </v>
   <v>       0.17337106       0.33333333       0.78161508 </v>
   <v>       0.17337106       0.66666667       0.28161508 </v>
   <v>       0.17337106       0.66666667       0.78161508 </v>
   <v>       0.32662894       0.16666667       0.21838492 </v>
   <v>       0.32662894       0.16666667       0.71838492 </v>
   <v>       0.32662894       0.50000000       0.21838492 </v>
   <v>       0.32662894       0.50000000       0.71838492 </v>
   <v>       0.32662894       0.83333333       0.21838492 </v>
   <v>       0.32662894       0.83333333       0.71838492 </v>
   <v>       0.33549502       0.16666667       0.44542296 </v>
   <v>       0.33549502       0.16666667       0.94542296 </v>
   <v>       0.33549502       0.50000000       0.44542296 </v>
   <v>       0.33549502       0.50000000       0.94542296 </v>
   <v>       0.33549502       0.83333333       0.44542296 </v>
   <v>       0.33549502       0.83333333       0.94542296 </v>
   <v>       0.16450498       0.00000000       0.05457704 </v>
   <v>       0.16450498       0.00000000       0.55457704 </v>
   <v>       0.16450498       0.33333333       0.05457704 </v>
   <v>       0.16450498       0.33333333       0.55457704 </v>
   <v>       0.16450498       0.66666667       0.05457704 </v>
   <v>       0.16450498       0.66666667       0.55457704 </v>
  </varray>
 </structure>
 <calculation>
  <scstep>
   <time name="dav">    2.25    2.25</time>
   <time name="total">    2.39    2.38</time>
   <energy>
    <i name="alphaZ">   5383.97153279 </i>
    <i name="ewald"> -86533.86774601 </i>
    <i name="hartreedc"> -33521.19275718 </i>
    <i name="XCdc">   4100.33921513 </i>
    <i name="pawpsdc"> 100299.88141059 </i>
    <i name="pawaedc">-116106.37837638 </i>
    <i name="eentropy">     -0.01375862 </i>
    <i name="bandstr">  16109.56406059 </i>
    <i name="atom"> 132123.29149048 </i>
    <i name="e_fr_energy">  21855.59507138 </i>
    <i name="e_wo_entrp">  21855.60883001 </i>
    <i name="e_0_energy">  21855.60195069 </i>
   </energy>
  </scstep>
  <scstep>
   <time name="dav">    1.69    1.69</time>
   <time name="total">    1.69    1.69</time>
   <energy>
    <i name="e_fr_energy">   4854.46332824 </i>
    <i name="e_wo_entrp">   4854.48684928 </i>
    <i name="e_0_energy">   4854.47508876 </i>
   </energy>
  </scstep>
  <scstep>
   <time name="dav">    2.09    2.09</time>
   <time name="total">    2.09    2.10</time>
   <energy>
    <i name="e_fr_energy">   -141.90615582 </i>
    <i name="e_wo_entrp">   -141.88665841 </i>
    <i name="e_0_energy">   -141.89640711 </i>
   </energy>
  </scstep>
  <scstep>
   <time name="dav">    2.01    2.01</time>
   <time name="total">    2.01    2.01</time>
   <energy>
    <i name="e_fr_energy">   -763.83320937 </i>
    <i name="e_wo_entrp">   -763.80064213 </i>
    <i name="e_0_energy">   -763.81692575 </i>
   </energy>
  </scstep>
  <scstep>
   <time name="dav">    2.26    2.26</time>
   <time name="total">    2.53    2.53</time>
   <energy>
    <i name="e_fr_energy">   -806.09171294 </i>
    <i name="e_wo_entrp">   -806.05884420 </i>
    <i name="e_0_energy">   -806.07527857 </i>
   </energy>
  </scstep>
  <scstep>
   <time name="diag">    0.24    0.24</time>
   <time name="diis">    2.51    2.51</time>
   <time name="orth">    0.03    0.03</time>
   <time name="total">    3.17    3.17</time>
   <energy>
    <i name="e_fr_energy">   -696.14194631 </i>
    <i name="e_wo_entrp">   -696.13572411 </i>
    <i name="e_0_energy">   -696.13883521 </i>
   </energy>
  </scstep>
  <scstep>
   <time name="diag">    0.24    0.24</time>
   <time name="diis">    2.63    2.63</time>
   <time name="orth">    0.03    0.03</time>
   <time name="total">    3.29    3.29</time>
   <energy>
    <i name="e_fr_energy">   -702.61244393 </i>
    <i name="e_wo_entrp">   -702.58363088 </i>
    <i name="e_0_energy">   -702.59803741 </i>
   </energy>
  </scstep>
  <scstep>
   <time name="diag">    0.24    0.24</time>
   <time name="diis">    2.96    2.96</time>
   <time name="orth">    0.03    0.03</time>
   <time name="total">    3.62    3.62</time>
   <energy>
    <i name="e_fr_energy">   -699.25401713 </i>
    <i name="e_wo_entrp">   -699.22779915 </i>
    <i name="e_0_energy">   -699.24090814 </i>
   </energy>
  </scstep>
  <scstep>
   <time name="diag">    0.24    0.24</time>
   <time name="diis">    2.66    2.66</time>
   <time name="orth">    0.03    0.03</time>
   <time name="total">    3.32    3.32</time>
   <energy>
    <i name="e_fr_energy">   -698.72232765 </i>
    <i name="e_wo_entrp">   -698.69981000 </i>
    <i name="e_0_energy">   -698.71106883 </i>
   </energy>
  </scstep>
  <scstep>
   <time name="diag">    0.24    0.24</time>
   <time name="diis">    2.26    2.26</time>
   <time name="orth">    0.03    0.03</time>
   <time name="total">    2.92    2.92</time>
   <energy>
    <i name="e_fr_energy">   -702.72534997 </i>
    <i name="e_wo_entrp">   -702.72534997 </i>
    <i name="e_0_energy">   -702.72534997 </i>
   </energy>
  </scstep>
  <scstep>
   <time name="diag">    0.24    0.24</time>
   <time name="diis">    2.67    2.67</time>
   <time name="orth">    0.03    0.03</time>
   <time name="total">    3.85    3.85</time>
   <energy>
    <i name="e_fr_energy">   -698.41467479 </i>
    <i name="e_wo_entrp">   -698.38101853 </i>
    <i name="e_0_energy">   -698.39784666 </i>
   </energy>
  </scstep>
  <scstep>
   <time name="diag">    0.24    0.24</time>
   <time name="diis">    2.78    2.78</time>
   <time name="orth">    0.03    0.03</time>
   <time name="total">    3.45    3.45</time>
   <energy>
    <i name="e_fr_energy">   -698.23493092 </i>
    <i name="e_wo_entrp">   -698.22422512 </i>
    <i name="e_0_energy">   -698.22957802 </i>
   </energy>
  </scstep>
  <scstep>
   <time name="diag">    0.24    0.24</time>
   <time name="diis">    2.60    2.60</time>
   <time name="orth">    0.03    0.03</time>
   <time name="total">    3.26    3.27</time>
   <energy>
    <i name="e_fr_energy">   -698.07289111 </i>
    <i name="e_wo_entrp">   -698.04618362 </i>
    <i name="e_0_energy">   -698.05953736 </i>
   </energy>
  </scstep>
  <scstep>
   <time name="diag">    0.24    0.24</time>
   <time name="diis">    2.81    2.81</time>
   <time name="orth">    0.03    0.03</time>
   <time name="total">    3.47    3.47</time>
   <energy>
    <i name="e_fr_energy">   -698.02260650 </i>
    <i name="e_wo_entrp">   -697.99536513 </i>
    <i name="e_0_energy">   -698.00898582 </i>
   </energy>
  </scstep>
  <scstep>
   <time name="diag">    0.24    0.24</time>
   <time name="diis">    2.62    2.62</time>
   <time name="orth">    0.03    0.03</time>
   <time name="total">    3.29    3.29</time>
   <energy>
    <i name="e_fr_energy">   -697.90688915 </i>
    <i name="e_wo_entrp">   -697.87804576 </i>
    <i name="e_0_energy">   -697.89246746 </i>
   </energy>
  </scstep>
  <scstep>
   <time name="diag">    0.24    0.24</time>
   <time name="diis">    2.47    2.47</time>
   <time name="orth">    0.03    0.03</time>
   <time name="total">    3.14    3.14</time>
   <energy>
    <i name="e_fr_energy">   -697.87484726 </i>
    <i name="e_wo_entrp">   -697.84398030 </i>
    <i name="e_0_energy">   -697.85941378 </i>
   </energy>
  </scstep>
  <scstep>
   <time name="diag">    0.24    0.24</time>
   <time name="diis">    2.59    2.59</time>
   <time name="orth">    0.03    0.03</time>
   <time name="total">    3.27    3.27</time>
   <energy>
    <i name="e_fr_energy">   -697.85564830 </i>
    <i name="e_wo_entrp">   -697.82136005 </i>
    <i name="e_0_energy">   -697.83850418 </i>
   </energy>
  </scstep>
  <scstep>
   <time name="diag">    0.24    0.24</time>
   <time name="diis">    2.78    2.78</time>
   <time name="orth">    0.03    0.03</time>
   <time name="total">    3.46    3.46</time>
   <energy>
    <i name="e_fr_energy">   -697.85142924 </i>
    <i name="e_wo_entrp">   -697.81669866 </i>
    <i name="e_0_energy">   -697.83406395 </i>
   </energy>
  </scstep>
  <scstep>
   <time name="diag">    0.24    0.24</time>
   <time name="diis">    2.44    2.44</time>
   <time name="orth">    0.03    0.03</time>
   <time name="total">    3.12    3.12</time>
   <energy>
    <i name="e_fr_energy">   -697.85217866 </i>
    <i name="e_wo_entrp">   -697.81601244 </i>
    <i name="e_0_energy">   -697.83409555 </i>
   </energy>
  </scstep>
  <scstep>
   <time name="diag">    0.24    0.24</time>
   <time name="diis">    2.53    2.53</time>
   <time name="orth">    0.03    0.03</time>
   <time name="total">    3.21    3.21</time>
   <energy>
    <i name="e_fr_energy">   -697.85092832 </i>
    <i name="e_wo_entrp">   -697.81582039 </i>
    <i name="e_0_energy">   -697.83337436 </i>
   </energy>
  </scstep>
  <scstep>
   <time name="diag">    0.24    0.24</time>
   <time name="diis">    2.22    2.22</time>
   <time name="orth">    0.03    0.03</time>
   <time name="total">    2.91    2.91</time>
   <energy>
    <i name="e_fr_energy">   -697.85100865 </i>
    <i name="e_wo_entrp">   -697.81588943 </i>
    <i name="e_0_energy">   -697.83344904 </i>
   </energy>
  </scstep>
  <scstep>
   <time name="diag">    0.24    0.24</time>
   <time name="diis">    1.95    1.96</time>
   <time name="orth">    0.03    0.03</time>
   <time name="total">    2.64    2.65</time>
   <energy>
    <i name="e_fr_energy">   -697.85070624 </i>
    <i name="e_wo_entrp">   -697.81514030 </i>
    <i name="e_0_energy">   -697.83292327 </i>
   </energy>
  </scstep>
  <scstep>
   <time name="diag">    0.24    0.24</time>
   <time name="diis">    1.74    1.74</time>
   <time name="orth">    0.03    0.03</time>
   <time name="total">    2.43    2.43</time>
   <energy>
    <i name="e_fr_energy">   -697.85079799 </i>
    <i name="e_wo_entrp">   -697.81534039 </i>
    <i name="e_0_energy">   -697.83306919 </i>
   </energy>
  </scstep>
  <scstep>
   <time name="diag">    0.24    0.24</time>
   <time name="diis">    1.52    1.52</time>
   <time name="orth">    0.03    0.03</time>
   <time name="total">    2.21    2.21</time>
   <energy>
    <i name="e_fr_energy">   -697.85073045 </i>
    <i name="e_wo_entrp">   -697.81502851 </i>
    <i name="e_0_energy">   -697.83287948 </i>
   </energy>
  </scstep>
  <scstep>
   <time name="diag">    0.24    0.24</time>
   <time name="diis">    1.20    1.20</time>
   <time name="orth">    0.03    0.03</time>
   <time name="total">    1.90    1.90</time>
   <energy>
    <i name="e_fr_energy">   -697.85075280 </i>
    <i name="e_wo_entrp">   -697.81499441 </i>
    <i name="e_0_energy">   -697.83287361 </i>
   </energy>
  </scstep>
  <scstep>
   <time name="diag">    0.24    0.24</time>
   <time name="diis">    1.11    1.11</time>
   <time name="orth">    0.03    0.03</time>
   <time name="total">    1.82    1.82</time>
   <energy>
    <i name="e_fr_energy">   -697.85073446 </i>
    <i name="e_wo_entrp">   -697.81506719 </i>
    <i name="e_0_energy">   -697.83290083 </i>
   </energy>
  </scstep>
  <scstep>
   <time name="diag">    0.24    0.24</time>
   <time name="diis">    1.08    1.08</time>
   <time name="orth">    0.03    0.03</time>
   <time name="total">    1.46    1.46</time>
   <energy>
    <i name="alphaZ">   5383.97153279 </i>
    <i name="ewald"> -86533.86774601 </i>
    <i name="hartreedc"> -33975.72171221 </i>
    <i name="XCdc">   4164.03483866 </i>
    <i name="pawpsdc"> 117970.65259455 </i>
    <i name="pawaedc">-134031.24388781 </i>
    <i name="eentropy">     -0.03565894 </i>
    <i name="bandstr">  -5798.93218861 </i>
    <i name="atom"> 132123.29149048 </i>
    <i name="e_fr_energy">   -697.85073710 </i>
    <i name="e_wo_entrp">   -697.81507816 </i>
    <i name="e_0_energy">   -697.83290763 </i>
   </energy>
  </scstep>
  <structure>
   <crystal>
    <varray name="basis" >
     <v>       0.00000000      12.28047342       0.00000000 </v>
     <v>       9.14270205       0.00000000       0.00000000 </v>
     <v>       0.00000000      -2.76826177     -11.30069772 </v>
    </varray>
    <i name="volume">   1268.80515525 </i>
    <varray name="rec_basis" >
     <v>       0.00000000       0.08143009      -0.01994742 </v>
     <v>       0.10937686      -0.00000000       0.00000000 </v>
     <v>       0.00000000       0.00000000      -0.08849011 </v>
    </varray>
   </crystal>
   <varray name="positions" >
    <v>       0.65883830       0.00000000       0.15736517 </v>
    <v>       0.65883830       0.00000000       0.65736517 </v>
    <v>       0.65883830       0.33333333       0.15736517 </v>
    <v>       0.65883830       0.33333333       0.65736517 </v>
    <v>       0.65883830       0.66666667       0.15736517 </v>
    <v>       0.65883830       0.66666667       0.65736517 </v>
    <v>       0.84116170       0.16666667       0.34263483 </v>
    <v>       0.84116170       0.16666667       0.84263483 </v>
    <v>       0.84116170       0.50000000       0.34263483 </v>
    <v>       0.84116170       0.50000000       0.84263483 </v>
    <v>       0.84116170       0.83333333       0.34263483 </v>
    <v>       0.84116170       0.83333333       0.84263483 </v>
    <v>       0.59047440       0.16666667       0.39739300 </v>
    <v>       0.59047440       0.16666667       0.89739300 </v>
    <v>       0.59047440       0.50000000       0.39739300 </v>
    <v>       0.59047440       0.50000000       0.89739300 </v>
    <v>       0.59047440       0.83333333       0.39739300 </v>
    <v>       0.59047440       0.83333333       0.89739300 </v>
    <v>       0.90952560       0.00000000       0.10260700 </v>
    <v>       0.90952560       0.00000000       0.60260700 </v>
    <v>       0.90952560       0.33333333       0.10260700 </v>
    <v>       0.90952560       0.33333333       0.60260700 </v>
    <v>       0.90952560       0.66666667       0.10260700 </v>
    <v>       0.90952560       0.66666667       0.60260700 </v>
    <v>       0.15883830       0.16666667       0.15736517 </v>
    <v>       0.15883830       0.16666667       0.65736517 </v>
    <v>       0.15883830       0.50000000       0.15736517 </v>
    <v>       0.15883830       0.50000000       0.65736517 </v>
    <v>       0.15883830       0.83333333       0.15736517 </v>
    <v>       0.15883830       0.83333333       0.65736517 </v>
    <v>       0.34116170       0.00000000       0.34263483 </v>
    <v>       0.34116170       0.00000000       0.84263483 </v>
    <v>       0.34116170       0.33333333       0.84263483 </v>
    <v>       0.34116170       0.66666667       0.34263483 </v>
    <v>       0.34116170       0.66666667       0.84263483 </v>
    <v>       0.09047440       0.00000000       0.39739300 </v>
    <v>       0.09047440       0.00000000       0.89739300 </v>
    <v>       0.09047440       0.33333333       0.39739300 </v>
    <v>       0.09047440       0.33333333       0.89739300 </v>
    <v>       0.09047440       0.66666667       0.39739300 </v>
    <v>       0.09047440       0.66666667       0.89739300 </v>
    <v>       0.40952560       0.16666667       0.10260700 </v>
    <v>       0.40952560       0.16666667       0.60260700 </v>
    <v>       0.40952560       0.50000000       0.10260700 </v>
    <v>       0.40952560       0.50000000       0.60260700 </v>
    <v>       0.40952560       0.83333333       0.10260700 </v>
    <v>       0.40952560       0.83333333       0.60260700 </v>
    <v>       0.99646913       0.16666667       0.12833205 </v>
    <v>       0.99646913       0.16666667       0.62833205 </v>
    <v>       0.99646913       0.50000000       0.12833205 </v>
    <v>       0.99646913       0.50000000       0.62833205 </v>
    <v>       0.99646913       0.83333333       0.12833205 </v>
    <v>       0.99646913       0.83333333       0.62833205 </v>
    <v>       0.50353087       0.00000000       0.37166795 </v>
    <v>       0.50353087       0.00000000       0.87166795 </v>
    <v>       0.50353087       0.33333333       0.37166795 </v>
    <v>       0.50353087       0.33333333       0.87166795 </v>
    <v>       0.50353087       0.66666667       0.37166795 </v>
    <v>       0.50353087       0.66666667       0.87166795 </v>
    <v>       0.67337106       0.16666667       0.28161508 </v>
    <v>       0.67337106       0.16666667       0.78161508 </v>
    <v>       0.67337106       0.50000000       0.28161508 </v>
    <v>       0.67337106       0.50000000       0.78161508 </v>
    <v>       0.67337106       0.83333333       0.28161508 </v>
    <v>       0.67337106       0.83333333       0.78161508 </v>
    <v>       0.82662894       0.00000000       0.21838492 </v>
    <v>       0.82662894       0.00000000       0.71838492 </v>
    <v>       0.82662894       0.33333333       0.21838492 </v>
    <v>       0.82662894       0.33333333       0.71838492 </v>
    <v>       0.82662894       0.66666667       0.21838492 </v>
    <v>       0.82662894       0.66666667       0.71838492 </v>
    <v>       0.83549502       0.00000000       0.44542296 </v>
    <v>       0.83549502       0.00000000       0.94542296 </v>
    <v>       0.83549502       0.33333333       0.44542296 </v>
    <v>       0.83549502       0.33333333       0.94542296 </v>
    <v>       0.83549502       0.66666667       0.44542296 </v>
    <v>       0.83549502       0.66666667       0.94542296 </v>
    <v>       0.66450498       0.16666667       0.05457704 </v>
    <v>       0.66450498       0.16666667       0.55457704 </v>
    <v>       0.66450498       0.50000000       0.05457704 </v>
    <v>       0.66450498       0.50000000       0.55457704 </v>
    <v>       0.66450498       0.83333333       0.05457704 </v>
    <v>       0.66450498       0.83333333       0.55457704 </v>
    <v>       0.49646913       0.00000000       0.12833205 </v>
    <v>       0.49646913       0.00000000       0.62833205 </v>
    <v>       0.49646913       0.33333333       0.12833205 </v>
    <v>       0.49646913       0.33333333       0.62833205 </v>
    <v>       0.49646913       0.66666667       0.12833205 </v>
    <v>       0.49646913       0.66666667       0.62833205 </v>
    <v>       0.00353087       0.16666667       0.37166795 </v>
    <v>       0.00353087       0.16666667       0.87166795 </v>
    <v>       0.00353087       0.50000000       0.37166795 </v>
    <v>       0.00353087       0.50000000       0.87166795 </v>
    <v>       0.00353087       0.83333333       0.37166795 </v>
    <v>       0.00353087       0.83333333       0.87166795 </v>
    <v>       0.17337106       0.00000000       0.28161508 </v>
    <v>       0.17337106       0.00000000       0.78161508 </v>
    <v>       0.17337106       0.33333333       0.28161508 </v>
    <v>       0.17337106       0.33333333       0.78161508 </v>
    <v>       0.17337106       0.66666667       0.28161508 </v>
    <v>       0.17337106       0.66666667       0.78161508 </v>
    <v>       0.32662894       0.16666667       0.21838492 </v>
    <v>       0.32662894       0.16666667       0.71838492 </v>
    <v>       0.32662894       0.50000000       0.21838492 </v>
    <v>       0.32662894       0.50000000       0.71838492 </v>
    <v>       0.32662894       0.83333333       0.21838492 </v>
    <v>       0.32662894       0.83333333       0.71838492 </v>
    <v>       0.33549502       0.16666667       0.44542296 </v>
    <v>       0.33549502       0.16666667       0.94542296 </v>
    <v>       0.33549502       0.50000000       0.44542296 </v>
    <v>       0.33549502       0.50000000       0.94542296 </v>
    <v>       0.33549502       0.83333333       0.44542296 </v>
    <v>       0.33549502       0.83333333       0.94542296 </v>
    <v>       0.16450498       0.00000000       0.05457704 </v>
    <v>       0.16450498       0.00000000       0.55457704 </v>
    <v>       0.16450498       0.33333333       0.05457704 </v>
    <v>       0.16450498       0.33333333       0.55457704 </v>
    <v>       0.16450498       0.66666667       0.05457704 </v>
    <v>       0.16450498       0.66666667       0.55457704 </v>
   </varray>
  </structure>
  <varray name="forces" >
   <v>       0.06005337      -0.22712129      -0.07762368 </v>
   <v>       0.08063451      -0.20222964       0.27034143 </v>
   <v>       0.00000000      -0.26868535      -0.14413330 </v>
   <v>       0.00000000      -0.32267214       0.37986686 </v>
   <v>      -0.06005337      -0.22712129      -0.07762368 </v>
   <v>      -0.08063451      -0.20222964       0.27034143 </v>
   <v>       0.04034432       0.06524301      -0.03032678 </v>
   <v>       0.01445148       0.04201335      -0.03541330 </v>
   <v>      -0.04034432       0.06524301      -0.03032678 </v>
   <v>      -0.01445148       0.04201335      -0.03541330 </v>
   <v>       0.00000000       0.04722878      -0.02644979 </v>
   <v>       0.00000000       0.03059066      -0.03278094 </v>
   <v>       0.74400156      -0.80199810       0.14570650 </v>
   <v>       0.01571338      -0.04591254      -0.01254628 </v>
   <v>      -0.74400156      -0.80199810       0.14570650 </v>
   <v>      -0.01571338      -0.04591254      -0.01254628 </v>
   <v>       0.00000000      -0.34892708       0.04244340 </v>
   <v>       0.00000000      -0.05185502      -0.02457270 </v>
   <v>       0.05489272       0.11582440      -0.07970404 </v>
   <v>       0.02829534      -0.01102468       0.09095586 </v>
   <v>       0.00000000       0.20567156      -0.14909210 </v>
   <v>       0.00000000      -0.00996946       0.12276190 </v>
   <v>      -0.05489272       0.11582440      -0.07970404 </v>
   <v>      -0.02829534      -0.01102468       0.09095586 </v>
   <v>       0.88176194       1.03150420      -1.23169432 </v>
   <v>       0.11510277       0.14518438       0.16061050 </v>
   <v>      -0.88176194       1.03150420      -1.23169432 </v>
   <v>      -0.11510277       0.14518438       0.16061050 </v>
   <v>       0.00000000       0.10824163      -0.27987045 </v>
   <v>       0.00000000       0.06286302       0.10114175 </v>
   <v>       1.55156334       0.06851724       0.14721399 </v>
   <v>       0.10649934       0.03747032      -0.05878533 </v>
   <v>       0.00000000       0.00029265      -0.04678990 </v>
   <v>      -1.55156334       0.06851724       0.14721399 </v>
   <v>      -0.10649934       0.03747032      -0.05878533 </v>
   <v>       0.16692814       0.26569988       0.20762016 </v>
   <v>       0.03776286       0.06075284      -0.17043937 </v>
   <v>       0.00000000       1.28132979       0.65578166 </v>
   <v>       0.00000000       0.14037054      -0.32734581 </v>
   <v>      -0.16692814       0.26569988       0.20762016 </v>
   <v>      -0.03776286       0.06075284      -0.17043937 </v>
   <v>       0.20196997      -0.81789318      -0.95196961 </v>
   <v>       0.28271744      -0.09243564       1.02618887 </v>
   <v>      -0.20196997      -0.81789318      -0.95196961 </v>
   <v>      -0.28271744      -0.09243564       1.02618887 </v>
   <v>       0.00000000      -0.06736823      -0.22756821 </v>
   <v>       0.00000000       0.08974302       0.28268372 </v>
   <v>      -0.10254738      -0.27975156       0.13684259 </v>
   <v>      -0.02644003      -0.06406077      -0.05847510 </v>
   <v>       0.10254738      -0.27975156       0.13684259 </v>
   <v>       0.02644003      -0.06406077      -0.05847510 </v>
   <v>       0.00000000      -0.15704866       0.05397524 </v>
   <v>       0.00000000      -0.04224958      -0.05079342 </v>
   <v>      -0.29241172       0.35359417      -0.05776587 </v>
   <v>      -0.02301256       0.06409788       0.01595568 </v>
   <v>       0.00000000       0.45012293      -0.01323130 </v>
   <v>       0.00000000       0.07470747      -0.01381320 </v>
   <v>       0.29241172       0.35359417      -0.05776587 </v>
   <v>       0.02301256       0.06409788       0.01595568 </v>
   <v>      -0.15634161       0.32331077       0.22547167 </v>
   <v>      -0.01906501       0.03799351      -0.10754731 </v>
   <v>       0.15634161       0.32331077       0.22547167 </v>
   <v>       0.01906501       0.03799351      -0.10754731 </v>
   <v>       0.00000000       0.14705572       0.05634248 </v>
   <v>       0.00000000       0.04152464      -0.07068722 </v>
   <v>      -0.04480283       0.03447459       0.02694954 </v>
   <v>      -0.02370762       0.07364178      -0.06600794 </v>
   <v>       0.00000000       0.02001873       0.04067709 </v>
   <v>       0.00000000       0.07051009      -0.07129145 </v>
   <v>       0.04480283       0.03447459       0.02694954 </v>
   <v>       0.02370762       0.07364178      -0.06600794 </v>
   <v>      -0.04199588      -0.16582241      -0.09232688 </v>
   <v>      -0.01964400      -0.18532520       0.01983696 </v>
   <v>       0.00000000      -0.12992336      -0.10298584 </v>
   <v>       0.00000000      -0.18785270       0.02514413 </v>
   <v>       0.04199588      -0.16582241      -0.09232688 </v>
   <v>       0.01964400      -0.18532520       0.01983696 </v>
   <v>      -0.01765310       0.23564780       0.12099273 </v>
   <v>      -0.19127242       0.34654526      -0.34915648 </v>
   <v>       0.01765310       0.23564780       0.12099273 </v>
   <v>       0.19127242       0.34654526      -0.34915648 </v>
   <v>       0.00000000       0.24077832       0.09868516 </v>
   <v>       0.00000000       0.28312084      -0.11761174 </v>
   <v>      -0.17088071       0.30573577       0.06642408 </v>
   <v>      -0.20033970       0.24740095      -0.28485445 </v>
   <v>       0.00000000       0.46579242       0.03071821 </v>
   <v>       0.00000000       0.27094302      -0.40274231 </v>
   <v>       0.17088071       0.30573577       0.06642408 </v>
   <v>       0.20033970       0.24740095      -0.28485445 </v>
   <v>      -0.19549670      -0.33075321      -0.03742668 </v>
   <v>      -0.04930065      -0.09301747       0.11396928 </v>
   <v>       0.19549670      -0.33075321      -0.03742668 </v>
   <v>       0.04930065      -0.09301747       0.11396928 </v>
   <v>       0.00000000      -0.14841567       0.00290111 </v>
   <v>       0.00000000      -0.06268383       0.08541370 </v>
   <v>      -0.32277813      -0.36642259       0.02531992 </v>
   <v>      -0.03059565      -0.09163931       0.02655147 </v>
   <v>       0.00000000      -1.26387630       0.55069076 </v>
   <v>       0.00000000      -0.10726703       0.02279416 </v>
   <v>       0.32277813      -0.36642259       0.02531992 </v>
   <v>       0.03059565      -0.09163931       0.02655147 </v>
   <v>      -1.17930131       0.02123596       0.81881720 </v>
   <v>      -0.02280693      -0.09165413      -0.25439312 </v>
   <v>       1.17930131       0.02123596       0.81881720 </v>
   <v>       0.02280693      -0.09165413      -0.25439312 </v>
   <v>       0.00000000       0.05314428       0.09316531 </v>
   <v>       0.00000000      -0.04090297      -0.09233215 </v>
   <v>      -0.69769124      -0.25351830      -0.49456392 </v>
   <v>      -0.01749340      -0.10379124       0.23998760 </v>
   <v>       0.69769124      -0.25351830      -0.49456392 </v>
   <v>       0.01749340      -0.10379124       0.23998760 </v>
   <v>       0.00000000      -0.20901017      -0.15713371 </v>
   <v>       0.00000000      -0.16497791       0.07646899 </v>
   <v>      -0.16219148       0.04964871       0.29520376 </v>
   <v>      -0.05277057       0.07206485      -0.09073956 </v>
   <v>       0.00000000      -0.00515758       0.62358247 </v>
   <v>       0.00000000      -0.04166775      -0.27241212 </v>
   <v>       0.16219148       0.04964871       0.29520376 </v>
   <v>       0.05277057       0.07206485      -0.09073956 </v>
  </varray>
  <varray name="stress" >
   <v>      74.01708228       0.00000000       0.00000000 </v>
   <v>       0.00000000      70.04718781      -2.20825098 </v>
   <v>       0.00000000      -2.20824927      67.82779915 </v>
  </varray>
  <energy>
   <i name="e_fr_energy">   -697.85073710 </i>
   <i name="e_wo_entrp">   -697.81507816 </i>
   <i name="e_0_energy">   -697.83290763 </i>
  </energy>
  <time name="totalsc">   85.49   85.52</time>
 </calculation>
 <calculation>
  <scstep>
   <time name="dav">    1.90    1.90</time>
   <time name="total">    2.28    2.28</time>
   <energy>
    <i name="alphaZ">   5383.97153279 </i>
    <i name="ewald"> -86592.10437147 </i>
    <i name="hartreedc"> -33915.50339118 </i>
    <i name="XCdc">   4164.26625127 </i>
    <i name="pawpsdc"> 117970.66023324 </i>
    <i name="pawaedc">-134031.24977671 </i>
    <i name="eentropy">     -0.03270601 </i>
    <i name="bandstr">  -5799.32199621 </i>
    <i name="atom"> 132123.29149048 </i>
    <i name="e_fr_energy">   -696.02273381 </i>
    <i name="e_wo_entrp">   -695.99002780 </i>
    <i name="e_0_energy">   -696.00638081 </i>
   </energy>
  </scstep>
  <scstep>
   <time name="diag">    0.24    0.24</time>
   <time name="diis">    2.64    2.64</time>
   <time name="orth">    0.03    0.03</time>
   <time name="total">    3.30    3.30</time>
   <energy>
    <i name="e_fr_energy">   -698.42308709 </i>
    <i name="e_wo_entrp">   -698.42250107 </i>
    <i name="e_0_energy">   -698.42279408 </i>
   </energy>
  </scstep>
  <scstep>
   <time name="diag">    0.24    0.24</time>
   <time name="diis">    2.72    2.72</time>
   <time name="orth">    0.03    0.03</time>
   <time name="total">    3.38    3.38</time>
   <energy>
    <i name="e_fr_energy">   -698.44540702 </i>
    <i name="e_wo_entrp">   -698.41118047 </i>
    <i name="e_0_energy">   -698.42829374 </i>
   </energy>
  </scstep>
  <scstep>
   <time name="diag">    0.24    0.24</time>
   <time name="diis">    3.01    3.01</time>
   <time name="orth">    0.03    0.03</time>
   <time name="total">    3.66    3.66</time>
   <energy>
    <i name="e_fr_energy">   -698.48064759 </i>
    <i name="e_wo_entrp">   -698.44517374 </i>
    <i name="e_0_energy">   -698.46291067 </i>
   </energy>
  </scstep>
  <scstep>
   <time name="diag">    0.24    0.24</time>
   <time name="diis">    3.01    3.01</time>
   <time name="orth">    0.03    0.03</time>
   <time name="total">    3.67    3.67</time>
   <energy>
    <i name="e_fr_energy">   -698.42260090 </i>
    <i name="e_wo_entrp">   -698.38423357 </i>
    <i name="e_0_energy">   -698.40341723 </i>
   </energy>
  </scstep>
  <scstep>
   <time name="diag">    0.24    0.24</time>
   <time name="diis">    2.53    2.53</time>
   <time name="orth">    0.03    0.03</time>
   <time name="total">    3.20    3.20</time>
   <energy>
    <i name="e_fr_energy">   -698.39993505 </i>
    <i name="e_wo_entrp">   -698.35436595 </i>
    <i name="e_0_energy">   -698.37715050 </i>
   </energy>
  </scstep>
  <scstep>
   <time name="diag">    0.24    0.24</time>
   <time name="diis">    2.49    2.49</time>
   <time name="orth">    0.03    0.03</time>
   <time name="total">    3.16    3.16</time>
   <energy>
    <i name="e_fr_energy">   -698.35689891 </i>
    <i name="e_wo_entrp">   -698.31404424 </i>
    <i name="e_0_energy">   -698.33547157 </i>
   </energy>
  </scstep>
  <scstep>
   <time name="diag">    0.24    0.24</time>
   <time name="diis">    2.50    2.50</time>
   <time name="orth">    0.03    0.03</time>
   <time name="total">    3.17    3.17</time>
   <energy>
    <i name="e_fr_energy">   -698.33864547 </i>
    <i name="e_wo_entrp">   -698.28439061 </i>
    <i name="e_0_energy">   -698.31151804 </i>
   </energy>
  </scstep>
  <scstep>
   <time name="diag">    0.24    0.24</time>
   <time name="diis">    2.88    2.88</time>
   <time name="orth">    0.03    0.03</time>
   <time name="total">    3.54    3.54</time>
   <energy>
    <i name="e_fr_energy">   -698.33463786 </i>
    <i name="e_wo_entrp">   -698.28484825 </i>
    <i name="e_0_energy">   -698.30974306 </i>
   </energy>
  </scstep>
  <scstep>
   <time name="diag">    0.24    0.24</time>
   <time name="diis">    2.60    2.60</time>
   <time name="orth">    0.03    0.03</time>
   <time name="total">    3.27    3.27</time>
   <energy>
    <i name="e_fr_energy">   -698.33444451 </i>
    <i name="e_wo_entrp">   -698.28356441 </i>
    <i name="e_0_energy">   -698.30900446 </i>
   </energy>
  </scstep>
  <scstep>
   <time name="diag">    0.24    0.24</time>
   <time name="diis">    2.60    2.60</time>
   <time name="orth">    0.03    0.03</time>
   <time name="total">    3.27    3.27</time>
   <energy>
    <i name="e_fr_energy">   -698.33441064 </i>
    <i name="e_wo_entrp">   -698.28292437 </i>
    <i name="e_0_energy">   -698.30866750 </i>
   </energy>
  </scstep>
  <scstep>
   <time name="diag">    0.24    0.24</time>
   <time name="diis">    2.33    2.33</time>
   <time name="orth">    0.03    0.03</time>
   <time name="total">    3.00    3.00</time>
   <energy>
    <i name="e_fr_energy">   -698.33439279 </i>
    <i name="e_wo_entrp">   -698.28321493 </i>
    <i name="e_0_energy">   -698.30880386 </i>
   </energy>
  </scstep>
  <scstep>
   <time name="diag">    0.24    0.24</time>
   <time name="diis">    2.00    2.01</time>
   <time name="orth">    0.03    0.03</time>
   <time name="total">    2.38    2.39</time>
   <energy>
    <i name="alphaZ">   5383.97153279 </i>
    <i name="ewald"> -86592.10437147 </i>
    <i name="hartreedc"> -33922.20962965 </i>
    <i name="XCdc">   4164.41962513 </i>
    <i name="pawpsdc"> 118048.72345562 </i>
    <i name="pawaedc">-134110.52424349 </i>
    <i name="eentropy">     -0.05113176 </i>
    <i name="bandstr">  -5793.85112522 </i>
    <i name="atom"> 132123.29149048 </i>
    <i name="e_fr_energy">   -698.33439757 </i>
    <i name="e_wo_entrp">   -698.28326581 </i>
    <i name="e_0_energy">   -698.30883169 </i>
   </energy>
  </scstep>
  <structure>
   <crystal>
    <varray name="basis" >
     <v>       0.00000000      12.28047342       0.00000000 </v>
     <v>       9.14270205       0.00000000       0.00000000 </v>
     <v>       0.00000000      -2.76826177     -11.30069772 </v>
    </varray>
    <i name="volume">   1268.80515525 </i>
    <varray name="rec_basis" >
     <v>       0.00000000       0.08143009      -0.01994742 </v>
     <v>       0.10937686      -0.00000000       0.00000000 </v>
     <v>       0.00000000       0.00000000      -0.08849011 </v>
    </varray>
   </crystal>
   <varray name="positions" >
    <v>       0.65802077       0.00031688       0.15769655 </v>
    <v>       0.65778371       0.00042548       0.65621108 </v>
    <v>       0.65792150       0.33333333       0.15798047 </v>
    <v>       0.65720516       0.33333333       0.65574352 </v>
    <v>       0.65802077       0.66634979       0.15769655 </v>
    <v>       0.65778371       0.66624119       0.65621108 </v>
    <v>       0.84144718       0.16687955       0.34276429 </v>
    <v>       0.84136082       0.16674292       0.84278601 </v>
    <v>       0.84144718       0.49978712       0.34276429 </v>
    <v>       0.84136082       0.49992374       0.84278601 </v>
    <v>       0.84137269       0.83333333       0.34274774 </v>
    <v>       0.84131342       0.83333333       0.84277477 </v>
    <v>       0.58718361       0.17059249       0.39677098 </v>
    <v>       0.59030611       0.16674958       0.89744656 </v>
    <v>       0.58718361       0.49607418       0.39677098 </v>
    <v>       0.59030611       0.49991709       0.89744656 </v>
    <v>       0.58906283       0.83333333       0.39721181 </v>
    <v>       0.59029434       0.83333333       0.89749790 </v>
    <v>       0.91005731       0.00028965       0.10294726 </v>
    <v>       0.90939476       0.00014930       0.60221871 </v>
    <v>       0.91047703       0.33333333       0.10324347 </v>
    <v>       0.90936830       0.33333333       0.60208293 </v>
    <v>       0.91005731       0.66637702       0.10294726 </v>
    <v>       0.90939476       0.66651736       0.60221871 </v>
    <v>       0.16407574       0.17131940       0.16262327 </v>
    <v>       0.15925408       0.16727402       0.65667952 </v>
    <v>       0.16407574       0.49534727       0.16262327 </v>
    <v>       0.15925408       0.49939265       0.65667952 </v>
    <v>       0.15953284       0.83333333       0.15855994 </v>
    <v>       0.15898792       0.83333333       0.65693340 </v>
    <v>       0.34128920       0.00818703       0.34200637 </v>
    <v>       0.34136547       0.00056196       0.84288578 </v>
    <v>       0.34120788       0.33333333       0.84283458 </v>
    <v>       0.34128920       0.65847964       0.34200637 </v>
    <v>       0.34136547       0.66610471       0.84288578 </v>
    <v>       0.09131838       0.00088082       0.39650667 </v>
    <v>       0.09087708       0.00019926       0.89812061 </v>
    <v>       0.09487691       0.33333333       0.39459347 </v>
    <v>       0.09134084       0.33333333       0.89879044 </v>
    <v>       0.09131838       0.66578585       0.39650667 </v>
    <v>       0.09087708       0.66646741       0.89812061 </v>
    <v>       0.40722868       0.16773239       0.10667096 </v>
    <v>       0.40817496       0.16815846       0.59822620 </v>
    <v>       0.40722868       0.49893428       0.10667096 </v>
    <v>       0.40817496       0.49850820       0.59822620 </v>
    <v>       0.40947994       0.83333333       0.10357849 </v>
    <v>       0.40960612       0.83333333       0.60140022 </v>
    <v>       0.99523847       0.16612556       0.12774786 </v>
    <v>       0.99627374       0.16652715       0.62858168 </v>
    <v>       0.99523847       0.50054110       0.12774786 </v>
    <v>       0.99627374       0.50013951       0.62858168 </v>
    <v>       0.99580024       0.83333333       0.12810162 </v>
    <v>       0.99635204       0.83333333       0.62854888 </v>
    <v>       0.50497552      -0.00154295       0.37191456 </v>
    <v>       0.50376732      -0.00012143       0.87159984 </v>
    <v>       0.50531187       0.33333333       0.37172444 </v>
    <v>       0.50383764       0.33333333       0.87172692 </v>
    <v>       0.50497552       0.66820962       0.37191456 </v>
    <v>       0.50376732       0.66678810       0.87159984 </v>
    <v>       0.67442419       0.16584171       0.28065254 </v>
    <v>       0.67362381       0.16656607       0.78207420 </v>
    <v>       0.67442419       0.50082496       0.28065254 </v>
    <v>       0.67362381       0.50010060       0.78207420 </v>
    <v>       0.67389454       0.83333333       0.28137455 </v>
[...]
       <r>   -10.0655     0.0000   144.0000 </r>
       <r>    -9.9557     0.0000   144.0000 </r>
       <r>    -9.8459     0.0000   144.0000 </r>
       <r>    -9.7361     0.0000   144.0000 </r>
       <r>    -9.6263     0.0000   144.0000 </r>
       <r>    -9.5164     0.0000   144.0000 </r>
       <r>    -9.4066     1.5512   144.1703 </r>
       <r>    -9.2968    86.1668   153.6322 </r>
       <r>    -9.1870   342.2598   191.2151 </r>
       <r>    -9.0772   684.2794   266.3547 </r>
       <r>    -8.9674   715.8226   344.9579 </r>
       <r>    -8.8576   711.7618   423.1153 </r>
       <r>    -8.7478   582.7998   487.1116 </r>
       <r>    -8.6380   208.4441   510.0004 </r>
       <r>    -8.5282   162.8419   527.8818 </r>
       <r>    -8.4184   240.7757   554.3210 </r>
       <r>    -8.3086   157.3050   571.5944 </r>
       <r>    -8.1987   120.4964   584.8259 </r>
       <r>    -8.0889   130.2333   599.1266 </r>
       <r>    -7.9791    58.0947   605.5059 </r>
       <r>    -7.8693    39.1729   609.8074 </r>
       <r>    -7.7595    33.5598   613.4925 </r>
       <r>    -7.6497     4.6193   613.9998 </r>
       <r>    -7.5399     0.0020   614.0000 </r>
       <r>    -7.4301     0.0000   614.0000 </r>
       <r>    -7.3203     0.0000   614.0000 </r>
       <r>    -7.2105     0.0000   614.0000 </r>
       <r>    -7.1007     0.0000   614.0000 </r>
       <r>    -6.9909     0.0000   614.0000 </r>
       <r>    -6.8810     0.0000   614.0000 </r>
       <r>    -6.7712     0.0000   614.0000 </r>
       <r>    -6.6614     0.0000   614.0000 </r>
       <r>    -6.5516     0.0000   614.0000 </r>
       <r>    -6.4418     0.0000   614.0000 </r>
       <r>    -6.3320     0.0000   614.0000 </r>
       <r>    -6.2222     0.0000   614.0000 </r>
       <r>    -6.1124     0.0000   614.0000 </r>
       <r>    -6.0026     0.0000   614.0000 </r>
       <r>    -5.8928     0.0000   614.0000 </r>
       <r>    -5.7830     0.0000   614.0000 </r>
       <r>    -5.6732     0.0000   614.0000 </r>
       <r>    -5.5633     0.0000   614.0000 </r>
       <r>    -5.4535     0.0000   614.0000 </r>
       <r>    -5.3437     0.0000   614.0000 </r>
       <r>    -5.2339     0.0000   614.0000 </r>
       <r>    -5.1241     0.0000   614.0000 </r>
       <r>    -5.0143     0.0000   614.0000 </r>
       <r>    -4.9045     0.0000   614.0000 </r>
       <r>    -4.7947     0.0000   614.0000 </r>
       <r>    -4.6849     0.0000   614.0000 </r>
       <r>    -4.5751     0.0000   614.0000 </r>
       <r>    -4.4653     0.0000   614.0000 </r>
       <r>    -4.3555     0.0000   614.0000 </r>
       <r>    -4.2456     0.0000   614.0000 </r>
       <r>    -4.1358     0.0000   614.0000 </r>
       <r>    -4.0260     0.0000   614.0000 </r>
       <r>    -3.9162     0.0000   614.0000 </r>
       <r>    -3.8064     0.0000   614.0000 </r>
       <r>    -3.6966     0.0000   614.0000 </r>
       <r>    -3.5868     0.0000   614.0000 </r>
       <r>    -3.4770     0.0116   614.0013 </r>
       <r>    -3.3672     3.2338   614.3564 </r>
       <r>    -3.2574     9.0686   615.3522 </r>
       <r>    -3.1476    19.3574   617.4778 </r>
       <r>    -3.0378    26.9515   620.4373 </r>
       <r>    -2.9279    35.9496   624.3848 </r>
       <r>    -2.8181    27.4320   627.3971 </r>
       <r>    -2.7083    45.3714   632.3793 </r>
       <r>    -2.5985    40.4802   636.8243 </r>
       <r>    -2.4887    49.2978   642.2376 </r>
       <r>    -2.3789    61.5645   648.9979 </r>
       <r>    -2.2691    52.8244   654.7985 </r>
       <r>    -2.1593    41.0937   659.3109 </r>
       <r>    -2.0495    52.4282   665.0680 </r>
       <r>    -1.9397    50.7538   670.6411 </r>
       <r>    -1.8299    33.1924   674.2859 </r>
       <r>    -1.7201    29.7681   677.5547 </r>
       <r>    -1.6102    26.6676   680.4831 </r>
       <r>    -1.5004    33.1158   684.1194 </r>
       <r>    -1.3906    31.3387   687.5607 </r>
       <r>    -1.2808    36.6901   691.5896 </r>
       <r>    -1.1710    43.6159   696.3790 </r>
       <r>    -1.0612    31.3682   699.8235 </r>
       <r>    -0.9514    39.5739   704.1690 </r>
       <r>    -0.8416    30.9626   707.5689 </r>
       <r>    -0.7318    36.1940   711.5434 </r>
       <r>    -0.6220    34.2996   715.3097 </r>
       <r>    -0.5122    53.4199   721.1757 </r>
       <r>    -0.4024    43.7116   725.9756 </r>
       <r>    -0.2925    35.7306   729.8991 </r>
       <r>    -0.1827    47.2476   735.0873 </r>
       <r>    -0.0729    76.7942   743.5199 </r>
       <r>     0.0369    78.5011   752.1400 </r>
       <r>     0.1467    65.3822   759.3195 </r>
       <r>     0.2565    66.0339   766.5706 </r>
       <r>     0.3663    67.2566   773.9559 </r>
       <r>     0.4761    53.3576   779.8150 </r>
       <r>     0.5859    64.5952   786.9081 </r>
       <r>     0.6957    71.1620   794.7223 </r>
       <r>     0.8055    68.5010   802.2442 </r>
       <r>     0.9153    76.0937   810.6000 </r>
       <r>     1.0252    83.9199   819.8151 </r>
       <r>     1.1350    71.1735   827.6305 </r>
       <r>     1.2448    57.4356   833.9374 </r>
       <r>     1.3546    73.4274   842.0004 </r>
       <r>     1.4644    78.0516   850.5711 </r>
       <r>     1.5742    84.1270   859.8089 </r>
       <r>     1.6840    85.7444   869.2244 </r>
       <r>     1.7938    73.2336   877.2660 </r>
       <r>     1.9036    64.2008   884.3158 </r>
       <r>     2.0134    51.0608   889.9227 </r>
       <r>     2.1232    89.9337   899.7982 </r>
       <r>     2.2330    91.8101   909.8797 </r>
       <r>     2.3429   101.0691   920.9779 </r>
       <r>     2.4527    91.0120   930.9718 </r>
       <r>     2.5625    99.3292   941.8789 </r>
       <r>     2.6723   102.8864   953.1767 </r>
       <r>     2.7821   107.9950   965.0355 </r>
       <r>     2.8919   133.0136   979.6415 </r>
       <r>     3.0017   123.7628   993.2317 </r>
       <r>     3.1115   101.0794  1004.3310 </r>
       <r>     3.2213    87.2377  1013.9104 </r>
       <r>     3.3311    69.3478  1021.5254 </r>
       <r>     3.4409    58.3828  1027.9363 </r>
       <r>     3.5507    76.5737  1036.3447 </r>
       <r>     3.6606    44.4233  1041.2228 </r>
       <r>     3.7704    37.4574  1045.3359 </r>
       <r>     3.8802     6.0444  1045.9996 </r>
       <r>     3.9900     0.0033  1046.0000 </r>
       <r>     4.0998     0.0000  1046.0000 </r>
       <r>     4.2096     0.0000  1046.0000 </r>
       <r>     4.3194     0.0000  1046.0000 </r>
       <r>     4.4292     0.0000  1046.0000 </r>
       <r>     4.5390     0.0000  1046.0000 </r>
       <r>     4.6488     0.0000  1046.0000 </r>
       <r>     4.7586     0.0000  1046.0000 </r>
       <r>     4.8684     0.0000  1046.0000 </r>
       <r>     4.9783     0.0000  1046.0000 </r>
       <r>     5.0881     0.0000  1046.0000 </r>
       <r>     5.1979     0.0000  1046.0000 </r>
       <r>     5.3077     0.0000  1046.0000 </r>
       <r>     5.4175     0.0000  1046.0000 </r>
       <r>     5.5273     0.0000  1046.0000 </r>
       <r>     5.6371     0.0000  1046.0000 </r>
       <r>     5.7469     0.0000  1046.0000 </r>
       <r>     5.8567     0.0026  1046.0003 </r>
       <r>     5.9665     1.1843  1046.1303 </r>
       <r>     6.0763     1.0880  1046.2498 </r>
       <r>     6.1861     0.0018  1046.2500 </r>
       <r>     6.2960     0.0000  1046.2500 </r>
       <r>     6.4058     0.0000  1046.2500 </r>
       <r>     6.5156     0.0000  1046.2500 </r>
       <r>     6.6254     0.0003  1046.2500 </r>
       <r>     6.7352     0.7138  1046.3284 </r>
       <r>     6.8450     3.7161  1046.7365 </r>
       <r>     6.9548     3.3567  1047.1051 </r>
       <r>     7.0646     1.5212  1047.2721 </r>
       <r>     7.1744     3.0660  1047.6088 </r>
       <r>     7.2842     5.3492  1048.1962 </r>
       <r>     7.3940     0.4902  1048.2500 </r>
       <r>     7.5038     0.0433  1048.2547 </r>
       <r>     7.6137     3.7354  1048.6649 </r>
       <r>     7.7235     6.6200  1049.3919 </r>
       <r>     7.8333     7.9110  1050.2606 </r>
       <r>     7.9431     4.1257  1050.7136 </r>
       <r>     8.0529     7.9024  1051.5813 </r>
       <r>     8.1627     3.6702  1051.9844 </r>
       <r>     8.2725     4.8031  1052.5118 </r>
       <r>     8.3823    10.6694  1053.6834 </r>
       <r>     8.4921     8.7596  1054.6452 </r>
       <r>     8.6019     5.0009  1055.1944 </r>
       <r>     8.7117     3.0587  1055.5303 </r>
       <r>     8.8215    16.3824  1057.3292 </r>
       <r>     8.9314    15.4887  1059.0300 </r>
       <r>     9.0412    11.1689  1060.2564 </r>
       <r>     9.1510     5.4591  1060.8559 </r>
       <r>     9.2608    18.4503  1062.8819 </r>
       <r>     9.3706    27.2155  1065.8703 </r>
       <r>     9.4804    35.5047  1069.7690 </r>
       <r>     9.5902    36.4941  1073.7764 </r>
       <r>     9.7000    43.4425  1078.5468 </r>
       <r>     9.8098    48.3012  1083.8506 </r>
       <r>     9.9196    36.4223  1087.8501 </r>
       <r>    10.0294    28.7068  1091.0023 </r>
       <r>    10.1392    29.7263  1094.2665 </r>
       <r>    10.2491    27.9522  1097.3359 </r>
       <r>    10.3589    37.2722  1101.4287 </r>
       <r>    10.4687    46.3326  1106.5164 </r>
       <r>    10.5785    37.6114  1110.6465 </r>
       <r>    10.6883    28.3629  1113.7609 </r>
       <r>    10.7981    35.1343  1117.6190 </r>
       <r>    10.9079    31.6510  1121.0945 </r>
       <r>    11.0177    34.0440  1124.8328 </r>
       <r>    11.1275    33.5065  1128.5121 </r>
       <r>    11.2373    43.7957  1133.3213 </r>
       <r>    11.3471    39.6102  1137.6708 </r>
       <r>    11.4569    26.8245  1140.6164 </r>
       <r>    11.5667    50.2605  1146.1354 </r>
       <r>    11.6766    29.3129  1149.3542 </r>
       <r>    11.7864     9.1064  1150.3541 </r>
       <r>    11.8962    12.2791  1151.7025 </r>
       <r>    12.0060    27.1742  1154.6864 </r>
       <r>    12.1158    36.2127  1158.6629 </r>
       <r>    12.2256    37.0909  1162.7358 </r>
       <r>    12.3354    41.4339  1167.2855 </r>
       <r>    12.4452    45.4246  1172.2735 </r>
       <r>    12.5550    45.8971  1177.3134 </r>
       <r>    12.6648    32.5930  1180.8924 </r>
       <r>    12.7746    40.1786  1185.3043 </r>
       <r>    12.8844    28.0067  1188.3797 </r>
       <r>    12.9943    37.3229  1192.4781 </r>
       <r>    13.1041    38.6535  1196.7226 </r>
       <r>    13.2139    44.2941  1201.5864 </r>
       <r>    13.3237    54.0709  1207.5239 </r>
       <r>    13.4335    35.7492  1211.4494 </r>
       <r>    13.5433    31.8154  1214.9430 </r>
       <r>    13.6531    41.5884  1219.5098 </r>
       <r>    13.7629    28.6028  1222.6506 </r>
       <r>    13.8727    35.0578  1226.5002 </r>
       <r>    13.9825    29.0882  1229.6943 </r>
       <r>    14.0923    31.3981  1233.1421 </r>
       <r>    14.2021    29.8552  1236.4205 </r>
       <r>    14.3120    29.1637  1239.6229 </r>
       <r>    14.4218    34.1591  1243.3738 </r>
       <r>    14.5316    45.8070  1248.4038 </r>
       <r>    14.6414    26.8059  1251.3473 </r>
       <r>    14.7512     5.8849  1251.9935 </r>
       <r>    14.8610     0.0588  1252.0000 </r>
       <r>    14.9708     0.0000  1252.0000 </r>
       <r>    15.0806     0.0000  1252.0000 </r>
       <r>    15.1904     0.0000  1252.0000 </r>
       <r>    15.3002     0.0000  1252.0000 </r>
       <r>    15.4100     0.0000  1252.0000 </r>
       <r>    15.5198     0.0000  1252.0000 </r>
       <r>    15.6297     0.0000  1252.0000 </r>
       <r>    15.7395     0.0000  1252.0000 </r>
       <r>    15.8493     0.0000  1252.0000 </r>
       <r>    15.9591     0.0000  1252.0000 </r>
       <r>    16.0689     0.0000  1252.0000 </r>
       <r>    16.1787     0.0000  1252.0000 </r>
      </set>
     </set>
    </array>
   </total>
  </dos>
 </calculation>
 <structure name="finalpos" >
  <crystal>
   <varray name="basis" >
    <v>       0.00000000      12.28047342       0.00000000 </v>
    <v>       9.14270205       0.00000000       0.00000000 </v>
    <v>       0.00000000      -2.76826177     -11.30069772 </v>
   </varray>
   <i name="volume">   1268.80515525 </i>
   <varray name="rec_basis" >
    <v>       0.00000000       0.08143009      -0.01994742 </v>
    <v>       0.10937686      -0.00000000       0.00000000 </v>
    <v>       0.00000000       0.00000000      -0.08849011 </v>
   </varray>
  </crystal>
  <varray name="positions" >
   <v>       0.66106064       0.00014496       0.15792727 </v>
   <v>       0.65780911       0.00033104       0.65530227 </v>
   <v>       0.66139285       0.33333333       0.15835032 </v>
   <v>       0.65753506       0.33333333       0.65474435 </v>
   <v>       0.66106064       0.66652171       0.15792727 </v>
   <v>       0.65780911       0.66633563       0.65530227 </v>
   <v>       0.84400221       0.16720356       0.34430784 </v>
   <v>       0.84016243       0.16728388       0.84263428 </v>
   <v>       0.84400221       0.49946311       0.34430784 </v>
   <v>       0.84016243       0.49938278       0.84263428 </v>
   <v>       0.84274028       0.83333333       0.34419898 </v>
   <v>       0.83970340       0.83333333       0.84234858 </v>
   <v>       0.58917661       0.17049772       0.39594255 </v>
   <v>       0.59198990       0.16653105       0.89804501 </v>
   <v>       0.58917661       0.49616894       0.39594255 </v>
   <v>       0.59198990       0.50013562       0.89804501 </v>
   <v>       0.59019907       0.83333333       0.39708674 </v>
   <v>       0.59282826       0.83333333       0.89886798 </v>
   <v>       0.90898537       0.00036336       0.10139402 </v>
   <v>       0.90931858       0.00021994       0.60284234 </v>
   <v>       0.91165537       0.33333333       0.10276699 </v>
   <v>       0.90981968       0.33333333       0.60264193 </v>
   <v>       0.90898537       0.66630331       0.10139402 </v>
   <v>       0.90931858       0.66644673       0.60284234 </v>
   <v>       0.16334554       0.16983287       0.16103173 </v>
   <v>       0.15997964       0.16691500       0.65799252 </v>
   <v>       0.16334554       0.49683379       0.16103173 </v>
   <v>       0.15997964       0.49975167       0.65799252 </v>
   <v>       0.15849881       0.83333333       0.15754770 </v>
   <v>       0.15946400       0.83333333       0.65981580 </v>
   <v>       0.34017290       0.00465905       0.34095672 </v>
   <v>       0.34266917       0.00021753       0.84410653 </v>
   <v>       0.34207606       0.33333333       0.84386168 </v>
   <v>       0.34017290       0.66200762       0.34095672 </v>
   <v>       0.34266917       0.66644913       0.84410653 </v>
   <v>       0.09259965       0.00061433       0.39799703 </v>
   <v>       0.08973131       0.00014783       0.89792252 </v>
   <v>       0.09984758       0.33333333       0.39707825 </v>
   <v>       0.09095286       0.33333333       0.89846679 </v>
   <v>       0.09259965       0.66605233       0.39799703 </v>
   <v>       0.08973131       0.66651884       0.89792252 </v>
   <v>       0.40973884       0.16576507       0.10515408 </v>
   <v>       0.40534914       0.16628162       0.59757983 </v>
   <v>       0.40973884       0.50090160       0.10515408 </v>
   <v>       0.40534914       0.50038505       0.59757983 </v>
   <v>       0.41011897       0.83333333       0.10416689 </v>
   <v>       0.40842110       0.83333333       0.60011924 </v>
   <v>       0.99666796       0.16557408       0.12369633 </v>
   <v>       0.99694281       0.16656207       0.62909754 </v>
   <v>       0.99666796       0.50109259       0.12369633 </v>
   <v>       0.99694281       0.50010460       0.62909754 </v>
   <v>       0.99456713       0.83333333       0.12523552 </v>
   <v>       0.99633545       0.83333333       0.62964302 </v>
   <v>       0.50428018       0.00100172       0.37364341 </v>
   <v>       0.50534893      -0.00042678       0.87327762 </v>
   <v>       0.50130842       0.33333333       0.37198046 </v>
   <v>       0.50498153       0.33333333       0.87240744 </v>
   <v>       0.50428018       0.66566495       0.37364341 </v>
   <v>       0.50534893       0.66709345       0.87327762 </v>
   <v>       0.67468159       0.16630265       0.28080924 </v>
   <v>       0.67187307       0.16773374       0.77960248 </v>
   <v>       0.67468159       0.50036402       0.28080924 </v>
   <v>       0.67187307       0.49893293       0.77960248 </v>
   <v>       0.67422018       0.83333333       0.28159523 </v>
   <v>       0.67222610       0.83333333       0.77987259 </v>
   <v>       0.82921678       0.00039633       0.22026208 </v>
   <v>       0.82648211       0.00039614       0.71878378 </v>
   <v>       0.82977768       0.33333333       0.22005732 </v>
   <v>       0.82673255       0.33333333       0.71862395 </v>
   <v>       0.82921678       0.66627034       0.22026208 </v>
   <v>       0.82648211       0.66627053       0.71878378 </v>
   <v>       0.83360436       0.00026996       0.44628990 </v>
   <v>       0.83074181       0.00030946       0.94469815 </v>
   <v>       0.83269271       0.33333333       0.44642629 </v>
   <v>       0.83204595       0.33333333       0.94588556 </v>
   <v>       0.83360436       0.66639671       0.44628990 </v>
   <v>       0.83074181       0.66635720       0.94469815 </v>
   <v>       0.66897164       0.16725090       0.05456597 </v>
   <v>       0.66755995       0.16651434       0.55353014 </v>
   <v>       0.66897164       0.49941577       0.05456597 </v>
   <v>       0.66755995       0.50015233       0.55353014 </v>
   <v>       0.67112043       0.83333333       0.05502043 </v>
   <v>       0.66769858       0.83333333       0.55379414 </v>
   <v>       0.49936336      -0.00075884       0.12661441 </v>
   <v>       0.49614328       0.00067252       0.62814147 </v>
   <v>       0.49775941       0.33333333       0.13127217 </v>
   <v>       0.49334760       0.33333333       0.62153965 </v>
   <v>       0.49936336       0.66742551       0.12661441 </v>
   <v>       0.49614328       0.66599415       0.62814147 </v>
   <v>       0.00626994       0.16824421       0.37583598 </v>
   <v>       0.00255270       0.16712700       0.87092667 </v>
   <v>       0.00626994       0.49842245       0.37583598 </v>
   <v>       0.00255270       0.49953967       0.87092667 </v>
   <v>       0.00452825       0.83333333       0.37506687 </v>
   <v>       0.00193660       0.83333333       0.87081596 </v>
   <v>       0.16898915      -0.00345427       0.27838235 </v>
   <v>       0.17342622       0.00003045       0.78248843 </v>
   <v>       0.16128695       0.33333333       0.26951784 </v>
   <v>       0.17331414       0.33333333       0.78190944 </v>
   <v>       0.16898915       0.67012094       0.27838235 </v>
   <v>       0.17342622       0.66663621       0.78248843 </v>
   <v>       0.32491306       0.14767608       0.21324985 </v>
   <v>       0.32848512       0.16675046       0.72056413 </v>
   <v>       0.32491306       0.51899059       0.21324985 </v>
   <v>       0.32848512       0.49991621       0.72056413 </v>
   <v>       0.32776775       0.83333333       0.21921249 </v>
   <v>       0.32827741       0.83333333       0.71972782 </v>
   <v>       0.31382624       0.14768110       0.45091537 </v>
   <v>       0.33620986       0.16689767       0.94669934 </v>
   <v>       0.31382624       0.51898557       0.45091537 </v>
   <v>       0.33620986       0.49976900       0.94669934 </v>
   <v>       0.33252991       0.83333333       0.44378357 </v>
   <v>       0.33459420       0.83333333       0.94652481 </v>
   <v>       0.16477637      -0.00054706       0.05349721 </v>
   <v>       0.16547826      -0.00130277       0.55655381 </v>
   <v>       0.17103634       0.33333333       0.05228316 </v>
   <v>       0.16770798       0.33333333       0.55658284 </v>
   <v>       0.16477637       0.66721373       0.05349721 </v>
   <v>       0.16547826       0.66796944       0.55655381 </v>
  </varray>
 </structure>
</modeling>
