 running    4 mpi-ranks, on    1 nodes
 distrk:  each k-point on    1 cores,    4 groups
 distr:  one band on    1 cores,    1 groups
 OpenACC runtime initialized ...    4 GPUs detected
 vasp.6.4.2 20Jul23 (build Nov 12 2023 22:16:35) complex                         
 POSCAR found type information on POSCAR GaO P 
 POSCAR found :  3 types and     119 ions
 scaLAPACK will be used selectively (only on CPU)
 LDA part: xc-table for Pade appr. of Perdew
 POSCAR, INCAR and KPOINTS ok, starting setup
 FFT: planning ... GRIDC
 FFT: planning ... GRID_SOFT
 FFT: planning ... GRID
 WAVECAR not read
 initial charge from wavefunction
 entering main loop
       N       E                     dE             d eps       ncg     rms          ort
DAV:   1    -0.205039335888E+05   -0.20504E+05   -0.54128E+05  5064   0.750E+03
DAV:   2    -0.658061100722E+05   -0.45302E+05   -0.43723E+05  5064   0.124E+03
DAV:   3    -0.711270454511E+05   -0.53209E+04   -0.48043E+04  5064   0.382E+02
DAV:   4    -0.719335139289E+05   -0.80647E+03   -0.72924E+03  5064   0.123E+02
DAV:   5    -0.395293888086E+05    0.32404E+05   -0.72251E+02  5064   0.603E+01
 gam= 0.000 g(H,U,f)=  0.826E+05 0.226E+05 0.546E+05 ort(H,U,f) = 0.000E+00 0.000E+00 0.000E+00
SDA:   6     0.309406891864E+05    0.70470E+05   -0.72251E+02  5064   0.160E+06 0.000E+00
 gam= 0.000 trial= 0.400  step= 0.302 mean= 0.400
 gam= 0.357 g(H,U,f)=  0.216E+05 0.212E+05 0.142E+05 ort(H,U,f) = 0.832E+04-0.249E+05-0.156E+05
CGA:   7     0.710398538353E+04   -0.23837E+05   -0.24103E+05  5064   0.570E+05-0.322E+05
 gam= 0.357 trial= 0.395  step= 0.240 mean= 0.395
 gam= 0.234 g(H,U,f)=  0.793E+04 0.508E+04 0.362E+03 ort(H,U,f) =-0.463E+03-0.325E+04-0.220E+03
CGA:   8     0.222608337102E+04   -0.48779E+04   -0.54615E+04  5064   0.134E+05-0.393E+04
 gam= 0.234 trial= 0.387  step= 0.246 mean= 0.387
 gam= 0.814 g(H,U,f)=  0.334E+04 0.604E+04 0.151E+04 ort(H,U,f) = 0.134E+04-0.198E+04-0.109E+04
CGA:   9     0.980176533385E+03   -0.12459E+04   -0.15330E+04  5064   0.109E+05-0.174E+04
 gam= 0.814 trial= 0.380  step= 0.199 mean= 0.380
 gam= 0.375 g(H,U,f)=  0.218E+04 0.178E+04 0.127E+03 ort(H,U,f) =-0.126E+02 0.125E+03-0.593E+02
CGA:  10     0.427782757483E+03   -0.55239E+03   -0.94299E+03  5064   0.408E+04 0.532E+02
 gam= 0.375 trial= 0.371  step= 0.294 mean= 0.371
 gam= 0.333 g(H,U,f)=  0.112E+04 0.230E+03 0.705E+01 ort(H,U,f) = 0.612E+03 0.166E+03-0.290E+00
CGA:  11    -0.895176238537E+02   -0.51730E+03   -0.60304E+03  5064   0.136E+04 0.777E+03
 gam= 0.333 trial= 0.367  step= 0.457 mean= 0.367
 gam= 0.335 g(H,U,f)=  0.365E+03 0.868E+02 0.298E+01 ort(H,U,f) =-0.746E+01 0.108E+03-0.996E+00
CGA:  12    -0.466871049354E+03   -0.37735E+03   -0.36931E+03  5064   0.455E+03 0.100E+03
 gam= 0.335 trial= 0.372  step= 0.807 mean= 0.372
 gam= 0.875 g(H,U,f)=  0.285E+03 0.108E+03 0.394E+01 ort(H,U,f) =-0.102E+03 0.634E+02 0.680E+00
CGA:  13    -0.651519546419E+03   -0.18465E+03   -0.19687E+03  5064   0.398E+03-0.384E+02
 gam= 0.875 trial= 0.394  step= 0.507 mean= 0.394
 gam= 0.547 g(H,U,f)=  0.189E+03 0.284E+02 0.484E+00 ort(H,U,f) =-0.588E+02 0.529E+02 0.120E+01
CGA:  14    -0.743805116410E+03   -0.92286E+02   -0.92247E+02  5064   0.218E+03-0.468E+01
 gam= 0.547 trial= 0.399  step= 0.492 mean= 0.399
 gam= 0.574 g(H,U,f)=  0.106E+03 0.187E+02 0.404E+00 ort(H,U,f) =-0.755E+01 0.366E+00 0.623E+00
CGA:  15    -0.796396924125E+03   -0.52592E+02   -0.52852E+02  5064   0.125E+03-0.656E+01
 gam= 0.574 trial= 0.404  step= 0.515 mean= 0.404
 gam= 0.552 g(H,U,f)=  0.546E+02 0.136E+02 0.662E+00 ort(H,U,f) =-0.198E+01-0.236E+01 0.221E+01
CGA:  16    -0.827486446929E+03   -0.31090E+02   -0.31159E+02  5064   0.689E+02-0.213E+01
 gam= 0.552 trial= 0.409  step= 0.479 mean= 0.409
 gam= 0.564 g(H,U,f)=  0.294E+02 0.937E+01 0.657E-02 ort(H,U,f) =-0.180E+01 0.413E+01-0.126E-01
CGA:  17    -0.843866012469E+03   -0.16380E+02   -0.16218E+02  5064   0.388E+02 0.232E+01
 gam= 0.564 trial= 0.413  step= 0.552 mean= 0.413
 gam= 0.614 g(H,U,f)=  0.186E+02 0.518E+01 0.176E-02 ort(H,U,f) =-0.509E+01 0.535E+01 0.617E-02
CGA:  18    -0.854964765514E+03   -0.11099E+02   -0.11068E+02  5064   0.238E+02 0.268E+00
 gam= 0.614 trial= 0.420  step= 0.548 mean= 0.420
 gam= 0.597 g(H,U,f)=  0.117E+02 0.256E+01 0.917E-02 ort(H,U,f) =-0.341E+01 0.357E+01 0.171E-01
CGA:  19    -0.861553259049E+03   -0.65885E+01   -0.65755E+01  5064   0.142E+02 0.181E+00
 gam= 0.597 trial= 0.426  step= 0.523 mean= 0.426
 gam= 0.535 g(H,U,f)=  0.646E+01 0.115E+01 0.955E-03 ort(H,U,f) =-0.134E+01 0.148E+01 0.586E-02
CGA:  20    -0.865306575064E+03   -0.37533E+01   -0.37453E+01  5064   0.761E+01 0.144E+00
 gam= 0.535 trial= 0.431  step= 0.519 mean= 0.431
 gam= 0.514 g(H,U,f)=  0.327E+01 0.639E+00 0.970E-04 ort(H,U,f) =-0.308E+00 0.377E+00 0.560E-03
CGA:  21    -0.867303202864E+03   -0.19966E+01   -0.19931E+01  5064   0.391E+01 0.697E-01
 gam= 0.514 trial= 0.435  step= 0.556 mean= 0.435
 gam= 0.536 g(H,U,f)=  0.173E+01 0.364E+00 0.444E-03 ort(H,U,f) =-0.114E+00 0.142E+00 0.345E-03
CGA:  22    -0.868400447890E+03   -0.10972E+01   -0.10953E+01  5064   0.209E+01 0.279E-01
 gam= 0.536 trial= 0.441  step= 0.538 mean= 0.441
 gam= 0.547 g(H,U,f)=  0.916E+00 0.229E+00 0.431E-03 ort(H,U,f) =-0.106E+00 0.112E+00 0.207E-03
CGA:  23    -0.868967982672E+03   -0.56753E+00   -0.56717E+00  5064   0.115E+01 0.596E-02
 gam= 0.547 trial= 0.446  step= 0.544 mean= 0.446
 gam= 0.606 g(H,U,f)=  0.557E+00 0.137E+00 0.144E-03 ort(H,U,f) =-0.120E+00 0.118E+00 0.121E-03
CGA:  24    -0.869280542019E+03   -0.31256E+00   -0.31268E+00  5064   0.694E+00-0.196E-02
 gam= 0.606 trial= 0.451  step= 0.520 mean= 0.451
 gam= 0.539 g(H,U,f)=  0.302E+00 0.725E-01 0.336E-04 ort(H,U,f) =-0.852E-01 0.826E-01 0.735E-04
CGA:  25    -0.869460663766E+03   -0.18012E+00   -0.18026E+00  5064   0.374E+00-0.257E-02
 gam= 0.539 trial= 0.455  step= 0.535 mean= 0.455
 gam= 0.566 g(H,U,f)=  0.172E+00 0.393E-01 0.783E-05 ort(H,U,f) =-0.432E-01 0.427E-01 0.247E-04
CGA:  26    -0.869560438406E+03   -0.99775E-01   -0.99823E-01  5064   0.212E+00-0.502E-03
 gam= 0.566 trial= 0.459  step= 0.562 mean= 0.459
 gam= 0.551 g(H,U,f)=  0.967E-01 0.199E-01 0.314E-05 ort(H,U,f) =-0.162E-01 0.163E-01 0.152E-04
CGA:  27    -0.869619872323E+03   -0.59434E-01   -0.59436E-01  5064   0.117E+00 0.168E-03
 gam= 0.551 trial= 0.464  step= 0.561 mean= 0.464
 gam= 0.545 g(H,U,f)=  0.517E-01 0.118E-01 0.631E-05 ort(H,U,f) =-0.435E-02 0.444E-02 0.136E-04
CGA:  28    -0.869652606762E+03   -0.32734E-01   -0.32731E-01  5064   0.636E-01 0.108E-03
 gam= 0.545 trial= 0.469  step= 0.571 mean= 0.469
 gam= 0.579 g(H,U,f)=  0.293E-01 0.755E-02 0.135E-05 ort(H,U,f) =-0.211E-02 0.218E-02 0.670E-05
CGA:  29    -0.869670760415E+03   -0.18154E-01   -0.18150E-01  5064   0.368E-01 0.798E-04
 gam= 0.579 trial= 0.474  step= 0.562 mean= 0.474
 gam= 0.591 g(H,U,f)=  0.167E-01 0.506E-02 0.224E-05 ort(H,U,f) =-0.231E-02 0.243E-02-0.459E-05
CGA:  30    -0.869681126162E+03   -0.10366E-01   -0.10361E-01  5064   0.218E-01 0.113E-03
 gam= 0.591 trial= 0.478  step= 0.535 mean= 0.478
 gam= 0.577 g(H,U,f)=  0.982E-02 0.275E-02 0.202E-05 ort(H,U,f) =-0.247E-02 0.256E-02-0.108E-05
CGA:  31    -0.869686974282E+03   -0.58481E-02   -0.58453E-02  5064   0.126E-01 0.883E-04
 gam= 0.577 trial= 0.481  step= 0.549 mean= 0.481
 gam= 0.579 g(H,U,f)=  0.586E-02 0.142E-02 0.250E-06 ort(H,U,f) =-0.142E-02 0.147E-02-0.821E-06
CGA:  32    -0.869690438825E+03   -0.34645E-02   -0.34628E-02  5064   0.728E-02 0.485E-04
 gam= 0.579 trial= 0.484  step= 0.569 mean= 0.484
 gam= 0.558 g(H,U,f)=  0.331E-02 0.746E-03 0.990E-06 ort(H,U,f) =-0.667E-03 0.683E-03-0.448E-06
CGA:  33    -0.869692519380E+03   -0.20806E-02   -0.20799E-02  5064   0.406E-02 0.159E-04
 gam= 0.558 trial= 0.489  step= 0.578 mean= 0.489
 gam= 0.554 g(H,U,f)=  0.187E-02 0.375E-03 0.863E-07 ort(H,U,f) =-0.224E-03 0.222E-03-0.852E-07
CGA:  34    -0.869693696351E+03   -0.11770E-02   -0.11771E-02  5064   0.225E-02-0.247E-05
 gam= 0.554 trial= 0.493  step= 0.587 mean= 0.493
 gam= 0.605 g(H,U,f)=  0.111E-02 0.252E-03 0.798E-06 ort(H,U,f) =-0.729E-04 0.661E-04-0.121E-06
CGA:  35    -0.869694355792E+03   -0.65944E-03   -0.65979E-03  5064   0.136E-02-0.699E-05
 gam= 0.605 trial= 0.498  step= 0.554 mean= 0.498
 gam= 0.571 g(H,U,f)=  0.624E-03 0.153E-03 0.152E-06 ort(H,U,f) =-0.597E-04 0.549E-04 0.327E-06
CGA:  36    -0.869694730770E+03   -0.37498E-03   -0.37511E-03  5064   0.777E-03-0.443E-05
 gam= 0.571 trial= 0.501  step= 0.533 mean= 0.501
 gam= 0.000 g(H,U,f)=  0.346E-03 0.104E-03 0.772E-07 ort(H,U,f) =-0.601E-04 0.589E-04-0.156E-06
SDA:  37    -0.869694937081E+03   -0.20631E-03   -0.20633E-03  5064   0.450E-03-0.138E-05
 gam= 0.000 trial= 0.502  step= 0.893 mean= 0.502
 gam= 0.474 g(H,U,f)=  0.166E-03 0.478E-04 0.187E-06 ort(H,U,f) =-0.506E-04 0.490E-04-0.103E-06
CGA:  38    -0.869695137654E+03   -0.20057E-03   -0.20090E-03  5064   0.214E-03-0.169E-05
 gam= 0.474 trial= 0.522  step= 0.690 mean= 0.522
 gam= 0.433 g(H,U,f)=  0.799E-04 0.125E-04 0.102E-07 ort(H,U,f) =-0.391E-04 0.372E-04 0.328E-07
CGA:  39    -0.869695210918E+03   -0.73264E-04   -0.73426E-04  5064   0.924E-04-0.191E-05
 gam= 0.433 trial= 0.530  step= 0.544 mean= 0.530
 gam= 0.367 g(H,U,f)=  0.300E-04 0.389E-05 0.386E-08 ort(H,U,f) =-0.143E-04 0.131E-04-0.658E-08
CGA:  40    -0.869695235820E+03   -0.24902E-04   -0.24910E-04  5064   0.339E-04-0.116E-05
 gam= 0.367 trial= 0.531  step= 0.573 mean= 0.531
 gam= 0.397 g(H,U,f)=  0.127E-04 0.768E-06 0.129E-08 ort(H,U,f) =-0.403E-05 0.352E-05 0.260E-08
CGA:  41    -0.869695245389E+03   -0.95691E-05   -0.95807E-05  5064   0.134E-04-0.507E-06
 gam= 0.397 trial= 0.533  step= 0.508 mean= 0.533
 final diagonalization
   1 F= -.86969525E+03 E0= -.86969285E+03  d E =-.479698E-02
 writing wavefunctions
Warning: ieee_invalid is signaling
Warning: ieee_divide_by_zero is signaling
Warning: ieee_underflow is signaling
Warning: ieee_inexact is signaling
FORTRAN STOP
Warning: ieee_invalid is signaling
Warning: ieee_divide_by_zero is signaling
Warning: ieee_underflow is signaling
Warning: ieee_inexact is signaling
FORTRAN STOP
Warning: ieee_invalid is signaling
Warning: ieee_divide_by_zero is signaling
Warning: ieee_underflow is signaling
Warning: ieee_inexact is signaling
FORTRAN STOP
Warning: ieee_invalid is signaling
Warning: ieee_divide_by_zero is signaling
Warning: ieee_underflow is signaling
Warning: ieee_inexact is signaling
FORTRAN STOP
