       N       E                     dE             d eps       ncg     rms          ort
DAV:   1    -0.205039335888E+05   -0.20504E+05   -0.54128E+05  5064   0.750E+03
DAV:   2    -0.658061100722E+05   -0.45302E+05   -0.43723E+05  5064   0.124E+03
DAV:   3    -0.711270454511E+05   -0.53209E+04   -0.48043E+04  5064   0.382E+02
DAV:   4    -0.719335139289E+05   -0.80647E+03   -0.72924E+03  5064   0.123E+02
DAV:   5    -0.395293888086E+05    0.32404E+05   -0.72251E+02  5064   0.603E+01
SDA:   6     0.309406891864E+05    0.70470E+05   -0.72251E+02  5064   0.160E+06 0.000E+00
CGA:   7     0.710398538353E+04   -0.23837E+05   -0.24103E+05  5064   0.570E+05-0.322E+05
CGA:   8     0.222608337102E+04   -0.48779E+04   -0.54615E+04  5064   0.134E+05-0.393E+04
CGA:   9     0.980176533385E+03   -0.12459E+04   -0.15330E+04  5064   0.109E+05-0.174E+04
CGA:  10     0.427782757483E+03   -0.55239E+03   -0.94299E+03  5064   0.408E+04 0.532E+02
CGA:  11    -0.895176238537E+02   -0.51730E+03   -0.60304E+03  5064   0.136E+04 0.777E+03
CGA:  12    -0.466871049354E+03   -0.37735E+03   -0.36931E+03  5064   0.455E+03 0.100E+03
CGA:  13    -0.651519546419E+03   -0.18465E+03   -0.19687E+03  5064   0.398E+03-0.384E+02
CGA:  14    -0.743805116410E+03   -0.92286E+02   -0.92247E+02  5064   0.218E+03-0.468E+01
CGA:  15    -0.796396924125E+03   -0.52592E+02   -0.52852E+02  5064   0.125E+03-0.656E+01
CGA:  16    -0.827486446929E+03   -0.31090E+02   -0.31159E+02  5064   0.689E+02-0.213E+01
CGA:  17    -0.843866012469E+03   -0.16380E+02   -0.16218E+02  5064   0.388E+02 0.232E+01
CGA:  18    -0.854964765514E+03   -0.11099E+02   -0.11068E+02  5064   0.238E+02 0.268E+00
CGA:  19    -0.861553259049E+03   -0.65885E+01   -0.65755E+01  5064   0.142E+02 0.181E+00
CGA:  20    -0.865306575064E+03   -0.37533E+01   -0.37453E+01  5064   0.761E+01 0.144E+00
CGA:  21    -0.867303202864E+03   -0.19966E+01   -0.19931E+01  5064   0.391E+01 0.697E-01
CGA:  22    -0.868400447890E+03   -0.10972E+01   -0.10953E+01  5064   0.209E+01 0.279E-01
CGA:  23    -0.868967982672E+03   -0.56753E+00   -0.56717E+00  5064   0.115E+01 0.596E-02
CGA:  24    -0.869280542019E+03   -0.31256E+00   -0.31268E+00  5064   0.694E+00-0.196E-02
CGA:  25    -0.869460663766E+03   -0.18012E+00   -0.18026E+00  5064   0.374E+00-0.257E-02
CGA:  26    -0.869560438406E+03   -0.99775E-01   -0.99823E-01  5064   0.212E+00-0.502E-03
CGA:  27    -0.869619872323E+03   -0.59434E-01   -0.59436E-01  5064   0.117E+00 0.168E-03
CGA:  28    -0.869652606762E+03   -0.32734E-01   -0.32731E-01  5064   0.636E-01 0.108E-03
CGA:  29    -0.869670760415E+03   -0.18154E-01   -0.18150E-01  5064   0.368E-01 0.798E-04
CGA:  30    -0.869681126162E+03   -0.10366E-01   -0.10361E-01  5064   0.218E-01 0.113E-03
CGA:  31    -0.869686974282E+03   -0.58481E-02   -0.58453E-02  5064   0.126E-01 0.883E-04
CGA:  32    -0.869690438825E+03   -0.34645E-02   -0.34628E-02  5064   0.728E-02 0.485E-04
CGA:  33    -0.869692519380E+03   -0.20806E-02   -0.20799E-02  5064   0.406E-02 0.159E-04
CGA:  34    -0.869693696351E+03   -0.11770E-02   -0.11771E-02  5064   0.225E-02-0.247E-05
CGA:  35    -0.869694355792E+03   -0.65944E-03   -0.65979E-03  5064   0.136E-02-0.699E-05
CGA:  36    -0.869694730770E+03   -0.37498E-03   -0.37511E-03  5064   0.777E-03-0.443E-05
SDA:  37    -0.869694937081E+03   -0.20631E-03   -0.20633E-03  5064   0.450E-03-0.138E-05
CGA:  38    -0.869695137654E+03   -0.20057E-03   -0.20090E-03  5064   0.214E-03-0.169E-05
CGA:  39    -0.869695210918E+03   -0.73264E-04   -0.73426E-04  5064   0.924E-04-0.191E-05
CGA:  40    -0.869695235820E+03   -0.24902E-04   -0.24910E-04  5064   0.339E-04-0.116E-05
CGA:  41    -0.869695245389E+03   -0.95691E-05   -0.95807E-05  5064   0.134E-04-0.507E-06
   1 F= -.86969525E+03 E0= -.86969285E+03  d E =-.479698E-02
