 vasp.6.4.2 20Jul23 (build Nov 12 2023 22:16:35) complex                         
 executed on              LinuxNV date 2025.03.12  06:44:30
 running    4 mpi-ranks, on    1 nodes
 distrk:  each k-point on    1 cores,    4 groups
 distr:  one band on NCORE=   1 cores,    1 groups
 OpenACC runtime initialized ...    4 GPUs detected


--------------------------------------------------------------------------------------------------------


 INCAR:
   PREC = Normal
   ENCUT = 450
   NELM = 500
   IBRION = -1
   ISPIN = 1
   NSW = 0
   ISIF = 2
   EDIFF = 1E-5
   EDIFFG = -5E-3
   ISTART = 0
   ICHARG = 0
   ISMEAR = 0
   SIGMA = 0.05
   LWAVE = .T.
   LCHARG = .T.
   LREAL = Auto
   LPLANE = .TRUE.
   NPAR = 1
   KPAR = 4
   NCORE = 1
   ALGO = All
   LHFCALC = .TRUE.
   HSE06 = .TRUE.
   HFSCREEN = 0.18
   TIME = 0.4
   AEXX = 0.35
   LMAXFOCK = 4
   PRECFOCK = Fast
   NELECT = 1056

 POTCAR:    PAW_PBE Ga_d 06Jul2010                
 POTCAR:     PAW_PBE O 08Apr2002                  
 POTCAR:    PAW_PBE P 06Sep2000                   
 POTCAR:    PAW_PBE Ga_d 06Jul2010                
   SHA256 =  a60ddf36e14f00ea098d9e3914b3745f1b7105e68786148f49ae384e44b4226c Ga_d/POTCAR           
   COPYR  = (c) Copyright 06Jul2010 Georg Kresse                                                    
   COPYR  = This file is part of the software VASP. Any use, copying, and all other rights are regul
   COPYR  = If you do not have a valid VASP license, you may not use, copy or distribute this file. 
   VRHFIN =Ga: s2p1                                                                                 
   LEXCH  = PE                                                                                      
   EATOM  =  2148.8298 eV,  157.9345 Ry                                                             
                                                                                                    
   TITEL  = PAW_PBE Ga_d 06Jul2010                                                                  
   LULTRA =        F    use ultrasoft PP ?                                                          
   IUNSCR =        1    unscreen: 0-lin 1-nonlin 2-no                                               
   RPACOR =    1.700    partial core radius                                                         
   POMASS =   69.723; ZVAL   =   13.000    mass and valenz                                          
   RCORE  =    2.300    outmost cutoff radius                                                       
   RWIGS  =    2.300; RWIGS  =    1.217    wigner-seitz radius (au A)                               
   ENMAX  =  282.691; ENMIN  =  212.018 eV                                                          
   ICORE  =        3    local potential                                                             
   LCOR   =        T    correct aug charges                                                         
   LPAW   =        T    paw PP                                                                      
   EAUG   =  490.690                                                                                
   DEXC   =    0.000                                                                                
   RMAX   =    2.341    core radius for proj-oper                                                   
   RAUG   =    1.300    factor for augmentation sphere                                              
   RDEP   =    2.413    radius for radial grids                                                     
   RDEPT  =    1.856    core radius for aug-charge                                                  
                                                                                                    
   Atomic configuration                                                                             
    9 entries                                                                                       
     n  l   j            E        occ.                                                              
     1  0  0.50    -10228.7831   2.0000                                                             
     2  0  0.50     -1262.1604   2.0000                                                             
     2  1  1.50     -1098.6333   6.0000                                                             
     3  0  0.50      -148.1110   2.0000                                                             
     3  1  1.50       -98.8436   6.0000                                                             
     3  2  2.50       -19.1549  10.0000                                                             
     4  0  0.50        -8.9483   2.0000                                                             
     4  1  0.50        -2.5791   1.0000                                                             
     4  3  2.50        -2.7416   0.0000                                                             
   Description                                                                                      
     l       E           TYP  RCUT    TYP  RCUT                                                     
     2    -19.1549037     23  2.300                                                                 
     2     -5.4423304     23  2.300                                                                 
     0     -8.9483111     23  2.300                                                                 
     0     68.0291300     23  2.300                                                                 
     1     -2.5790802     23  2.100                                                                 
     1     81.6349560     23  2.300                                                                 
     3      6.8029130     23  2.300                                                                 
  local pseudopotential read in
  partial core-charges read in
  partial kinetic energy density read in
  atomic valenz-charges read in
  non local Contribution for L=            2  read in
    real space projection operators read in
  non local Contribution for L=            2  read in
    real space projection operators read in
  non local Contribution for L=            0  read in
    real space projection operators read in
  non local Contribution for L=            0  read in
    real space projection operators read in
  non local Contribution for L=            1  read in
    real space projection operators read in
  non local Contribution for L=            1  read in
    real space projection operators read in
    PAW grid and wavefunctions read in
 
   number of l-projection  operators is LMAX  =            6
   number of lm-projection operators is LMMAX =           18
 
 POTCAR:     PAW_PBE O 08Apr2002                  
   SHA256 =  818f92134a0a090dccd8ba1447fa70422a3b330e708bb4f08108d8ae51209ddf O/POTCAR              
   COPYR  = (c) Copyright 08Apr2002 Georg Kresse                                                    
   COPYR  = This file is part of the software VASP. Any use, copying, and all other rights are regul
   COPYR  = If you do not have a valid VASP license, you may not use, copy or distribute this file. 
   VRHFIN =O: s2p4                                                                                  
   LEXCH  = PE                                                                                      
   EATOM  =   432.3788 eV,   31.7789 Ry                                                             
                                                                                                    
   TITEL  = PAW_PBE O 08Apr2002                                                                     
   LULTRA =        F    use ultrasoft PP ?                                                          
   IUNSCR =        1    unscreen: 0-lin 1-nonlin 2-no                                               
   RPACOR =    1.200    partial core radius                                                         
   POMASS =   16.000; ZVAL   =    6.000    mass and valenz                                          
   RCORE  =    1.520    outmost cutoff radius                                                       
   RWIGS  =    1.550; RWIGS  =    0.820    wigner-seitz radius (au A)                               
   ENMAX  =  400.000; ENMIN  =  300.000 eV                                                          
   ICORE  =        2    local potential                                                             
   LCOR   =        T    correct aug charges                                                         
   LPAW   =        T    paw PP                                                                      
   EAUG   =  605.392                                                                                
   DEXC   =    0.000                                                                                
   RMAX   =    1.553    core radius for proj-oper                                                   
   RAUG   =    1.300    factor for augmentation sphere                                              
   RDEP   =    1.550    radius for radial grids                                                     
   RDEPT  =    1.329    core radius for aug-charge                                                  
                                                                                                    
   Atomic configuration                                                                             
    4 entries                                                                                       
     n  l   j            E        occ.                                                              
     1  0  0.50      -514.6923   2.0000                                                             
     2  0  0.50       -23.9615   2.0000                                                             
     2  1  0.50        -9.0305   4.0000                                                             
     3  2  1.50        -9.5241   0.0000                                                             
   Description                                                                                      
     l       E           TYP  RCUT    TYP  RCUT                                                     
     0    -23.9615318     23  1.200                                                                 
     0     -9.5240782     23  1.200                                                                 
     1     -9.0304911     23  1.520                                                                 
     1      8.1634956     23  1.520                                                                 
     2     -9.5240782      7  1.500                                                                 
  local pseudopotential read in
  partial core-charges read in
  partial kinetic energy density read in
  kinetic energy density of atom read in
  atomic valenz-charges read in
  non local Contribution for L=            0  read in
    real space projection operators read in
  non local Contribution for L=            0  read in
    real space projection operators read in
  non local Contribution for L=            1  read in
    real space projection operators read in
  non local Contribution for L=            1  read in
    real space projection operators read in
    PAW grid and wavefunctions read in
 
   number of l-projection  operators is LMAX  =            4
   number of lm-projection operators is LMMAX =            8
 
 POTCAR:    PAW_PBE P 06Sep2000                   
   SHA256 =  df60c54a93efe35c9e85ae94c010c75e9f6960a95d5595d7cdba4096d109af88 P/POTCAR              
   COPYR  = (c) Copyright 06Sep2000 Georg Kresse                                                    
   COPYR  = This file is part of the software VASP. Any use, copying, and all other rights are regul
   COPYR  = If you do not have a valid VASP license, you may not use, copy or distribute this file. 
   VRHFIN =P : s2p3                                                                                 
   LEXCH  = PE                                                                                      
   EATOM  =   176.0430 eV,   12.9388 Ry                                                             
                                                                                                    
   TITEL  = PAW_PBE P 06Sep2000                                                                     
   LULTRA =        F    use ultrasoft PP ?                                                          
   IUNSCR =        1    unscreen: 0-lin 1-nonlin 2-no                                               
   RPACOR =    1.500    partial core radius                                                         
   POMASS =   30.974; ZVAL   =    5.000    mass and valenz                                          
   RCORE  =    1.900    outmost cutoff radius                                                       
   RWIGS  =    2.330; RWIGS  =    1.233    wigner-seitz radius (au A)                               
   ENMAX  =  255.040; ENMIN  =  191.280 eV                                                          
   ICORE  =        2    local potential                                                             
   LCOR   =        T    correct aug charges                                                         
   LPAW   =        T    paw PP                                                                      
   EAUG   =  342.924                                                                                
   DEXC   =    0.000                                                                                
   RMAX   =    1.935    core radius for proj-oper                                                   
   RAUG   =    1.300    factor for augmentation sphere                                              
   RDEP   =    1.931    radius for radial grids                                                     
   RDEPT  =    1.794    core radius for aug-charge                                                  
                                                                                                    
   Atomic configuration                                                                             
    6 entries                                                                                       
     n  l   j            E        occ.                                                              
     1  0  0.50     -2084.0982   2.0000                                                             
     2  0  0.50      -173.9859   2.0000                                                             
     2  1  1.50      -124.4865   6.0000                                                             
     3  0  0.50       -13.9692   2.0000                                                             
     3  1  0.50        -5.5067   3.0000                                                             
     3  2  1.50        -5.4423   0.0000                                                             
   Description                                                                                      
     l       E           TYP  RCUT    TYP  RCUT                                                     
     0    -13.9691527     23  1.900                                                                 
     0    -11.7794650     23  1.900                                                                 
     1     -5.5066937     23  1.900                                                                 
     1     -0.2556953     23  1.900                                                                 
     2     -5.4423304     23  1.900                                                                 
  local pseudopotential read in
  partial core-charges read in
  partial kinetic energy density read in
  atomic valenz-charges read in
  non local Contribution for L=            0  read in
    real space projection operators read in
  non local Contribution for L=            0  read in
    real space projection operators read in
  non local Contribution for L=            1  read in
    real space projection operators read in
  non local Contribution for L=            1  read in
    real space projection operators read in
    PAW grid and wavefunctions read in
 
   number of l-projection  operators is LMAX  =            4
   number of lm-projection operators is LMMAX =            8
 
 Optimization of the real space projectors (new method)

 maximal supplied QI-value         = 16.25
 optimisation between [QCUT,QGAM] = [ 10.73, 21.61] = [ 32.22,130.83] Ry 
 Optimized for a Real-space Cutoff    1.42 Angstroem

   l    n(q)    QCUT    max X(q) W(low)/X(q) W(high)/X(q)  e(spline) 
   2      8    10.726     7.143    0.22E-03    0.16E-03    0.73E-07
   2      8    10.726     5.586    0.40E-03    0.26E-03    0.10E-06
   0      9    10.726    12.382    0.25E-04    0.21E-05    0.37E-07
   0      9    10.726     6.622    0.42E-04    0.48E-05    0.77E-07
   1      9    10.726     7.935    0.27E-03    0.13E-04    0.16E-06
   1      9    10.726     2.425    0.23E-03    0.15E-04    0.14E-06
 Optimization of the real space projectors (new method)

 maximal supplied QI-value         = 24.76
 optimisation between [QCUT,QGAM] = [ 10.64, 21.54] = [ 31.73,129.89] Ry 
 Optimized for a Real-space Cutoff    1.23 Angstroem

   l    n(q)    QCUT    max X(q) W(low)/X(q) W(high)/X(q)  e(spline) 
   0      8    10.645    20.381    0.38E-03    0.60E-03    0.15E-06
   0      8    10.645    15.268    0.40E-03    0.65E-03    0.17E-06
   1      7    10.645     5.964    0.30E-03    0.63E-03    0.18E-06
   1      7    10.645     5.382    0.24E-03    0.53E-03    0.16E-06
 Optimization of the real space projectors (new method)

 maximal supplied QI-value         = 19.84
 optimisation between [QCUT,QGAM] = [ 10.71, 21.63] = [ 32.15,130.99] Ry 
 Optimized for a Real-space Cutoff    1.19 Angstroem

   l    n(q)    QCUT    max X(q) W(low)/X(q) W(high)/X(q)  e(spline) 
   0      8    10.715   160.924    0.37E-03    0.37E-04    0.63E-07
   0      8    10.715   130.086    0.37E-03    0.36E-04    0.63E-07
   1      7    10.715    74.434    0.19E-03    0.56E-03    0.65E-07
   1      7    10.715    49.120    0.19E-03    0.55E-03    0.63E-07
  PAW_PBE Ga_d 06Jul2010                :
 energy of atom  1       EATOM=-2148.8298
 kinetic energy error for atom=    0.0038 (will be added to EATOM!!)
   PAW_PBE O 08Apr2002                  :
 energy of atom  2       EATOM= -432.3788
 kinetic energy error for atom=    0.0389 (will be added to EATOM!!)
  PAW_PBE P 06Sep2000                   :
 energy of atom  3       EATOM= -176.0430
 kinetic energy error for atom=    0.0019 (will be added to EATOM!!)
 
 
 POSCAR: Ga48 O72
  positions in direct lattice
  velocities in cartesian coordinates
 exchange correlation table for  LEXCH =        8
   RHO(1)=    0.500       N(1)  =     2000
   RHO(2)=  100.500       N(2)  =     4000
 


--------------------------------------------------------------------------------------------------------


 ion  position               nearest neighbor table
   1  0.656  0.002  0.158-  78 1.91  84 1.96  82 1.98  66 2.01  60 2.06  64 2.06
   2  0.654  0.005  0.656-  83 1.93  85 1.97  79 1.98  61 1.98  67 2.06  65 2.09
   3  0.684  0.334  0.151-  86 1.79  68 1.91  78 1.96  80 1.97  62 2.23  60 2.24
   4  0.658  0.340  0.655-  81 1.95  79 1.95  87 1.96  69 1.99  63 2.05  61 2.08
   5  0.657  0.664  0.158-  80 1.91  88 1.93  82 1.97  62 2.01  70 2.06  64 2.07
   6  0.648  0.673  0.657-  89 1.93  83 1.94  63 1.98  81 1.98  65 2.07  71 2.09
   7  0.843  0.162  0.364-  60 1.97  72 1.99  74 2.00  68 2.25  66 2.27 119 2.29
   8  0.835  0.172  0.840-  90 1.92  73 1.96  75 1.97  61 2.00  67 2.07  69 2.09
   9  0.843  0.505  0.349-  74 1.92  91 1.94  76 1.94  62 1.98  68 2.08  70 2.09
  10  0.836  0.511  0.837-  92 1.94  77 1.96  75 1.97  63 2.00  69 2.03  71 2.04
  11  0.844  0.836  0.350-  93 1.84  72 1.94  76 1.98  66 2.02  70 2.06  64 2.16
  12  0.838  0.843  0.840-  94 1.92  77 1.95  73 1.95  67 2.01  65 2.08  71 2.08
  13  0.588  0.170  0.391-  54 1.85  79 1.85  60 1.85  56 1.86
  14  0.596  0.200  0.906-  55 1.93  78 1.95  57 1.96  61 1.99  16 2.37
  15  0.593  0.502  0.392-  62 1.84  81 1.84  58 1.85  56 1.86
  16  0.604  0.459  0.907-  59 1.91  80 1.95  63 1.98  57 2.09  14 2.37
  17  0.587  0.840  0.398-  83 1.84  58 1.86  54 1.86  64 1.87
  18  0.575  0.831  0.895-  82 1.87  59 1.88  55 1.88  65 1.91
  19  0.904  0.004  0.106-  66 1.85  52 1.86  48 1.86  73 1.87
  20  0.922  0.035  0.606-  72 1.96  49 1.97  67 1.99  53 2.02  22 2.44
  21  0.912  0.342  0.102-  48 1.84  75 1.84  50 1.85  68 1.88
  22  0.907  0.301  0.598-  74 1.92  51 1.94  69 1.98  20 2.44
  23  0.900  0.674  0.101-  77 1.85  52 1.86  50 1.86  70 1.87
  24  0.908  0.662  0.602-  53 1.84  76 1.84  51 1.88  71 1.88
  25  0.157  0.164  0.155- 113 1.94  48 1.96  95 1.97 115 1.99 101 2.03  97 2.17  29 2.90
  26  0.160  0.134  0.592-  49 1.88 114 1.94 116 2.02 102 2.06 119 2.41
  27  0.159  0.510  0.155- 115 1.95  50 1.95 117 1.97 103 2.00  97 2.04  99 2.05
  28  0.154  0.494  0.654- 116 1.91 100 1.94 118 1.97  51 1.98  98 1.99 104 2.04
  29  0.157  0.846  0.149-  95 1.92 117 1.94 113 1.95  52 1.97 105 2.08  99 2.15  25 2.90
  30  0.149  0.826  0.664- 114 1.89  53 1.91  96 1.95 100 1.99 118 2.04
  31  0.330  0.005  0.339-  95 1.91 111 1.92 107 1.99  54 2.00 101 2.00 105 2.17
  32  0.348  0.987  0.848- 108 1.90  96 1.94 112 1.97  55 1.98 106 1.99 102 2.18
  33  0.336  0.336  0.341- 109 1.94  56 1.97 107 1.97  97 1.99 101 2.02 103 2.09
  34  0.313  0.321  0.845-  57 1.80  98 1.87 108 1.97 110 2.08 102 2.14 104 2.28
  35  0.341  0.668  0.334- 111 1.89  58 1.95 103 1.97 109 1.97  99 2.03 105 2.05
  36  0.358  0.654  0.847- 110 1.86 106 1.92  59 1.95 112 1.98 104 2.01 100 2.36
  37  0.095  0.018  0.871-  96 1.85  90 1.90 113 1.92  94 1.94  49 2.03
  38  0.087  0.339  0.396-  91 1.86 116 1.91  97 1.91 119 2.18
  39  0.079  0.349  0.895-  98 1.84  92 1.84  90 1.85 115 1.85
  40  0.092  0.685  0.398-  93 1.76 118 1.84  99 1.89  91 1.90
  41  0.094  0.687  0.891- 117 1.85 100 1.85  94 1.86  92 1.90
  42  0.398  0.199  0.091- 108 1.98 101 1.99  84 2.00  86 2.05  44 2.40
  43  0.405  0.174  0.609-  85 1.85  87 1.85 102 1.87 107 1.87
  44  0.404  0.462  0.093- 110 1.90  86 1.97 103 1.98  88 1.98  42 2.40
  45  0.403  0.508  0.601- 104 1.84  89 1.84 109 1.85  87 1.88
  46  0.431  0.830  0.117- 112 1.80 105 1.85  88 1.89  84 1.89
  47  0.381  0.849  0.596- 106 1.84 111 1.84  85 1.91  89 1.99 114 2.07
  48  0.993  0.171  0.130-  21 1.84  19 1.86  25 1.96
  49  0.075  0.077  0.699-  26 1.88  20 1.97  37 2.03
  50  0.996  0.512  0.126-  21 1.85  23 1.86  27 1.95
  51  0.988  0.486  0.618-  24 1.88  22 1.94  28 1.98
  52  0.993  0.837  0.121-  23 1.86  19 1.86  29 1.97
  53  0.989  0.833  0.619-  24 1.84  30 1.91  20 2.02
  54  0.497  0.006  0.371-  13 1.85  17 1.86  31 2.00
  55  0.512  0.020  0.878-  18 1.88  14 1.93  32 1.98
  56  0.500  0.338  0.370-  13 1.86  15 1.86  33 1.97
  57  0.463  0.325  0.869-  34 1.80  14 1.96  16 2.09
  58  0.504  0.668  0.370-  15 1.85  17 1.86  35 1.95
  59  0.521  0.637  0.881-  18 1.88  16 1.91  36 1.95
  60  0.681  0.161  0.287-  13 1.85   7 1.97   1 2.06   3 2.24
  61  0.669  0.166  0.773-   2 1.98  14 1.99   8 2.00   4 2.08
  62  0.679  0.508  0.284-  15 1.84   9 1.98   5 2.01   3 2.23
  63  0.670  0.511  0.772-  16 1.98   6 1.98  10 2.00   4 2.05
  64  0.665  0.833  0.277-  17 1.87   1 2.06   5 2.07  11 2.16
  65  0.665  0.839  0.781-  18 1.91   6 2.07  12 2.08   2 2.09
  66  0.823  0.988  0.221-  19 1.85   1 2.01  11 2.02   7 2.27
  67  0.826  0.004  0.719-  20 1.99  12 2.01   2 2.06   8 2.07
  68  0.840  0.338  0.227-  21 1.88   3 1.91   9 2.08   7 2.25
  69  0.823  0.344  0.719-  22 1.98   4 1.99  10 2.03   8 2.09
  70  0.827  0.674  0.225-  23 1.87   5 2.06  11 2.06   9 2.09
  71  0.823  0.675  0.716-  24 1.88  10 2.04  12 2.08   6 2.09
  72  0.816  0.987  0.456-  11 1.94  20 1.96   7 1.99
  73  0.831  0.006  0.946-  19 1.87  12 1.95   8 1.96
  74  0.814  0.346  0.445-  22 1.92   9 1.92   7 2.00
  75  0.839  0.342  0.944-  21 1.84   8 1.97  10 1.97
  76  0.822  0.667  0.449-  24 1.84   9 1.94  11 1.98
  77  0.829  0.677  0.942-  23 1.85  12 1.95  10 1.96
  78  0.691  0.155  0.061-   1 1.91  14 1.95   3 1.96
  79  0.659  0.173  0.551-  13 1.85   4 1.95   2 1.98
  80  0.697  0.513  0.062-   5 1.91  16 1.95   3 1.97
  81  0.659  0.507  0.552-  15 1.84   4 1.95   6 1.98
  82  0.656  0.833  0.053-  18 1.87   5 1.97   1 1.98
  83  0.660  0.838  0.556-  17 1.84   2 1.93   6 1.94
  84  0.493  0.020  0.128-  46 1.89   1 1.96  42 2.00
  85  0.488  0.004  0.623-  43 1.85  47 1.91   2 1.97
  86  0.536  0.332  0.138-   3 1.79  44 1.97  42 2.05
  87  0.494  0.341  0.629-  43 1.85  45 1.88   4 1.96
  88  0.496  0.642  0.131-  46 1.89   5 1.93  44 1.98
  89  0.486  0.678  0.617-  45 1.84   6 1.93  47 1.99
  90  0.997  0.178  0.875-  39 1.85  37 1.90   8 1.92
  91  0.005  0.512  0.374-  38 1.86  40 1.90   9 1.94
  92  0.998  0.521  0.872-  39 1.84  41 1.90  10 1.94
  93  0.997  0.833  0.375-  40 1.76  11 1.84
  94  0.999  0.849  0.867-  41 1.86  12 1.92  37 1.94
  95  0.173  0.998  0.266-  31 1.91  29 1.92  25 1.97
  96  0.200  0.903  0.824-  37 1.85  32 1.94  30 1.95
  97  0.170  0.346  0.277-  38 1.91  33 1.99  27 2.04  25 2.17
  98  0.159  0.347  0.781-  39 1.84  34 1.87  28 1.99
  99  0.171  0.674  0.278-  40 1.89  35 2.03  27 2.05  29 2.15
 100  0.163  0.651  0.768-  41 1.85  28 1.94  30 1.99  36 2.36
 101  0.325  0.170  0.224-  42 1.99  31 2.00  33 2.02  25 2.03
 102  0.311  0.158  0.713-  43 1.87  26 2.06  34 2.14  32 2.18
 103  0.325  0.507  0.219-  35 1.97  44 1.98  27 2.00  33 2.09
 104  0.324  0.505  0.717-  45 1.84  36 2.01  28 2.04  34 2.28
 105  0.330  0.832  0.211-  46 1.85  35 2.05  29 2.08  31 2.17
 106  0.370  0.819  0.748-  47 1.84  36 1.92  32 1.99
 107  0.330  0.172  0.449-  43 1.87  33 1.97  31 1.99
 108  0.302  0.142  0.935-  32 1.90  34 1.97  42 1.98
 109  0.333  0.504  0.442-  45 1.85  33 1.94  35 1.97
 110  0.313  0.512  0.941-  36 1.86  44 1.90  34 2.08
 111  0.339  0.831  0.434-  47 1.84  35 1.89  31 1.92
 112  0.380  0.821  0.958-  46 1.80  32 1.97  36 1.98
 113  0.153  0.010  0.040-  37 1.92  25 1.94  29 1.95
 114  0.225  0.944  0.574-  30 1.89  26 1.94  47 2.07
 115  0.153  0.339  0.053-  39 1.85  27 1.95  25 1.99
 116  0.183  0.344  0.551-  38 1.91  28 1.91  26 2.02
 117  0.165  0.677  0.050-  41 1.85  29 1.94  27 1.97
 118  0.171  0.662  0.553-  40 1.84  28 1.97  30 2.04
 119  0.031  0.114  0.401-  38 2.18   7 2.29  26 2.41
 
  LATTYP: Found a simple monoclinic cell.
 ALAT       =    11.6348202465
 B/A-ratio  =     0.7858051831
 C/A-ratio  =     1.0554931797
 COS(beta)  =    -0.2379290539
  
  Lattice vectors:
  
 A1 = (   0.0000000000,  -2.7682617730, -11.3006977184)
 A2 = (  -9.1427020537,   0.0000000000,   0.0000000000)
 A3 = (   0.0000000000,  12.2804734172,   0.0000000000)


Analysis of symmetry for initial positions (statically):
=====================================================================
 Subroutine PRICEL returns:
 Original cell was already a primitive cell.
 

 Routine SETGRP: Setting up the symmetry group for a 
 simple monoclinic supercell.


 Subroutine GETGRP returns: Found  1 space group operations
 (whereof  1 operations were pure point group operations)
 out of a pool of  4 trial point group operations.


The static configuration has the point symmetry C_1 .


Analysis of symmetry for dynamics (positions and initial velocities):
=====================================================================
 Subroutine PRICEL returns:
 Original cell was already a primitive cell.
 

 Routine SETGRP: Setting up the symmetry group for a 
 simple monoclinic supercell.


 Subroutine GETGRP returns: Found  1 space group operations
 (whereof  1 operations were pure point group operations)
 out of a pool of  4 trial point group operations.


The dynamic configuration has the point symmetry C_1 .


 Subroutine INISYM returns: Found  1 space group operations
 (whereof  1 operations are pure point group operations),
 and found     1 'primitive' translations


----------------------------------------------------------------------------------------

                                     Primitive cell                                     

  volume of cell :    1268.8052

  direct lattice vectors                    reciprocal lattice vectors
     0.000000000 12.280473417  0.000000000     0.000000000  0.081430085 -0.019947423
     9.142702054  0.000000000  0.000000000     0.109376855 -0.000000000  0.000000000
     0.000000000 -2.768261773-11.300697718     0.000000000  0.000000000 -0.088490111

  length of vectors
    12.280473417  9.142702054 11.634820246     0.083837691  0.109376855  0.088490111

  position of ions in fractional coordinates (direct lattice)
     0.656364724  0.002493633  0.158297088
     0.653779200  0.004726586  0.655920062
     0.683973867  0.333761379  0.151128167
     0.657512259  0.339967963  0.655210327
     0.656627507  0.663877886  0.157525539
     0.647557634  0.673423952  0.656758190
     0.842816391  0.161988952  0.363771233
     0.835295352  0.171576242  0.839547412
     0.843288736  0.505120901  0.348916925
     0.835816846  0.510980113  0.837017110
     0.844073423  0.836006362  0.350433008
     0.838452452  0.843236747  0.839700471
     0.588047517  0.170271481  0.391145379
     0.596354499  0.200154590  0.905751614
     0.592626856  0.502041360  0.392368702
     0.604410570  0.459313552  0.907034823
     0.587356095  0.839712853  0.397819997
     0.574644444  0.830719670  0.894523243
     0.904411888  0.003855632  0.105791532
     0.922465483  0.035425004  0.605789195
     0.912323213  0.341511178  0.101547088
     0.907492021  0.301310703  0.598226993
     0.900442976  0.673506397  0.101123235
     0.908136344  0.661885310  0.602242922
     0.156712491  0.163776732  0.155286518
     0.160222725  0.133700500  0.591995512
     0.159110156  0.509538788  0.155327651
     0.153990996  0.493996710  0.653811301
     0.157094419  0.846395098  0.149030708
     0.149132901  0.826252766  0.663790047
     0.330138779  0.005024707  0.338971368
     0.348229969  0.987286600  0.848217739
     0.335681931  0.336356036  0.340566143
     0.312736210  0.320622099  0.844936649
     0.340863821  0.668300088  0.334061742
     0.358005017  0.653528984  0.846962035
     0.094656912  0.018462222  0.871202003
     0.086737263  0.339379638  0.396258144
     0.078915190  0.349202997  0.895219202
     0.092220792  0.685463751  0.398003558
     0.093937562  0.687101573  0.890886464
     0.398362672  0.199219707  0.090983198
     0.405374457  0.174243852  0.608932563
     0.403933694  0.461979741  0.093012866
     0.403155960  0.508490894  0.601280160
     0.431327441  0.829503969  0.116561895
     0.381348682  0.848636595  0.595567414
     0.993448824  0.170600138  0.130088397
     0.075066714  0.076828620  0.698968152
     0.995687558  0.511840515  0.126084502
     0.988427061  0.485576642  0.617845923
     0.992748522  0.836777126  0.120948310
     0.989383865  0.833095991  0.619355109
     0.497135699  0.006160062  0.371171589
     0.512226744  0.019958961  0.878253715
     0.500043449  0.337911920  0.369935021
     0.462873322  0.324984291  0.868702512
     0.503950016  0.667947767  0.370056648
     0.520546458  0.637301514  0.880995344
     0.681424569  0.160868091  0.287373946
     0.669285915  0.166030582  0.772636268
     0.679340059  0.508336060  0.283601284
     0.669709409  0.510561242  0.772315371
     0.664688424  0.833303941  0.277120231
     0.664681707  0.838656369  0.781012599
     0.823169071  0.988123348  0.220723128
     0.825721474  0.003629708  0.718796535
     0.840199627  0.337857923  0.227399482
     0.822518421  0.344336109  0.719475275
     0.827429002  0.673598671  0.224576624
     0.822566039  0.675413453  0.715857212
     0.816002958  0.987472001  0.455932464
     0.830572813  0.006332646  0.945888741
     0.814382808  0.345562193  0.445197561
     0.839140788  0.342442187  0.943735285
     0.822422099  0.667118157  0.448886008
     0.828579075  0.677164602  0.941789022
     0.691153406  0.154606968  0.060878715
     0.658597675  0.173021416  0.550757355
     0.696709731  0.513269526  0.061881198
     0.659091546  0.506542946  0.551631043
     0.655612238  0.832844527  0.052678895
     0.659885110  0.837765852  0.555699412
     0.493111443  0.020164803  0.128353080
     0.488486748  0.004141139  0.622605769
     0.535842231  0.332473041  0.137797366
     0.493833290  0.340998009  0.628515733
     0.496277720  0.641534099  0.131098512
     0.485692971  0.678393045  0.616699098
     0.996513131  0.178387213  0.875409689
     0.004719179  0.512202018  0.373502328
     0.997853320  0.520940052  0.871757509
     0.997409398  0.833239622  0.375279440
     0.999184540  0.848511807  0.867030091
     0.173476561  0.997912443  0.266020877
     0.199833722  0.903066193  0.824339360
     0.170299004  0.346366401  0.277143796
     0.159192033  0.346978072  0.780610911
     0.170993024  0.673894668  0.277595914
     0.162524278  0.651048887  0.768041628
     0.324818992  0.169834011  0.224152964
     0.311271150  0.157517939  0.712938961
     0.325259384  0.507411170  0.218850885
     0.323796013  0.504651345  0.716503572
     0.329872803  0.832170100  0.211437144
     0.369693540  0.818809606  0.748237656
     0.330255700  0.172436589  0.448741993
     0.302427883  0.141735395  0.935489593
     0.333462417  0.504299065  0.442237589
     0.313213796  0.511992637  0.941381998
     0.339488892  0.831498300  0.433558240
     0.379848165  0.820781686  0.958407550
     0.153478794  0.009500636  0.039832947
     0.224542824  0.943837613  0.574137115
     0.152992488  0.339379062  0.053021820
     0.183297544  0.344201191  0.551090474
     0.164516288  0.677025067  0.050103660
     0.170543066  0.661953462  0.553157621
     0.030920734  0.113539053  0.400820109

  ion indices of the primitive-cell ions
   primitive index   ion index
                 1           1
                 2           2
                 3           3
                 4           4
                 5           5
                 6           6
                 7           7
                 8           8
                 9           9
                10          10
                11          11
                12          12
                13          13
                14          14
                15          15
                16          16
                17          17
                18          18
                19          19
                20          20
                21          21
                22          22
                23          23
                24          24
                25          25
                26          26
                27          27
                28          28
                29          29
                30          30
                31          31
                32          32
                33          33
                34          34
                35          35
                36          36
                37          37
                38          38
                39          39
                40          40
                41          41
                42          42
                43          43
                44          44
                45          45
                46          46
                47          47
                48          48
                49          49
                50          50
                51          51
                52          52
                53          53
                54          54
                55          55
                56          56
                57          57
                58          58
                59          59
                60          60
                61          61
                62          62
                63          63
                64          64
                65          65
                66          66
                67          67
                68          68
                69          69
                70          70
                71          71
                72          72
                73          73
                74          74
                75          75
                76          76
                77          77
                78          78
                79          79
                80          80
                81          81
                82          82
                83          83
                84          84
                85          85
                86          86
                87          87
                88          88
                89          89
                90          90
                91          91
                92          92
                93          93
                94          94
                95          95
                96          96
                97          97
                98          98
                99          99
               100         100
               101         101
               102         102
               103         103
               104         104
               105         105
               106         106
               107         107
               108         108
               109         109
               110         110
               111         111
               112         112
               113         113
               114         114
               115         115
               116         116
               117         117
               118         118
               119         119

----------------------------------------------------------------------------------------

 
 
 KPOINTS: Automatic mesh                          

Automatic generation of k-mesh.
 Grid dimensions read from file:
 generate k-points for:    2    2    2

 Generating k-lattice:

  Cartesian coordinates                     Fractional coordinates (reciprocal lattice)
     0.000000000  0.040715043 -0.009973711     0.500000000  0.000000000  0.000000000
     0.054688428 -0.000000000  0.000000000     0.000000000  0.500000000  0.000000000
     0.000000000  0.000000000 -0.044245056     0.000000000  0.000000000  0.500000000

  Length of vectors
     0.041918846  0.054688428  0.044245056

  Shift w.r.t. Gamma in fractional coordinates (k-lattice)
     0.000000000  0.000000000  0.000000000

 
 Subroutine IBZKPT returns following result:
 ===========================================
 
 Found      8 irreducible k-points:
 
 Following reciprocal coordinates:
            Coordinates               Weight
  0.000000  0.000000  0.000000      1.000000
  0.500000  0.000000  0.000000      1.000000
  0.000000  0.500000  0.000000      1.000000
  0.500000  0.500000  0.000000      1.000000
  0.000000  0.000000  0.500000      1.000000
  0.500000  0.000000  0.500000      1.000000
  0.000000  0.500000  0.500000      1.000000
  0.500000  0.500000  0.500000      1.000000
 
 Following cartesian coordinates:
            Coordinates               Weight
  0.000000  0.000000 -0.000000      1.000000
  0.000000  0.040715 -0.009974      1.000000
  0.054688  0.000000 -0.000000      1.000000
  0.054688  0.040715 -0.009974      1.000000
  0.000000  0.000000 -0.044245      1.000000
  0.000000  0.040715 -0.054219      1.000000
  0.054688  0.000000 -0.044245      1.000000
  0.054688  0.040715 -0.054219      1.000000
 
 
 Subroutine IBZKPT_HF returns following result:
 ==============================================
 
 Found      8 k-points in 1st BZ
 the following      8 k-points will be used (e.g. in the exchange kernel)
 Following reciprocal coordinates:   # in IRBZ
  0.000000  0.000000  0.000000    0.12500000   1 t-inv F
  0.500000  0.000000  0.000000    0.12500000   2 t-inv F
  0.000000  0.500000  0.000000    0.12500000   3 t-inv F
  0.500000  0.500000  0.000000    0.12500000   4 t-inv F
  0.000000  0.000000  0.500000    0.12500000   5 t-inv F
  0.500000  0.000000  0.500000    0.12500000   6 t-inv F
  0.000000  0.500000  0.500000    0.12500000   7 t-inv F
  0.500000  0.500000  0.500000    0.12500000   8 t-inv F


--------------------------------------------------------------------------------------------------------




 Dimension of arrays:
   k-points           NKPTS =      8   k-points in BZ     NKDIM =      8   number of bands    NBANDS=    633
   number of dos      NEDOS =    301   number of ions     NIONS =    119
   non local maximal  LDIM  =      6   non local SUM 2l+1 LMDIM =     18
   total plane-waves  NPLWV = 184320
   max r-space proj   IRMAX =   1800   max aug-charges    IRDMAX=   5704
   dimension x,y,z NGX =    64 NGY =   48 NGZ =   60
   dimension x,y,z NGXF=   128 NGYF=   96 NGZF=  120
   support grid    NGXF=   128 NGYF=   96 NGZF=  120
   ions per type =              47  71   1
   NGX,Y,Z   is equivalent  to a cutoff of   8.66,  8.73,  8.57 a.u.
   NGXF,Y,Z  is equivalent  to a cutoff of  17.33, 17.46, 17.15 a.u.

 SYSTEM =  unknown system                          
 POSCAR =  Ga48 O72                                

 Startparameter for this run:
   NWRITE =      2    write-flag & timer
   PREC   = normal    normal or accurate (medium, high low for compatibility)
   ISTART =      0    job   : 0-new  1-cont  2-samecut
   ICHARG =      0    charge: 1-file 2-atom 10-const
   ISPIN  =      1    spin polarized calculation?
   LNONCOLLINEAR =      F non collinear calculations
   LSORBIT =      F    spin-orbit coupling
   INIWAV =      1    electr: 0-lowe 1-rand  2-diag
   LASPH  =      F    aspherical Exc in radial PAW
 Electronic Relaxation 1
   ENCUT  =  450.0 eV  33.07 Ry    5.75 a.u.  21.24 15.81 20.12*2*pi/ulx,y,z
   ENINI  =  450.0     initial cutoff
   ENAUG  =  605.4 eV  augmentation charge cutoff
   NELM   =    500;   NELMIN=  2; NELMDL= -5     # of ELM steps 
   EDIFF  = 0.1E-04   stopping-criterion for ELM
   LREAL  =      T    real-space projection
   NLSPLINE    = F    spline interpolate recip. space projectors
   LCOMPAT=      F    compatible to vasp.4.4
   GGA_COMPAT  = T    GGA compatible to vasp.4.4-vasp.4.6
   LMAXPAW     = -100 max onsite density
   LMAXMIX     =    2 max onsite mixed and CHGCAR
   VOSKOWN=      0    Vosko Wilk Nusair interpolation
   ROPT   =   -0.00050  -0.00050  -0.00050
 Ionic relaxation
   EDIFFG = -.5E-02   stopping-criterion for IOM
   NSW    =      0    number of steps for IOM
   NBLOCK =      1;   KBLOCK =      1    inner block; outer block 
   IBRION =     -1    ionic relax: 0-MD 1-quasi-New 2-CG
   NFREE  =      0    steps in history (QN), initial steepest desc. (CG)
   ISIF   =      2    stress and relaxation
   IWAVPR =     10    prediction:  0-non 1-charg 2-wave 3-comb
   ISYM   =      3    0-nonsym 1-usesym 2-fastsym
   LCORR  =      T    Harris-Foulkes like correction to forces

   POTIM  = 0.5000    time-step for ionic-motion
   TEIN   =    0.0    initial temperature
   TEBEG  =    0.0;   TEEND  =   0.0 temperature during run
   SMASS  =  -3.00    Nose mass-parameter (am)
   estimated Nose-frequenzy (Omega)   =  0.10E-29 period in steps = 0.13E+47 mass=  -0.345E-26a.u.
   SCALEE = 1.0000    scale energy and forces
   NPACO  =    256;   APACO  = 10.0  distance and # of slots for P.C.
   PSTRESS=    0.0 pullay stress

  Mass of Ions in am
   POMASS =  69.72 16.00 30.97
  Ionic Valenz
   ZVAL   =  13.00  6.00  5.00
  Atomic Wigner-Seitz radii
   RWIGS  =  -1.00 -1.00 -1.00
  virtual crystal weights 
   VCA    =   1.00  1.00  1.00
   NELECT =    1056.0000    total number of electrons
   NUPDOWN=      -1.0000    fix difference up-down

 DOS related values:
   EMIN   =  10.00;   EMAX   =-10.00  energy-range for DOS
   EFERMI =   0.00;   METHOD = LEGACY      
   ISMEAR =     0;   SIGMA  =   0.05  broadening in eV -4-tet -1-fermi 0-gaus

 Electronic relaxation 2 (details)
   IALGO  =     58    algorithm
   LDIAG  =      T    sub-space diagonalisation (order eigenvalues)
   LSUBROT=      F    optimize rotation matrix (better conditioning)
   TURBO    =      0    0=normal 1=particle mesh
   IRESTART =      0    0=no restart 2=restart with 2 vectors
   NREBOOT  =      0    no. of reboots
   NMIN     =      0    reboot dimension
   EREF     =   0.00    reference energy to select bands
   IMIX   =      4    mixing-type and parameters
     AMIX     =   0.40;   BMIX     =  1.00
     AMIX_MAG =   1.60;   BMIX_MAG =  1.00
     AMIN     =   0.10
     WC   =   100.;   INIMIX=   1;  MIXPRE=   1;  MAXMIX= -45

 Intra band minimization:
   WEIMIN = 0.0000     energy-eigenvalue tresh-hold
   EBREAK =  0.39E-08  absolut break condition
   DEPER  =   0.30     relativ break condition  

   TIME   =   0.40     timestep for ELM

  volume/ion in A,a.u.               =      10.66        71.95
  Fermi-wavevector in a.u.,A,eV,Ry     =   1.539919  2.910025 32.264175  2.371350
  Thomas-Fermi vector in A             =   2.646079
 
 Write flags
   LWAVE        =      T    write WAVECAR
   LDOWNSAMPLE  =      F    k-point downsampling of WAVECAR
   LCHARG       =      T    write CHGCAR
   LVTOT        =      F    write LOCPOT, total local potential
   LVHAR        =      F    write LOCPOT, Hartree potential only
   LELF         =      F    write electronic localiz. function (ELF)
   LORBIT       =      0    0 simple, 1 ext, 2 COOP (PROOUT), +10 PAW based schemes


 Dipole corrections
   LMONO  =      F    monopole corrections only (constant potential shift)
   LDIPOL =      F    correct potential (dipole corrections)
   IDIPOL =      0    1-x, 2-y, 3-z, 4-all directions 
   EPSILON=  1.0000000 bulk dielectric constant

 Exchange correlation treatment:
   GGA     =    --    GGA type
   LEXCH   =     8    internal setting for exchange type
   LIBXC   =     F    Libxc                    
   VOSKOWN =     0    Vosko Wilk Nusair interpolation
   EXXOEP  =     0    0=HF, 1=EXX-LHF (local Hartree Fock) 2=EXX OEP
   LHFCALC =     T    Hartree Fock is set to
   LSYMGRAD=     F    symmetrize gradient (conserves proper symmetry)
   PRECFOCK=fast      Normal, Fast or Accurate (Low or Medium for compatibility)
   LRHFCALC=     F    long range Hartree Fock
   LRSCOR  =     F    long range correlation only (use DFT for short range part)
   LTHOMAS =     F    Thomas Fermi screening in HF
   LMODELHF=     F    short range full HF, long range fraction AEXX
   FOCKCORR=     1    mode to apply convergence corrections
   LFOCKACE=     T    use Adeptively-Compressed-Exchange operator
   ENCUT4O =  -1.0   cutoff for four orbital integrals eV
   LMAXFOCK=     4    L truncation for augmentation on plane wave grid
   LMAXFOCKAE=  -1    L truncation for all-electron charge restoration on plane wave grid
   NMAXFOCKAE=   1    number of basis functions for all-electron charge restoration
   LFOCKAEDFT=     F  apply the AE augmentation even for DFT
   NKREDX  =     1    reduce k-point grid by
   NKREDY  =     1    reduce k-point grid by
   NKREDZ  =     1    reduce k-point grid by
   SHIFTRED=     F    shift reduced grid of Gamma
   HFKIDENT=     F    idential grid for each k-point
   ODDONLY =     F    use only odd q-grid points
   EVENONLY=     F    use only even q-grid points
   HFALPHA =   -1.0000 decay constant for conv. correction
   MCALPHA =    0.0000 extent of test-charge in conv. correction in multipole expansion
   AEXX    =    0.3500 exact exchange contribution
   HFSCREEN=    0.1800 screening length (either q_TF or 0.3 A-1)
   HFSCREENC=   0.1800 screening length for correlation (either q_TF or 0.3 A-1)
   HFRCUT  =    0.0000 spherical cutoff for potential kernel
   ALDAX   =    0.6500 LDA exchange part
   AGGAX   =    0.6500 GGA exchange part
   ALDAC   =    1.0000 LDA correlation
   AGGAC   =    1.0000 GGA correlation
   ENCUTFOCK=  -1.0 apply spherical cutoff to Coloumb kernel
   NBANDSGWLOW=     1    first orbital included in HF term
   NBLOCK_FOCK=    64    blocking factor in FOCK_ACC

 Linear response parameters
   LEPSILON=     F    determine dielectric tensor
   LRPA    =     F    only Hartree local field effects (RPA)
   LNABLA  =     F    use nabla operator in PAW spheres
   LVEL    =     F    velocity operator in full k-point grid
   CSHIFT  =0.1000    complex shift for real part using Kramers Kronig
   OMEGAMAX=  -1.0    maximum frequency
   DEG_THRESHOLD= 0.2000000E-02 threshold for treating states as degnerate
   RTIME   =   -0.100 relaxation time in fs
  (WPLASMAI=    0.000 imaginary part of plasma frequency in eV, 0.658/RTIME)
   DFIELD  = 0.0000000 0.0000000 0.0000000 field for delta impulse in time
 
  Optional k-point grid parameters
   LKPOINTS_OPT  =     F    use optional k-point grid
   KPOINTS_OPT_MODE=     1    mode for optional k-point grid
 
 Orbital magnetization related:
   ORBITALMAG=     F  switch on orbital magnetization
   LCHIMAG   =     F  perturbation theory with respect to B field
   DQ        =  0.001000  dq finite difference perturbation B field
   LLRAUG    =     F  two centre corrections for induced B field
   LBONE     =     F  B-component reconstruction in AE one-centre
   LVGVCALC  =     T  calculate vGv susceptibility
   LVGVAPPL  =     F  apply vGv susceptibility instead of pGv for G=0

 Random number generation:
   RANDOM_GENERATOR = DEFAULT
   PCG_SEED         = not used


--------------------------------------------------------------------------------------------------------


 Static calculation
 charge density and potential will be updated during run
 non-spin polarized calculation
 Conjugate gradient for all bands (Freysoldt, et al. PRB 79, 241103 (2009))
 preconditioned conjugated gradient                                        
 perform sub-space diagonalisation
    before iterative eigenvector-optimisation
 modified Broyden-mixing scheme, WC =      100.0
 initial mixing is a Kerker type mixing with AMIX =  0.4000 and BMIX =      1.0000
 Hartree-type preconditioning will be used
 using additional bands           105
 real space projection scheme for non local part
 use partial core corrections
 no Harris-corrections to forces 
 use gradient corrections 
 use of overlap-Matrix (Vanderbilt PP)
 Gauss-broadening in eV      SIGMA  =   0.05


--------------------------------------------------------------------------------------------------------


  energy-cutoff  :      450.00
  volume of cell :     1268.81
      direct lattice vectors                 reciprocal lattice vectors
     0.000000000 12.280473417  0.000000000     0.000000000  0.081430085 -0.019947423
     9.142702054  0.000000000  0.000000000     0.109376855 -0.000000000  0.000000000
     0.000000000 -2.768261773-11.300697718     0.000000000  0.000000000 -0.088490111

  length of vectors
    12.280473417  9.142702054 11.634820246     0.083837691  0.109376855  0.088490111


 
 k-points in units of 2pi/SCALE and weight: Automatic mesh                          
   0.00000000  0.00000000 -0.00000000       0.125
   0.00000000  0.04071504 -0.00997371       0.125
   0.05468843  0.00000000 -0.00000000       0.125
   0.05468843  0.04071504 -0.00997371       0.125
   0.00000000  0.00000000 -0.04424506       0.125
   0.00000000  0.04071504 -0.05421877       0.125
   0.05468843  0.00000000 -0.04424506       0.125
   0.05468843  0.04071504 -0.05421877       0.125
 
 k-points in reciprocal lattice and weights: Automatic mesh                          
   0.00000000  0.00000000  0.00000000       0.125
   0.50000000  0.00000000  0.00000000       0.125
   0.00000000  0.50000000  0.00000000       0.125
   0.50000000  0.50000000  0.00000000       0.125
   0.00000000  0.00000000  0.50000000       0.125
   0.50000000  0.00000000  0.50000000       0.125
   0.00000000  0.50000000  0.50000000       0.125
   0.50000000  0.50000000  0.50000000       0.125
 
 position of ions in fractional coordinates (direct lattice) 
   0.65636472  0.00249363  0.15829709
   0.65377920  0.00472659  0.65592006
   0.68397387  0.33376138  0.15112817
   0.65751226  0.33996796  0.65521033
   0.65662751  0.66387789  0.15752554
   0.64755763  0.67342395  0.65675819
   0.84281639  0.16198895  0.36377123
   0.83529535  0.17157624  0.83954741
   0.84328874  0.50512090  0.34891692
   0.83581685  0.51098011  0.83701711
   0.84407342  0.83600636  0.35043301
   0.83845245  0.84323675  0.83970047
   0.58804752  0.17027148  0.39114538
   0.59635450  0.20015459  0.90575161
   0.59262686  0.50204136  0.39236870
   0.60441057  0.45931355  0.90703482
   0.58735609  0.83971285  0.39782000
   0.57464444  0.83071967  0.89452324
   0.90441189  0.00385563  0.10579153
   0.92246548  0.03542500  0.60578920
   0.91232321  0.34151118  0.10154709
   0.90749202  0.30131070  0.59822699
   0.90044298  0.67350640  0.10112324
   0.90813634  0.66188531  0.60224292
   0.15671249  0.16377673  0.15528652
   0.16022273  0.13370050  0.59199551
   0.15911016  0.50953879  0.15532765
   0.15399100  0.49399671  0.65381130
   0.15709442  0.84639510  0.14903071
   0.14913290  0.82625277  0.66379005
   0.33013878  0.00502471  0.33897137
   0.34822997  0.98728660  0.84821774
   0.33568193  0.33635604  0.34056614
   0.31273621  0.32062210  0.84493665
   0.34086382  0.66830009  0.33406174
   0.35800502  0.65352898  0.84696204
   0.09465691  0.01846222  0.87120200
   0.08673726  0.33937964  0.39625814
   0.07891519  0.34920300  0.89521920
   0.09222079  0.68546375  0.39800356
   0.09393756  0.68710157  0.89088646
   0.39836267  0.19921971  0.09098320
   0.40537446  0.17424385  0.60893256
   0.40393369  0.46197974  0.09301287
   0.40315596  0.50849089  0.60128016
   0.43132744  0.82950397  0.11656189
   0.38134868  0.84863660  0.59556741
   0.99344882  0.17060014  0.13008840
   0.07506671  0.07682862  0.69896815
   0.99568756  0.51184052  0.12608450
   0.98842706  0.48557664  0.61784592
   0.99274852  0.83677713  0.12094831
   0.98938386  0.83309599  0.61935511
   0.49713570  0.00616006  0.37117159
   0.51222674  0.01995896  0.87825372
   0.50004345  0.33791192  0.36993502
   0.46287332  0.32498429  0.86870251
   0.50395002  0.66794777  0.37005665
   0.52054646  0.63730151  0.88099534
   0.68142457  0.16086809  0.28737395
   0.66928592  0.16603058  0.77263627
   0.67934006  0.50833606  0.28360128
   0.66970941  0.51056124  0.77231537
   0.66468842  0.83330394  0.27712023
   0.66468171  0.83865637  0.78101260
   0.82316907  0.98812335  0.22072313
   0.82572147  0.00362971  0.71879654
   0.84019963  0.33785792  0.22739948
   0.82251842  0.34433611  0.71947528
   0.82742900  0.67359867  0.22457662
   0.82256604  0.67541345  0.71585721
   0.81600296  0.98747200  0.45593246
   0.83057281  0.00633265  0.94588874
   0.81438281  0.34556219  0.44519756
   0.83914079  0.34244219  0.94373528
   0.82242210  0.66711816  0.44888601
   0.82857908  0.67716460  0.94178902
   0.69115341  0.15460697  0.06087872
   0.65859768  0.17302142  0.55075736
   0.69670973  0.51326953  0.06188120
   0.65909155  0.50654295  0.55163104
   0.65561224  0.83284453  0.05267890
   0.65988511  0.83776585  0.55569941
   0.49311144  0.02016480  0.12835308
   0.48848675  0.00414114  0.62260577
   0.53584223  0.33247304  0.13779737
   0.49383329  0.34099801  0.62851573
   0.49627772  0.64153410  0.13109851
   0.48569297  0.67839304  0.61669910
   0.99651313  0.17838721  0.87540969
   0.00471918  0.51220202  0.37350233
   0.99785332  0.52094005  0.87175751
   0.99740940  0.83323962  0.37527944
   0.99918454  0.84851181  0.86703009
   0.17347656  0.99791244  0.26602088
   0.19983372  0.90306619  0.82433936
   0.17029900  0.34636640  0.27714380
   0.15919203  0.34697807  0.78061091
   0.17099302  0.67389467  0.27759591
   0.16252428  0.65104889  0.76804163
   0.32481899  0.16983401  0.22415296
   0.31127115  0.15751794  0.71293896
   0.32525938  0.50741117  0.21885089
   0.32379601  0.50465135  0.71650357
   0.32987280  0.83217010  0.21143714
   0.36969354  0.81880961  0.74823766
   0.33025570  0.17243659  0.44874199
   0.30242788  0.14173539  0.93548959
   0.33346242  0.50429907  0.44223759
   0.31321380  0.51199264  0.94138200
   0.33948889  0.83149830  0.43355824
   0.37984816  0.82078169  0.95840755
   0.15347879  0.00950064  0.03983295
   0.22454282  0.94383761  0.57413711
   0.15299249  0.33937906  0.05302182
   0.18329754  0.34420119  0.55109047
   0.16451629  0.67702507  0.05010366
   0.17054307  0.66195346  0.55315762
   0.03092073  0.11353905  0.40082011
 
 position of ions in cartesian coordinates  (Angst):
   0.02279854  7.62226177 -1.78886754
   0.04321377  6.21295965 -7.41235435
   3.05148085  7.98116056 -1.70785373
   3.10822579  6.26076812 -7.40433385
   6.06963771  7.62762471 -1.78014850
   6.15691455  6.13423572 -7.42182578
   1.48101672  9.34317029 -4.11086874
   1.56867046  7.93373536 -9.48747153
   4.61816990  9.39009152 -3.94300470
   4.67173893  7.94714409 -9.45887735
   7.64335708  9.39553093 -3.96013750
   7.70946234  7.97208233 -9.48920120
   1.55674142  6.13870910 -4.42021569
   1.82995378  4.81615800-10.23562519
   4.59001457  6.19155907 -4.43404010
   4.19936695  4.91153811-10.25012636
   7.67724443  6.11174102 -4.49564353
   7.59502244  4.58063132-10.10873677
   0.03525090 10.81374750 -1.19551813
   0.32388026  9.65132978 -6.84584058
   3.12233495 10.92265205 -1.14755295
   2.75479399  9.48838272 -6.76038242
   6.15766832 10.77793044 -1.14276311
   6.05142018  9.48517817 -6.80576521
   1.49736187  1.49462984 -1.75484600
   1.22238383  0.32881237 -6.68996233
   4.65856132  1.52396045 -1.75531083
   4.51646474  0.08116150 -7.38852387
   7.73833820  1.51663782 -1.68415098
   7.55418286 -0.00612198 -7.50129066
   0.04593940  3.11589901 -3.83061297
   9.02646722  1.92834014 -9.58545226
   3.07520302  3.17955679 -3.84863504
   2.93135233  1.50154289 -9.54837366
   6.11006859  3.26119874 -3.77513077
   5.97502078  2.05185847 -9.57126194
   0.16879459 -1.24928351 -9.84519049
   3.10284691 -0.03177162 -4.47799350
   3.19265896 -1.50908520-10.11660159
   6.26699085  0.03073695 -4.49771790
   6.28196496 -1.31260921-10.06763863
   1.82140643  4.64021689 -1.02817362
   1.59305962  3.29250551 -6.88136282
   4.22374312  4.70301303 -1.05111028
   4.64898074  3.28644516 -6.79488534
   7.58390764  4.97423134 -1.31723074
   7.75883154  3.03445585 -6.73032731
   1.55974623 11.83990314 -1.47008965
   0.70242118 -1.01307203 -7.89882780
   4.67960533 11.87847968 -1.42484285
   4.43948257 10.42799300 -6.98209001
   7.65040395 11.85660525 -1.36680030
   7.61674843 10.43556518 -6.99914486
   0.05631961  5.07756161 -4.19449793
   0.18247883  3.85915072 -9.92487976
   3.08942800  5.11669330 -4.18052385
   2.97123455  3.27950757 -9.81694450
   6.10684742  5.16433111 -4.18189832
   5.82665786  3.95373121 -9.95586207
   1.47076902  7.57269000 -3.24752609
   1.51796814  6.08028845 -8.73132891
   4.64756514  7.55753494 -3.20489238
   4.66790932  6.08637748 -8.72770255
   7.61864965  7.39554718 -3.13165196
   7.66758531  6.00055871 -8.82598729
   9.03411736  9.49788650 -2.49432535
   0.03318533  8.15043364 -8.12290237
   3.08893433  9.68854789 -2.56977281
   3.14816245  8.10921971 -8.13057260
   6.15851195  9.53953297 -2.53787255
   6.17510397  8.11982022 -8.08968596
   9.02816229  8.75876223 -5.15235496
   0.05789750  7.58135971-10.68920274
   3.15937217  8.76858304 -5.03104306
   3.13084689  7.69253983-10.66486718
   6.09926254  8.85709875 -5.07272509
   6.19111420  7.56822476-10.64287305
   1.41352544  8.31916280 -0.68797196
   1.58188326  6.56325071 -6.22394239
   4.69267035  8.38462198 -0.69930071
   4.63117123  6.56689708 -6.23381567
   7.61444937  7.90539969 -0.59530827
   7.65944358  6.56538011 -6.27979107
   0.18436079  5.70032704 -1.45047936
   0.03786120  4.27531277 -7.03587959
   3.03970196  6.19893710 -1.55720637
   3.11764320  4.32461052 -7.10266631
   5.86535513  5.73161035 -1.48150466
   6.20234548  4.25735508 -6.96913009
   1.63094114  9.81428984 -9.89274028
   4.68291045 -0.97599847 -4.22083690
   4.76279969  9.84085818 -9.85146809
   7.61806160 11.20978787 -4.24091951
   7.75769064  9.87029293 -9.79804497
   9.12361614  1.39395887 -3.00622151
   8.25646514  0.17206558 -9.31560993
   3.16672481  1.32414582 -3.13191827
   3.17231713 -0.20598182 -8.82144795
   6.16121817  1.33141713 -3.13702751
   5.95234600 -0.13026521 -8.67940628
   1.55274176  3.36841691 -2.53308489
   1.44013959  1.84895541 -8.05670769
   4.63910915  3.38850268 -2.47316770
   4.61387689  1.99289888 -8.09699028
   7.60828328  3.46568083 -2.38938725
   7.48613227  2.46869399 -8.45560757
   1.57653636  2.81346104 -5.07109762
   1.29584448  1.12427750-10.57168510
   4.61065610  2.87084694 -4.99759331
   4.68099614  1.24042189-10.63827340
   7.60214121  2.96888161 -4.89951061
   7.50416241  2.01159231-10.83067401
   0.08686148  1.77452423 -0.45014009
   8.62922609  1.16813035 -6.48814998
   3.10284164  1.73204191 -0.59918356
   3.14692894  0.72541792 -6.22770686
   6.18983847  1.88163786 -0.56620632
   6.05204328  0.56306450 -6.25106706
   1.03805373 -0.72985374 -4.52954689
 


--------------------------------------------------------------------------------------------------------


 k-point   1 :   0.0000 0.0000 0.0000  plane waves:   27533
 k-point   2 :   0.5000 0.0000 0.0000  plane waves:   27522
 k-point   3 :   0.0000 0.5000 0.0000  plane waves:   27488
 k-point   4 :   0.5000 0.5000 0.0000  plane waves:   27488
 k-point   5 :   0.0000 0.0000 0.5000  plane waves:   27482
 k-point   6 :   0.5000 0.0000 0.5000  plane waves:   27476
 k-point   7 :   0.0000 0.5000 0.5000  plane waves:   27468
 k-point   8 :   0.5000 0.5000 0.5000  plane waves:   27564

 maximum and minimum number of plane-waves per node :     27564    27468

 maximum number of plane-waves:     27564
 maximum index in each direction: 
   IXMAX=   21   IYMAX=   15   IZMAX=   20
   IXMIN=  -21   IYMIN=  -16   IZMIN=  -20


 serial   3D FFT for wavefunctions
 parallel 3D FFT for charge:
    minimum data exchange during FFTs selected (reduces bandwidth)


 FFT grid for exact exchange (Hartree Fock) 
  NGX = 48; NGY = 36; NGZ = 48

 
 Radii for the augmentation spheres in the non-local exchange
 for species   1 augmentation radius   1.392 (default was   1.031)
       energy cutoff for augmentation   1800.0
 for species   2 augmentation radius   0.974 (default was   0.722)
       energy cutoff for augmentation   1800.0
 for species   3 augmentation radius   1.294 (default was   0.959)
       energy cutoff for augmentation   1800.0
 Maximum index for augmentation-charges in exchange           754
  SETUP_FOCK is finished

 total amount of memory used by VASP MPI-rank0  7264192. kBytes
=======================================================================

   base      :      30000. kBytes
   nonlr-proj:      32480. kBytes
   fftplans  :      51012. kBytes
   grid      :     102973. kBytes
   one-center:       1850. kBytes
   HF        :        194. kBytes
   wavefun   :    7045683. kBytes
 
     INWAV:  cpu time      0.0001: real time      0.0001
 Broyden mixing: mesh for mixing (old mesh)
   NGX = 43   NGY = 31   NGZ = 41
  (NGX  =128   NGY  = 96   NGZ  =120)
  gives a total of  54653 points

 charge density for first step will be calculated from the start-wavefunctions


--------------------------------------------------------------------------------------------------------


 Maximum index for non-local projection operator          1726
 Maximum index for augmentation-charges          5363 (set IRDMAX)


--------------------------------------------------------------------------------------------------------


 initial charge from wavefunction
 First call to EWALD:  gamma=   0.164
 Maximum number of real-space cells 3x 3x 3
 Maximum number of reciprocal cells 3x 2x 3

    FEWALD:  cpu time      0.0729: real time      0.0729


--------------------------------------- Ionic step        1  -------------------------------------------




--------------------------------------- Iteration      1(   1)  ---------------------------------------


    POTLOK:  cpu time      0.0323: real time      0.0322
    SETDIJ:  cpu time      0.1189: real time      0.1189
    TRIAL :  cpu time      2.8893: real time      2.9124
    CORREC:  cpu time      0.0015: real time      0.0015
    --------------------------------------------
      LOOP:  cpu time      3.9411: real time      3.9638

 eigenvalue-minimisations  : 10584
 total energy-change (2. order) :-0.2050393E+05  (-0.5412850E+05)
 number of electron    1056.0000172 magnetization 
 augmentation part      119.6231379 magnetization 

 Free energy of the ion-electron system (eV)
  ---------------------------------------------------
  alpha Z        PSCENC =      5376.25786726
  Ewald energy   TEWEN  =    -86690.37289493
  -Hartree energ DENC   =     -2117.57481341
  -exchange      EXHF   =         0.00000000
  -V(xc)+E(xc)   XCENC  =      2816.09132553
  PAW double counting   =    339968.36323796  -371334.77925517
  entropy T*S    EENTRO =        -0.00412977
  eigenvalues    EBANDS =    -39981.26550982
  atomic energy  EATOM  =    131459.35058357
  ---------------------------------------------------
  free energy    TOTEN  =    -20503.93358879 eV

  energy without entropy =   -20503.92945902  energy(sigma->0) =   -20503.93152390
  exchange ACFDT corr.  =         0.00000000  see jH, gK, PRB 81, 115126


--------------------------------------------------------------------------------------------------------




--------------------------------------- Iteration      1(   2)  ---------------------------------------


    TRIAL :  cpu time      3.1624: real time      3.1619
    CORREC:  cpu time      0.0016: real time      0.0016
    --------------------------------------------
      LOOP:  cpu time      3.1643: real time      3.1643

 eigenvalue-minimisations  : 13336
 total energy-change (2. order) :-0.4530218E+05  (-0.4372308E+05)
 number of electron    1056.0000172 magnetization 
 augmentation part      119.6231379 magnetization 

 Free energy of the ion-electron system (eV)
  ---------------------------------------------------
  alpha Z        PSCENC =      5376.25786726
  Ewald energy   TEWEN  =    -86690.37289493
  -Hartree energ DENC   =     -2117.57481341
  -exchange      EXHF   =         0.00000000
  -V(xc)+E(xc)   XCENC  =      2816.09132553
  PAW double counting   =    339968.36323796  -371334.77925517
  entropy T*S    EENTRO =        -0.01425549
  eigenvalues    EBANDS =    -85283.43186750
  atomic energy  EATOM  =    131459.35058357
  ---------------------------------------------------
  free energy    TOTEN  =    -65806.11007218 eV

  energy without entropy =   -65806.09581669  energy(sigma->0) =   -65806.10294444
  exchange ACFDT corr.  =         0.00000000  see jH, gK, PRB 81, 115126


--------------------------------------------------------------------------------------------------------




--------------------------------------- Iteration      1(   3)  ---------------------------------------


    TRIAL :  cpu time      3.3643: real time      3.3636
    CORREC:  cpu time      0.0016: real time      0.0016
    --------------------------------------------
      LOOP:  cpu time      3.3660: real time      3.3658

 eigenvalue-minimisations  : 14664
 total energy-change (2. order) :-0.5320935E+04  (-0.4804263E+04)
 number of electron    1056.0000172 magnetization 
 augmentation part      119.6231379 magnetization 

 Free energy of the ion-electron system (eV)
  ---------------------------------------------------
  alpha Z        PSCENC =      5376.25786726
  Ewald energy   TEWEN  =    -86690.37289493
  -Hartree energ DENC   =     -2117.57481341
  -exchange      EXHF   =         0.00000000
  -V(xc)+E(xc)   XCENC  =      2816.09132553
  PAW double counting   =    339968.36323796  -371334.77925517
  entropy T*S    EENTRO =        -0.02431198
  eigenvalues    EBANDS =    -90604.35718997
  atomic energy  EATOM  =    131459.35058357
  ---------------------------------------------------
  free energy    TOTEN  =    -71127.04545113 eV

  energy without entropy =   -71127.02113916  energy(sigma->0) =   -71127.03329515
  exchange ACFDT corr.  =         0.00000000  see jH, gK, PRB 81, 115126


--------------------------------------------------------------------------------------------------------




--------------------------------------- Iteration      1(   4)  ---------------------------------------


    TRIAL :  cpu time      3.9816: real time      3.9808
    CORREC:  cpu time      0.0017: real time      0.0017
    --------------------------------------------
      LOOP:  cpu time      3.9834: real time      3.9830

 eigenvalue-minimisations  : 18928
 total energy-change (2. order) :-0.8064685E+03  (-0.7292374E+03)
 number of electron    1056.0000172 magnetization 
 augmentation part      119.6231379 magnetization 

 Free energy of the ion-electron system (eV)
  ---------------------------------------------------
  alpha Z        PSCENC =      5376.25786726
  Ewald energy   TEWEN  =    -86690.37289493
  -Hartree energ DENC   =     -2117.57481341
  -exchange      EXHF   =         0.00000000
  -V(xc)+E(xc)   XCENC  =      2816.09132553
  PAW double counting   =    339968.36323796  -371334.77925517
  entropy T*S    EENTRO =        -0.04714131
  eigenvalues    EBANDS =    -91410.80283839
  atomic energy  EATOM  =    131459.35058357
  ---------------------------------------------------
  free energy    TOTEN  =    -71933.51392889 eV

  energy without entropy =   -71933.46678759  energy(sigma->0) =   -71933.49035824
  exchange ACFDT corr.  =         0.00000000  see jH, gK, PRB 81, 115126


--------------------------------------------------------------------------------------------------------




--------------------------------------- Iteration      1(   5)  ---------------------------------------


    POTLOK:  cpu time      1.3549: real time      1.3547
    SETDIJ:  cpu time      0.4684: real time      0.4683
    TRIAL :  cpu time    234.4543: real time    234.4389
    CORREC:  cpu time      0.0016: real time      0.0016
    CHARGE:  cpu time      0.2077: real time      0.2077
    --------------------------------------------
      LOOP:  cpu time    236.4873: real time    236.4718

 eigenvalue-minimisations  : 18224
 total energy-change (2. order) : 0.3240413E+05  (-0.7225138E+02)
 number of electron    1056.0000921 magnetization 
 augmentation part      470.9860153 magnetization 

 Free energy of the ion-electron system (eV)
  ---------------------------------------------------
  alpha Z        PSCENC =      5376.25786726
  Ewald energy   TEWEN  =    -86690.37289493
  -Hartree energ DENC   =     -2117.57481341
  -exchange      EXHF   =      5306.78730451
  -V(xc)+E(xc)   XCENC  =      1867.12322931
  PAW double counting   =    341313.09112586  -343356.63922781
  entropy T*S    EENTRO =        -0.04051343
  eigenvalues    EBANDS =    -92687.37146957
  atomic energy  EATOM  =    131459.35058357
  ---------------------------------------------------
  free energy    TOTEN  =    -39529.38880862 eV

  energy without entropy =   -39529.34829520  energy(sigma->0) =   -39529.36855191
  exchange ACFDT corr.  =        -0.38593762  see jH, gK, PRB 81, 115126


--------------------------------------------------------------------------------------------------------




--------------------------------------- Iteration      1(   6)  ---------------------------------------


    POTLOK:  cpu time      1.3727: real time      1.3725
    SETDIJ:  cpu time      0.4618: real time      0.4617
    TRIAL :  cpu time    233.0312: real time    233.0018
    CORREC:  cpu time    234.8724: real time    234.8699
    CHARGE:  cpu time      0.2061: real time      0.2060
    --------------------------------------------
      LOOP:  cpu time    469.9449: real time    469.9131

 eigenvalue-minimisations  :     0
 total energy-change (2. order) : 0.7047008E+05  (-0.2410289E+05)
 number of electron    1056.0000793 magnetization 
 augmentation part      469.5465385 magnetization 

 Free energy of the ion-electron system (eV)
  ---------------------------------------------------
  alpha Z        PSCENC =      5376.25786726
  Ewald energy   TEWEN  =    -86690.37289493
  -Hartree energ DENC   =    -79751.08419651
  -exchange      EXHF   =      5414.29330550
  -V(xc)+E(xc)   XCENC  =      3635.10248512
  PAW double counting   =    153274.46258991  -178245.44370728
  entropy T*S    EENTRO =        -0.03113361
  eigenvalues    EBANDS =     76468.16366721
  atomic energy  EATOM  =    131459.35058357
  ---------------------------------------------------
  free energy    TOTEN  =     30940.68918641 eV

  energy without entropy =    30940.72032001  energy(sigma->0) =    30940.70475321
  exchange ACFDT corr.  =        -0.73332362  see jH, gK, PRB 81, 115126


--------------------------------------------------------------------------------------------------------




--------------------------------------- Iteration      1(   7)  ---------------------------------------


    POTLOK:  cpu time      1.4961: real time      1.4960
    SETDIJ:  cpu time      0.4196: real time      0.4215
    TRIAL :  cpu time    233.3045: real time    233.3000
    CORREC:  cpu time    235.2429: real time    235.2241
    CHARGE:  cpu time      0.2157: real time      0.2156
    --------------------------------------------
      LOOP:  cpu time    470.6790: real time    470.6579

 eigenvalue-minimisations  :     0
 total energy-change (2. order) :-0.2383670E+05  (-0.5461480E+04)
 number of electron    1056.0000810 magnetization 
 augmentation part      444.3496177 magnetization 

 Free energy of the ion-electron system (eV)
  ---------------------------------------------------
  alpha Z        PSCENC =      5376.25786726
  Ewald energy   TEWEN  =    -86690.37289493
  -Hartree energ DENC   =    -45551.53899217
  -exchange      EXHF   =      4507.33962783
  -V(xc)+E(xc)   XCENC  =      3006.63826217
  PAW double counting   =    136056.71953618  -155193.42772365
  entropy T*S    EENTRO =        -0.02658842
  eigenvalues    EBANDS =     14133.05025087
  atomic energy  EATOM  =    131459.35058357
  ---------------------------------------------------
  free energy    TOTEN  =      7103.98538353 eV

  energy without entropy =     7104.01197194  energy(sigma->0) =     7103.99867773
  exchange ACFDT corr.  =      -203.82761210  see jH, gK, PRB 81, 115126


--------------------------------------------------------------------------------------------------------




--------------------------------------- Iteration      1(   8)  ---------------------------------------


    POTLOK:  cpu time      1.5152: real time      1.5149
    SETDIJ:  cpu time      0.4301: real time      0.4300
    TRIAL :  cpu time    233.9324: real time    233.9455
    CORREC:  cpu time    235.2950: real time    235.2787
    CHARGE:  cpu time      0.2051: real time      0.2050
    --------------------------------------------
      LOOP:  cpu time    471.3782: real time    471.3803

 eigenvalue-minimisations  :     0
 total energy-change (2. order) :-0.4877902E+04  (-0.1532961E+04)
 number of electron    1056.0000777 magnetization 
 augmentation part      437.6539096 magnetization 

 Free energy of the ion-electron system (eV)
  ---------------------------------------------------
  alpha Z        PSCENC =      5376.25786726
  Ewald energy   TEWEN  =    -86690.37289493
  -Hartree energ DENC   =    -34426.80069771
  -exchange      EXHF   =      4125.92946270
  -V(xc)+E(xc)   XCENC  =      2750.89968157
  PAW double counting   =    128548.28488242  -144195.23295240
  entropy T*S    EENTRO =        -0.04276016
  eigenvalues    EBANDS =     -4722.20597304
  atomic energy  EATOM  =    131459.35058357
  ---------------------------------------------------
  free energy    TOTEN  =      2226.08337102 eV

  energy without entropy =     2226.12613118  energy(sigma->0) =     2226.10475110
  exchange ACFDT corr.  =      -100.21169809  see jH, gK, PRB 81, 115126


--------------------------------------------------------------------------------------------------------




--------------------------------------- Iteration      1(   9)  ---------------------------------------


    POTLOK:  cpu time      1.4438: real time      1.4436
    SETDIJ:  cpu time      0.4792: real time      0.4790
    TRIAL :  cpu time    233.6476: real time    233.6344
    CORREC:  cpu time    234.6262: real time    234.6247
    CHARGE:  cpu time      0.2037: real time      0.2037
    --------------------------------------------
      LOOP:  cpu time    470.4007: real time    470.3859

 eigenvalue-minimisations  :     0
 total energy-change (2. order) :-0.1245907E+04  (-0.9429858E+03)
 number of electron    1056.0000731 magnetization 
 augmentation part      439.0482362 magnetization 

 Free energy of the ion-electron system (eV)
  ---------------------------------------------------
  alpha Z        PSCENC =      5376.25786726
  Ewald energy   TEWEN  =    -86690.37289493
  -Hartree energ DENC   =    -32579.68219105
  -exchange      EXHF   =      4068.72544298
  -V(xc)+E(xc)   XCENC  =      2708.31427507
  PAW double counting   =    127024.60755416  -142003.63054831
  entropy T*S    EENTRO =        -0.04608202
  eigenvalues    EBANDS =     -8383.35079520
  atomic energy  EATOM  =    131459.35058357
  ---------------------------------------------------
  free energy    TOTEN  =       980.17653339 eV

  energy without entropy =      980.22261541  energy(sigma->0) =      980.19957440
  exchange ACFDT corr.  =       -57.19429272  see jH, gK, PRB 81, 115126


--------------------------------------------------------------------------------------------------------




--------------------------------------- Iteration      1(  10)  ---------------------------------------


    POTLOK:  cpu time      1.4701: real time      1.4699
    SETDIJ:  cpu time      0.4893: real time      0.4892
    TRIAL :  cpu time    233.3362: real time    233.3650
    CORREC:  cpu time    234.5981: real time    234.5921
    CHARGE:  cpu time      0.2039: real time      0.2038
    --------------------------------------------
      LOOP:  cpu time    470.0982: real time    470.1209

 eigenvalue-minimisations  :     0
 total energy-change (2. order) :-0.5523938E+03  (-0.6030391E+03)
 number of electron    1056.0000765 magnetization 
 augmentation part      444.1617712 magnetization 

 Free energy of the ion-electron system (eV)
  ---------------------------------------------------
  alpha Z        PSCENC =      5376.25786726
  Ewald energy   TEWEN  =    -86690.37289493
  -Hartree energ DENC   =    -32548.37698325
  -exchange      EXHF   =      4083.12785786
  -V(xc)+E(xc)   XCENC  =      2716.20869457
  PAW double counting   =    130095.63649729  -145005.31335308
  entropy T*S    EENTRO =        -0.00999489
  eigenvalues    EBANDS =     -9058.68942978
  atomic energy  EATOM  =    131459.35058357
  ---------------------------------------------------
  free energy    TOTEN  =       427.78275748 eV

  energy without entropy =      427.79275238  energy(sigma->0) =      427.78775493
  exchange ACFDT corr.  =       -18.16416896  see jH, gK, PRB 81, 115126


--------------------------------------------------------------------------------------------------------




--------------------------------------- Iteration      1(  11)  ---------------------------------------


    POTLOK:  cpu time      1.5008: real time      1.5005
    SETDIJ:  cpu time      0.4475: real time      0.4475
    TRIAL :  cpu time    232.8482: real time    232.8200
    CORREC:  cpu time    234.3281: real time    234.3337
    CHARGE:  cpu time      0.2049: real time      0.2049
    --------------------------------------------
      LOOP:  cpu time    469.3307: real time    469.3083

 eigenvalue-minimisations  :     0
[...]
   -.535E+02 0.228E+02 -.331E+02   0.510E+02 -.230E+02 0.343E+02   0.218E+01 0.169E+00 -.928E+00
   -.796E+02 0.385E+02 -.369E+01   0.610E+02 -.446E+02 0.808E+01   0.173E+02 0.570E+01 -.409E+01
   0.335E+02 0.409E+02 -.492E+02   -.309E+02 -.412E+02 0.491E+02   -.234E+01 0.299E+00 0.175E+00
   -.417E+02 0.109E+03 0.391E+02   0.410E+02 -.112E+03 -.327E+02   0.641E+00 0.216E+01 -.546E+01
   0.233E+02 0.323E+02 -.134E+03   -.227E+02 -.321E+02 0.133E+03   -.459E+00 -.240E+00 0.957E+00
   0.444E+02 -.194E+02 0.119E+03   -.454E+02 0.264E+02 -.124E+03   0.909E+00 -.590E+01 0.415E+01
   -.102E+03 0.191E+02 -.177E+02   0.104E+03 -.206E+02 0.103E+02   -.207E+01 0.139E+01 0.619E+01
   -.197E+02 -.348E+02 0.487E+02   0.216E+02 0.419E+02 -.520E+02   -.158E+01 -.591E+01 0.276E+01
   0.547E+02 -.707E+01 -.273E+02   -.580E+02 0.105E+02 0.260E+02   0.283E+01 -.288E+01 0.111E+01
   -.256E+02 -.436E+02 0.684E+02   0.250E+02 0.520E+02 -.705E+02   0.571E+00 -.713E+01 0.181E+01
   -.476E+02 0.227E+02 -.944E+02   0.549E+02 -.235E+02 0.957E+02   -.615E+01 0.688E+00 -.108E+01
   -.124E+02 0.496E+02 -.143E+02   0.116E+02 -.583E+02 0.174E+02   0.704E+00 0.730E+01 -.262E+01
   -.664E+02 -.300E+02 -.469E+01   0.711E+02 0.275E+02 0.708E+01   -.402E+01 0.214E+01 -.201E+01
   0.771E+01 0.339E+02 -.881E+01   -.725E+01 -.415E+02 0.115E+02   -.363E+00 0.643E+01 -.229E+01
   -.106E+02 -.224E+02 -.313E+02   0.144E+02 0.317E+02 0.317E+02   -.324E+01 -.824E+01 -.226E+00
   0.348E+01 0.261E+02 -.127E+01   -.286E+01 -.323E+02 0.401E+01   -.564E+00 0.524E+01 -.233E+01
   0.512E+02 -.417E+02 -.205E+01   -.551E+02 0.406E+02 0.361E+01   0.332E+01 0.869E+00 -.130E+01
   -.140E+02 0.292E+02 0.210E+02   0.161E+02 -.268E+02 -.138E+02   -.169E+01 -.197E+01 -.608E+01
   0.273E+02 0.100E+03 0.456E+02   -.271E+02 -.105E+03 -.463E+02   -.287E+00 0.409E+01 0.664E+00
   0.342E+02 0.599E+02 0.312E+02   -.371E+02 -.576E+02 -.245E+02   0.246E+01 -.195E+01 -.570E+01
   -.293E+02 0.101E+03 0.423E+02   0.300E+02 -.105E+03 -.432E+02   -.498E+00 0.387E+01 0.854E+00
   -.912E+01 0.170E+02 0.508E+02   0.861E+01 -.130E+02 -.483E+02   0.411E+00 -.334E+01 -.209E+01
   -.141E+02 0.497E+02 0.624E+02   0.148E+02 -.475E+02 -.608E+02   -.602E+00 -.193E+01 -.139E+01
   -.323E+02 -.140E+03 0.361E+02   0.344E+02 0.137E+03 -.424E+02   -.183E+01 0.236E+01 0.540E+01
   0.218E+02 -.796E+02 -.995E+02   -.228E+02 0.808E+02 0.102E+03   0.849E+00 -.107E+01 -.252E+01
   0.784E+02 -.153E+03 0.807E+02   -.819E+02 0.157E+03 -.912E+02   0.297E+01 -.344E+01 0.890E+01
   -.138E+02 -.124E+03 -.785E+02   0.152E+02 0.128E+03 0.782E+02   -.112E+01 -.358E+01 0.243E+00
   -.347E+02 -.101E+03 -.317E+01   0.350E+02 0.986E+02 -.176E+01   -.222E+00 0.234E+01 0.417E+01
   -.273E+02 -.622E+02 -.713E+02   0.293E+02 0.588E+02 0.693E+02   -.173E+01 0.286E+01 0.169E+01
   0.193E+02 0.767E+02 0.791E+02   -.214E+02 -.920E+02 -.833E+02   0.180E+01 0.129E+02 0.358E+01
   0.120E+02 0.101E+03 0.853E+02   -.120E+02 -.112E+03 -.837E+02   -.192E-02 0.914E+01 -.135E+01
   0.521E+01 0.826E+02 0.728E+02   -.350E+01 -.971E+02 -.731E+02   -.142E+01 0.123E+02 0.238E+00
   0.109E+02 0.637E+02 0.611E+02   -.104E+02 -.723E+02 -.575E+02   -.412E+00 0.742E+01 -.304E+01
   -.295E+02 0.112E+03 0.722E+02   0.312E+02 -.127E+03 -.691E+02   -.146E+01 0.127E+02 -.262E+01
   -.252E+02 0.102E+03 0.673E+02   0.250E+02 -.113E+03 -.649E+02   0.151E+00 0.914E+01 -.205E+01
   0.569E+02 -.136E+03 -.759E+02   -.593E+02 0.149E+03 0.802E+02   0.185E+01 -.111E+02 -.383E+01
   0.103E+02 -.104E+03 -.631E+02   -.114E+02 0.113E+03 0.604E+02   0.904E+00 -.795E+01 0.224E+01
   -.480E+02 -.126E+03 -.912E+02   0.503E+02 0.139E+03 0.955E+02   -.189E+01 -.112E+02 -.375E+01
   -.113E+02 -.113E+03 -.549E+02   0.133E+02 0.123E+03 0.511E+02   -.167E+01 -.858E+01 0.322E+01
   -.189E+02 -.139E+03 -.689E+02   0.195E+02 0.149E+03 0.668E+02   -.565E+00 -.844E+01 0.186E+01
   -.323E+01 -.134E+03 -.587E+02   0.280E+01 0.146E+03 0.566E+02   0.350E+00 -.101E+02 0.164E+01
   -.658E+02 0.507E+02 0.621E+01   0.717E+02 -.507E+02 -.840E+01   -.493E+01 0.305E-01 0.187E+01
   0.169E+02 -.428E+02 -.507E+01   -.213E+02 0.503E+02 0.355E+01   0.378E+01 -.637E+01 0.129E+01
   0.250E+02 0.509E+02 0.425E+02   -.273E+02 -.611E+02 -.449E+02   0.199E+01 0.908E+01 0.187E+01
   0.393E+00 -.416E+01 0.751E+01   0.768E+00 0.110E+02 -.106E+02   -.971E+00 -.577E+01 0.265E+01
   0.557E+02 0.513E+02 0.353E+01   -.619E+02 -.521E+02 -.612E+01   0.521E+01 0.619E+00 0.219E+01
   -.357E+02 -.133E+02 -.183E+02   0.433E+02 0.169E+02 0.188E+02   -.648E+01 -.295E+01 -.414E+00
   0.197E+02 0.831E+01 0.254E+02   -.234E+02 -.139E+02 -.274E+02   0.311E+01 0.473E+01 0.163E+01
   0.137E+02 -.174E+02 -.488E+01   -.110E+02 0.139E+02 0.814E+01   -.230E+01 0.298E+01 -.275E+01
   -.258E+02 0.570E+01 -.673E+01   0.302E+02 -.108E+02 0.855E+01   -.374E+01 0.432E+01 -.155E+01
   -.246E+03 -.146E+03 0.116E+02   0.266E+03 0.151E+03 -.106E+02   -.176E+02 -.443E+01 -.877E+00
   -.146E+02 0.431E+02 0.317E+02   0.183E+02 -.474E+02 -.314E+02   -.306E+01 0.363E+01 -.320E+00
   -.629E+01 0.290E+03 0.235E+03   0.645E+01 -.307E+03 -.248E+03   -.172E+00 0.146E+02 0.111E+02
   0.413E+02 0.230E+01 0.104E+03   -.514E+02 0.158E+01 -.110E+03   0.858E+01 -.326E+01 0.494E+01
   0.579E+02 0.128E+03 0.588E+02   -.595E+02 -.129E+03 -.545E+02   0.135E+01 0.960E+00 -.365E+01
   0.914E+02 0.935E+02 -.872E+02   -.981E+02 -.970E+02 0.998E+02   0.565E+01 0.296E+01 -.107E+02
   -.538E+02 0.109E+03 0.524E+02   0.556E+02 -.108E+03 -.477E+02   -.153E+01 -.857E+00 -.396E+01
   0.432E+02 0.198E+02 0.402E+02   -.453E+02 -.127E+02 -.404E+02   0.175E+01 -.604E+01 0.244E+00
   0.339E+02 -.681E+02 -.479E+02   -.351E+02 0.726E+02 0.492E+02   0.902E+00 -.393E+01 -.122E+01
   -.163E+02 0.211E+02 0.277E+01   0.157E+02 -.276E+02 -.107E+02   0.527E+00 0.545E+01 0.671E+01
   -.804E+01 -.768E+02 -.616E+02   0.722E+01 0.811E+02 0.628E+02   0.802E+00 -.372E+01 -.114E+01
   0.489E+02 -.439E+02 -.279E+02   -.531E+02 0.393E+02 0.214E+02   0.359E+01 0.391E+01 0.551E+01
   -.340E+02 -.347E+01 -.646E+02   0.363E+02 -.156E+01 0.612E+02   -.200E+01 0.421E+01 0.291E+01
   0.142E+02 -.522E+02 -.532E+02   -.143E+02 0.533E+02 0.501E+02   0.102E+00 -.927E+00 0.265E+01
   0.232E+02 0.151E+03 0.205E+02   -.241E+02 -.160E+03 -.181E+02   0.841E+00 0.792E+01 -.207E+01
   0.290E+02 0.136E+03 0.962E+02   -.305E+02 -.149E+03 -.101E+03   0.117E+01 0.112E+02 0.456E+01
   -.181E+01 0.126E+03 0.535E+02   0.293E+01 -.137E+03 -.504E+02   -.942E+00 0.860E+01 -.257E+01
   -.245E+02 0.151E+03 0.839E+02   0.229E+02 -.166E+03 -.857E+02   0.153E+01 0.128E+02 0.173E+01
   -.102E+02 0.119E+03 0.322E+02   0.952E+01 -.124E+03 -.307E+02   0.579E+00 0.430E+01 -.122E+01
   0.832E+01 0.996E+02 0.838E+02   -.923E+01 -.103E+03 -.777E+02   0.775E+00 0.290E+01 -.514E+01
   0.986E+01 -.707E+02 -.352E+02   -.105E+02 0.773E+02 0.375E+02   0.522E+00 -.558E+01 -.199E+01
   -.344E+02 0.137E+02 -.272E+03   0.343E+02 -.723E+01 0.286E+03   0.885E-01 -.554E+01 -.117E+02
   0.263E+02 -.791E+02 -.279E+02   -.282E+02 0.877E+02 0.241E+02   0.155E+01 -.737E+01 0.319E+01
   0.342E+02 -.790E+02 -.660E+02   -.352E+02 0.926E+02 0.640E+02   0.926E+00 -.115E+02 0.168E+01
   -.228E+01 -.109E+03 -.333E+02   0.597E+00 0.120E+03 0.303E+02   0.144E+01 -.884E+01 0.251E+01
   -.175E+02 -.100E+03 -.998E+02   0.177E+02 0.112E+03 0.944E+02   -.182E+00 -.102E+02 0.461E+01
   0.119E+03 -.628E+02 -.484E+02   -.120E+03 0.654E+02 0.521E+02   0.191E+01 -.249E+01 -.354E+01
 -----------------------------------------------------------------------------------------------
   -.221E+02 -.242E+02 -.218E+02   -.412E-12 0.625E-12 -.426E-13   0.219E+02 0.200E+02 0.181E+02
 
 
 POSITION                                       TOTAL-FORCE (eV/Angst)
 -----------------------------------------------------------------------------------
      0.02280      7.62226     -1.78887         0.075098      0.160963      0.009422
      0.04321      6.21296     -7.41235         0.046790      0.067276     -0.000779
      3.05148      7.98116     -1.70785        -0.000757     -0.257546      0.120473
      3.10823      6.26077     -7.40433         0.035623      0.077165     -0.015076
      6.06964      7.62762     -1.78015        -0.114229      0.085109     -0.002323
      6.15691      6.13424     -7.42183        -0.023652      0.045535      0.019302
      1.48102      9.34317     -4.11087        -0.082185     -0.451134     -0.049759
      1.56867      7.93374     -9.48747        -0.000727     -0.043090     -0.008866
      4.61817      9.39009     -3.94300         0.040887     -0.222430     -0.035615
      4.67174      7.94714     -9.45888         0.010541     -0.064677      0.046844
      7.64336      9.39553     -3.96014         0.065869      0.116018     -0.050291
      7.70946      7.97208     -9.48920         0.041641      0.015569      0.007282
      1.55674      6.13871     -4.42022        -0.056597     -0.043670     -0.006066
      1.82995      4.81616    -10.23563         0.091860     -0.017047      0.001041
      4.59001      6.19156     -4.43404         0.068943     -0.045267      0.018690
      4.19937      4.91154    -10.25013         0.127197      0.059788     -0.001175
      7.67724      6.11174     -4.49564        -0.012441     -0.023474      0.027452
      7.59502      4.58063    -10.10874         0.012163      0.142572     -0.093777
      0.03525     10.81375     -1.19552        -0.036704      0.042126     -0.077433
      0.32388      9.65133     -6.84584        -0.235666     -0.032231     -0.090245
      3.12233     10.92265     -1.14755        -0.011780      0.059111     -0.029924
      2.75479      9.48838     -6.76038         0.484522     -0.348430      0.120609
      6.15767     10.77793     -1.14276         0.012714      0.076713     -0.043282
      6.05142      9.48518     -6.80577         0.124139     -0.096032      0.082069
      1.49736      1.49463     -1.75485        -0.165378      0.042564     -0.037510
      1.22238      0.32881     -6.68996        -0.196175      0.050979     -0.327028
      4.65856      1.52396     -1.75531        -0.034630      0.095469     -0.048244
      4.51646      0.08116     -7.38852         0.052854      0.122562     -0.100047
      7.73834      1.51664     -1.68415         0.152637     -0.004684     -0.087521
      7.55418     -0.00612     -7.50129        -0.037032      0.014024     -0.074457
      0.04594      3.11590     -3.83061         0.031000     -0.140477      0.076624
      9.02647      1.92834     -9.58545        -0.184519     -0.200988     -0.181360
      3.07520      3.17956     -3.84864        -0.012678     -0.052417      0.056411
      2.93135      1.50154     -9.54837        -0.049112      0.188966     -0.139608
      6.11007      3.26120     -3.77513         0.018679     -0.014558      0.016169
      5.97502      2.05186     -9.57126        -0.030956      0.094153     -0.102817
      0.16879     -1.24928     -9.84519        -0.284703      0.038050      0.074711
      3.10285     -0.03177     -4.47799         0.246915      0.282164     -0.067449
      3.19266     -1.50909    -10.11660        -0.006441      0.017183      0.011716
      6.26699      0.03074     -4.49772         0.103530     -0.133787      0.012575
      6.28196     -1.31261    -10.06764        -0.040523     -0.030532      0.044549
      1.82141      4.64022     -1.02817         0.095918     -0.083087     -0.073208
      1.59306      3.29251     -6.88136        -0.081037      0.003673      0.057208
      4.22374      4.70301     -1.05111        -0.147609     -0.087046      0.038204
      4.64898      3.28645     -6.79489         0.029225      0.002286     -0.009336
      7.58391      4.97423     -1.31723        -0.028786     -0.148667      0.202635
      7.75883      3.03446     -6.73033         0.083203      0.031670     -0.031457
      1.55975     11.83990     -1.47009         0.042438     -0.214661      0.223701
      0.70242     -1.01307     -7.89883        -0.126094      0.118335      0.139196
      4.67961     11.87848     -1.42484        -0.085156     -0.198531      0.115567
      4.43948     10.42799     -6.98209         0.067468     -0.079054      0.055294
      7.65040     11.85661     -1.36680         0.024652     -0.269352      0.096491
      7.61675     10.43557     -6.99914        -0.171308      0.086288     -0.049139
      0.05632      5.07756     -4.19450         0.016113      0.219483     -0.105899
      0.18248      3.85915     -9.92488        -0.207476      0.029769     -0.058931
      3.08943      5.11669     -4.18052         0.004339      0.252561     -0.120643
      2.97123      3.27951     -9.81694        -0.135176     -0.549441      0.058587
      6.10685      5.16433     -4.18190        -0.041611      0.150380     -0.092521
      5.82666      3.95373     -9.95586         0.181069     -0.005673     -0.038809
      1.47077      7.57269     -3.24753        -0.045069      0.036097     -0.215888
      1.51797      6.08029     -8.73133        -0.091340      0.252091      0.088935
      4.64757      7.55753     -3.20489         0.082723     -0.013761     -0.200380
      4.66791      6.08638     -8.72770         0.049586      0.218433      0.113793
      7.61865      7.39555     -3.13165        -0.000352     -0.087605     -0.029893
      7.66759      6.00056     -8.82599        -0.032927     -0.059514     -0.022294
      9.03412      9.49789     -2.49433        -0.065749      0.068796      0.249033
      0.03319      8.15043     -8.12290         0.018243     -0.105869     -0.197702
      3.08893      9.68855     -2.56977         0.114149     -0.189291      0.384606
      3.14816      8.10922     -8.13057        -0.060778     -0.180127     -0.029563
      6.15851      9.53953     -2.53787        -0.021919      0.097721      0.151371
      6.17510      8.11982     -8.08969        -0.069885      0.060878      0.008028
      9.02816      8.75876     -5.15235         0.097453      0.553499      0.188237
      0.05790      7.58136    -10.68920         0.009861      0.390908     -0.022008
      3.15937      8.76858     -5.03104        -0.090225      0.563243      0.024353
      3.13085      7.69254    -10.66487        -0.048121      0.377793     -0.101846
      6.09926      8.85710     -5.07273        -0.069917      0.564671     -0.053683
      6.19111      7.56822    -10.64287         0.019336      0.397128     -0.046481
      1.41353      8.31916     -0.68797         0.022782     -0.475825     -0.231777
      1.58188      6.56325     -6.22394         0.040099     -0.338752      0.014014
      4.69267      8.38462     -0.69930        -0.030868     -0.490850     -0.247127
      4.63117      6.56690     -6.23382        -0.064897     -0.358551      0.079031
      7.61445      7.90540     -0.59531        -0.024370     -0.381343      0.073656
      7.65944      6.56538     -6.27979        -0.001415     -0.421507     -0.026178
      0.18436      5.70033     -1.45048        -0.153867      0.024553      0.095492
      0.03786      4.27531     -7.03588         0.133286     -0.245915      0.046382
      3.03970      6.19894     -1.55721         0.101877      0.637292     -0.004135
      3.11764      4.32461     -7.10267        -0.036507     -0.217302      0.120128
      5.86536      5.73161     -1.48150         0.203831      0.056995      0.093795
      6.20235      4.25736     -6.96913        -0.229332     -0.113195     -0.016393
      1.63094      9.81429     -9.89274         0.081070      0.209324      0.045658
      4.68291     -0.97600     -4.22084        -0.108908      0.084904     -0.110778
      4.76280      9.84086     -9.85147        -0.147777      0.147217     -0.074316
      7.61806     11.20979     -4.24092        -0.772965     -0.227477     -0.031683
      7.75769      9.87029     -9.79804        -0.102936      0.123779     -0.014270
      9.12362      1.39396     -3.00622        -0.008111      0.676916      0.553600
      8.25647      0.17207     -9.31561         0.349126     -0.112050      0.292177
      3.16672      1.32415     -3.13192         0.060056      0.054671     -0.105685
      3.17232     -0.20598     -8.82145         0.219552      0.161270     -0.436281
      6.16122      1.33142     -3.13703        -0.091745     -0.002124     -0.121962
      5.95235     -0.13027     -8.67941         0.121236     -0.210368      0.009728
      1.55274      3.36842     -2.53308        -0.068665     -0.280355     -0.102175
      1.44014      1.84896     -8.05671        -0.021740      0.210935      0.292701
      4.63911      3.38850     -2.47317         0.095466     -0.233706     -0.122241
      4.61388      1.99290     -8.09699         0.146970      0.122705      0.193589
      7.60828      3.46568     -2.38939        -0.079430      0.085067      0.091656
      7.48613      2.46869     -8.45561         0.015955     -0.059163      0.117544
      1.57654      2.81346     -5.07110         0.040553      0.326679     -0.087282
      1.29584      1.12428    -10.57169        -0.038192      0.485105      0.290279
      4.61066      2.87085     -4.99759        -0.039102      0.347220     -0.073610
      4.68100      1.24042    -10.63827         0.142115      0.545931      0.221271
      7.60214      2.96888     -4.89951         0.018941      0.159975     -0.053773
      7.50416      2.01159    -10.83067         0.025528      0.157950     -0.128946
      0.08686      1.77452     -0.45014         0.037051     -0.247789     -0.090376
      8.62923      1.16813     -6.48815         0.002715     -0.223219     -0.575370
      3.10284      1.73204     -0.59918         0.036988     -0.393879      0.106690
      3.14693      0.72542     -6.22771        -0.044490     -0.496843      0.087576
      6.18984      1.88164     -0.56621         0.076189     -0.382083      0.065424
      6.05204      0.56306     -6.25107         0.009208     -0.436013      0.139498
      1.03805     -0.72985     -4.52955         0.542764     -0.145793     -0.146377
 -----------------------------------------------------------------------------------
    total drift:                               -0.097682      0.014090      0.006232


--------------------------------------------------------------------------------------------------------



  FREE ENERGIE OF THE ION-ELECTRON SYSTEM (eV)
  ---------------------------------------------------
  free  energy   TOTEN  =      -869.69524539 eV

  energy  without entropy=     -869.69044841  energy(sigma->0) =     -869.69284690
 


--------------------------------------------------------------------------------------------------------


    POTLOK:  cpu time      1.9529: real time      1.9625


--------------------------------------------------------------------------------------------------------


 writing wavefunctions
     LOOP+:  cpu time  17957.4902: real time  17959.5654
    4ORBIT:  cpu time      0.0000: real time      0.0000

 total amount of memory used by VASP MPI-rank0  7507627. kBytes
=======================================================================

   base      :      30000. kBytes
   nonlr-proj:      46682. kBytes
   fftplans  :      51012. kBytes
   grid      :     102973. kBytes
   one-center:       1850. kBytes
   HF        :        194. kBytes
   wavefun   :    7045683. kBytes
   fock_wrk  :     229233. kBytes
 
  
  
 General timing and accounting informations for this job:
 ========================================================
  
                  Total CPU time used (sec):    17989.156
                            User time (sec):    17973.957
                          System time (sec):       15.200
                         Elapsed time (sec):    17993.781
  
                   Maximum memory used (kb):    13302208.
                   Average memory used (kb):          N/A
  
                          Minor page faults:      7122955
                          Major page faults:            3
                 Voluntary context switches:       346213
