<?xml version="1.0" encoding="ISO-8859-1"?>
<modeling>
 <generator>
  <i name="program" type="string">vasp </i>
  <i name="version" type="string">6.4.2  </i>
  <i name="subversion" type="string">20Jul23 (build Nov 12 2023 22:16:35) complex                          parallel </i>
  <i name="platform" type="string">LinuxNV </i>
  <i name="date" type="string">2025 03 12 </i>
  <i name="time" type="string">06:44:30 </i>
 </generator>
 <incar>
  <i type="int" name="ISTART">     0</i>
  <i type="string" name="PREC">Normal</i>
  <i type="string" name="ALGO">All</i>
  <i type="int" name="ISPIN">     1</i>
  <i type="int" name="ICHARG">     0</i>
  <i type="int" name="NELM">   500</i>
  <i type="int" name="IBRION">    -1</i>
  <i name="EDIFF">      0.00001000</i>
  <i name="EDIFFG">     -0.00500000</i>
  <i type="int" name="NSW">     0</i>
  <i type="int" name="ISIF">     2</i>
  <i name="ENCUT">    450.00000000</i>
  <i name="NELECT">   1056.00000000</i>
  <i type="string" name="LREAL">Auto</i>
  <i type="logical" name="LPLANE"> T  </i>
  <i name="TIME">      0.40000000</i>
  <i type="int" name="ISMEAR">     0</i>
  <i name="SIGMA">      0.05000000</i>
  <i type="logical" name="LWAVE"> T  </i>
  <i type="logical" name="LCHARG"> T  </i>
  <i name="HFSCREEN">      0.18000000</i>
  <i type="logical" name="LHFCALC"> T  </i>
  <i type="int" name="LMAXFOCK">     4</i>
  <i name="AEXX">      0.35000000</i>
  <i type="string" name="PRECFOCK">Fast</i>
 </incar>
 <primitive_cell>
  <structure name="primitive_cell" >
   <crystal>
    <varray name="basis" >
     <v>       0.00000000      12.28047342       0.00000000 </v>
     <v>       9.14270205       0.00000000       0.00000000 </v>
     <v>       0.00000000      -2.76826177     -11.30069772 </v>
    </varray>
    <i name="volume">   1268.80515525 </i>
    <varray name="rec_basis" >
     <v>       0.00000000       0.08143009      -0.01994742 </v>
     <v>       0.10937686      -0.00000000       0.00000000 </v>
     <v>       0.00000000       0.00000000      -0.08849011 </v>
    </varray>
   </crystal>
   <varray name="positions" >
    <v>       0.65636472       0.00249363       0.15829709 </v>
    <v>       0.65377920       0.00472659       0.65592006 </v>
    <v>       0.68397387       0.33376138       0.15112817 </v>
    <v>       0.65751226       0.33996796       0.65521033 </v>
    <v>       0.65662751       0.66387789       0.15752554 </v>
    <v>       0.64755763       0.67342395       0.65675819 </v>
    <v>       0.84281639       0.16198895       0.36377123 </v>
    <v>       0.83529535       0.17157624       0.83954741 </v>
    <v>       0.84328874       0.50512090       0.34891692 </v>
    <v>       0.83581685       0.51098011       0.83701711 </v>
    <v>       0.84407342       0.83600636       0.35043301 </v>
    <v>       0.83845245       0.84323675       0.83970047 </v>
    <v>       0.58804752       0.17027148       0.39114538 </v>
    <v>       0.59635450       0.20015459       0.90575161 </v>
    <v>       0.59262686       0.50204136       0.39236870 </v>
    <v>       0.60441057       0.45931355       0.90703482 </v>
    <v>       0.58735609       0.83971285       0.39782000 </v>
    <v>       0.57464444       0.83071967       0.89452324 </v>
    <v>       0.90441189       0.00385563       0.10579153 </v>
    <v>       0.92246548       0.03542500       0.60578920 </v>
    <v>       0.91232321       0.34151118       0.10154709 </v>
    <v>       0.90749202       0.30131070       0.59822699 </v>
    <v>       0.90044298       0.67350640       0.10112324 </v>
    <v>       0.90813634       0.66188531       0.60224292 </v>
    <v>       0.15671249       0.16377673       0.15528652 </v>
    <v>       0.16022273       0.13370050       0.59199551 </v>
    <v>       0.15911016       0.50953879       0.15532765 </v>
    <v>       0.15399100       0.49399671       0.65381130 </v>
    <v>       0.15709442       0.84639510       0.14903071 </v>
    <v>       0.14913290       0.82625277       0.66379005 </v>
    <v>       0.33013878       0.00502471       0.33897137 </v>
    <v>       0.34822997       0.98728660       0.84821774 </v>
    <v>       0.33568193       0.33635604       0.34056614 </v>
    <v>       0.31273621       0.32062210       0.84493665 </v>
    <v>       0.34086382       0.66830009       0.33406174 </v>
    <v>       0.35800502       0.65352898       0.84696204 </v>
    <v>       0.09465691       0.01846222       0.87120200 </v>
    <v>       0.08673726       0.33937964       0.39625814 </v>
    <v>       0.07891519       0.34920300       0.89521920 </v>
    <v>       0.09222079       0.68546375       0.39800356 </v>
    <v>       0.09393756       0.68710157       0.89088646 </v>
    <v>       0.39836267       0.19921971       0.09098320 </v>
    <v>       0.40537446       0.17424385       0.60893256 </v>
    <v>       0.40393369       0.46197974       0.09301287 </v>
    <v>       0.40315596       0.50849089       0.60128016 </v>
    <v>       0.43132744       0.82950397       0.11656189 </v>
    <v>       0.38134868       0.84863660       0.59556741 </v>
    <v>       0.99344882       0.17060014       0.13008840 </v>
    <v>       0.07506671       0.07682862       0.69896815 </v>
    <v>       0.99568756       0.51184052       0.12608450 </v>
    <v>       0.98842706       0.48557664       0.61784592 </v>
    <v>       0.99274852       0.83677713       0.12094831 </v>
    <v>       0.98938386       0.83309599       0.61935511 </v>
    <v>       0.49713570       0.00616006       0.37117159 </v>
    <v>       0.51222674       0.01995896       0.87825372 </v>
    <v>       0.50004345       0.33791192       0.36993502 </v>
    <v>       0.46287332       0.32498429       0.86870251 </v>
    <v>       0.50395002       0.66794777       0.37005665 </v>
    <v>       0.52054646       0.63730151       0.88099534 </v>
    <v>       0.68142457       0.16086809       0.28737395 </v>
    <v>       0.66928592       0.16603058       0.77263627 </v>
    <v>       0.67934006       0.50833606       0.28360128 </v>
    <v>       0.66970941       0.51056124       0.77231537 </v>
    <v>       0.66468842       0.83330394       0.27712023 </v>
    <v>       0.66468171       0.83865637       0.78101260 </v>
    <v>       0.82316907       0.98812335       0.22072313 </v>
    <v>       0.82572147       0.00362971       0.71879654 </v>
    <v>       0.84019963       0.33785792       0.22739948 </v>
    <v>       0.82251842       0.34433611       0.71947528 </v>
    <v>       0.82742900       0.67359867       0.22457662 </v>
    <v>       0.82256604       0.67541345       0.71585721 </v>
    <v>       0.81600296       0.98747200       0.45593246 </v>
    <v>       0.83057281       0.00633265       0.94588874 </v>
    <v>       0.81438281       0.34556219       0.44519756 </v>
    <v>       0.83914079       0.34244219       0.94373528 </v>
    <v>       0.82242210       0.66711816       0.44888601 </v>
    <v>       0.82857908       0.67716460       0.94178902 </v>
    <v>       0.69115341       0.15460697       0.06087872 </v>
    <v>       0.65859768       0.17302142       0.55075736 </v>
    <v>       0.69670973       0.51326953       0.06188120 </v>
    <v>       0.65909155       0.50654295       0.55163104 </v>
    <v>       0.65561224       0.83284453       0.05267890 </v>
    <v>       0.65988511       0.83776585       0.55569941 </v>
    <v>       0.49311144       0.02016480       0.12835308 </v>
    <v>       0.48848675       0.00414114       0.62260577 </v>
    <v>       0.53584223       0.33247304       0.13779737 </v>
    <v>       0.49383329       0.34099801       0.62851573 </v>
    <v>       0.49627772       0.64153410       0.13109851 </v>
    <v>       0.48569297       0.67839304       0.61669910 </v>
    <v>       0.99651313       0.17838721       0.87540969 </v>
    <v>       0.00471918       0.51220202       0.37350233 </v>
    <v>       0.99785332       0.52094005       0.87175751 </v>
    <v>       0.99740940       0.83323962       0.37527944 </v>
    <v>       0.99918454       0.84851181       0.86703009 </v>
    <v>       0.17347656       0.99791244       0.26602088 </v>
    <v>       0.19983372       0.90306619       0.82433936 </v>
    <v>       0.17029900       0.34636640       0.27714380 </v>
    <v>       0.15919203       0.34697807       0.78061091 </v>
    <v>       0.17099302       0.67389467       0.27759591 </v>
    <v>       0.16252428       0.65104889       0.76804163 </v>
    <v>       0.32481899       0.16983401       0.22415296 </v>
    <v>       0.31127115       0.15751794       0.71293896 </v>
    <v>       0.32525938       0.50741117       0.21885089 </v>
    <v>       0.32379601       0.50465135       0.71650357 </v>
    <v>       0.32987280       0.83217010       0.21143714 </v>
    <v>       0.36969354       0.81880961       0.74823766 </v>
    <v>       0.33025570       0.17243659       0.44874199 </v>
    <v>       0.30242788       0.14173539       0.93548959 </v>
    <v>       0.33346242       0.50429907       0.44223759 </v>
    <v>       0.31321380       0.51199264       0.94138200 </v>
    <v>       0.33948889       0.83149830       0.43355824 </v>
    <v>       0.37984816       0.82078169       0.95840755 </v>
    <v>       0.15347879       0.00950064       0.03983295 </v>
    <v>       0.22454282       0.94383761       0.57413711 </v>
    <v>       0.15299249       0.33937906       0.05302182 </v>
    <v>       0.18329754       0.34420119       0.55109047 </v>
    <v>       0.16451629       0.67702507       0.05010366 </v>
    <v>       0.17054307       0.66195346       0.55315762 </v>
    <v>       0.03092073       0.11353905       0.40082011 </v>
   </varray>
  </structure>
  <varray name="primitive_index" >
   <v type="int" >        1 </v>
   <v type="int" >        2 </v>
   <v type="int" >        3 </v>
   <v type="int" >        4 </v>
   <v type="int" >        5 </v>
   <v type="int" >        6 </v>
   <v type="int" >        7 </v>
   <v type="int" >        8 </v>
   <v type="int" >        9 </v>
   <v type="int" >       10 </v>
   <v type="int" >       11 </v>
   <v type="int" >       12 </v>
   <v type="int" >       13 </v>
   <v type="int" >       14 </v>
   <v type="int" >       15 </v>
   <v type="int" >       16 </v>
   <v type="int" >       17 </v>
   <v type="int" >       18 </v>
   <v type="int" >       19 </v>
   <v type="int" >       20 </v>
   <v type="int" >       21 </v>
   <v type="int" >       22 </v>
   <v type="int" >       23 </v>
   <v type="int" >       24 </v>
   <v type="int" >       25 </v>
   <v type="int" >       26 </v>
   <v type="int" >       27 </v>
   <v type="int" >       28 </v>
   <v type="int" >       29 </v>
   <v type="int" >       30 </v>
   <v type="int" >       31 </v>
   <v type="int" >       32 </v>
   <v type="int" >       33 </v>
   <v type="int" >       34 </v>
   <v type="int" >       35 </v>
   <v type="int" >       36 </v>
   <v type="int" >       37 </v>
   <v type="int" >       38 </v>
   <v type="int" >       39 </v>
   <v type="int" >       40 </v>
   <v type="int" >       41 </v>
   <v type="int" >       42 </v>
   <v type="int" >       43 </v>
   <v type="int" >       44 </v>
   <v type="int" >       45 </v>
   <v type="int" >       46 </v>
   <v type="int" >       47 </v>
   <v type="int" >       48 </v>
   <v type="int" >       49 </v>
   <v type="int" >       50 </v>
   <v type="int" >       51 </v>
   <v type="int" >       52 </v>
   <v type="int" >       53 </v>
   <v type="int" >       54 </v>
   <v type="int" >       55 </v>
   <v type="int" >       56 </v>
   <v type="int" >       57 </v>
   <v type="int" >       58 </v>
   <v type="int" >       59 </v>
   <v type="int" >       60 </v>
   <v type="int" >       61 </v>
   <v type="int" >       62 </v>
   <v type="int" >       63 </v>
   <v type="int" >       64 </v>
   <v type="int" >       65 </v>
   <v type="int" >       66 </v>
   <v type="int" >       67 </v>
   <v type="int" >       68 </v>
   <v type="int" >       69 </v>
   <v type="int" >       70 </v>
   <v type="int" >       71 </v>
   <v type="int" >       72 </v>
   <v type="int" >       73 </v>
   <v type="int" >       74 </v>
   <v type="int" >       75 </v>
   <v type="int" >       76 </v>
   <v type="int" >       77 </v>
   <v type="int" >       78 </v>
   <v type="int" >       79 </v>
   <v type="int" >       80 </v>
   <v type="int" >       81 </v>
   <v type="int" >       82 </v>
   <v type="int" >       83 </v>
   <v type="int" >       84 </v>
   <v type="int" >       85 </v>
   <v type="int" >       86 </v>
   <v type="int" >       87 </v>
   <v type="int" >       88 </v>
   <v type="int" >       89 </v>
   <v type="int" >       90 </v>
   <v type="int" >       91 </v>
   <v type="int" >       92 </v>
   <v type="int" >       93 </v>
   <v type="int" >       94 </v>
   <v type="int" >       95 </v>
   <v type="int" >       96 </v>
   <v type="int" >       97 </v>
   <v type="int" >       98 </v>
   <v type="int" >       99 </v>
   <v type="int" >      100 </v>
   <v type="int" >      101 </v>
   <v type="int" >      102 </v>
   <v type="int" >      103 </v>
   <v type="int" >      104 </v>
   <v type="int" >      105 </v>
   <v type="int" >      106 </v>
   <v type="int" >      107 </v>
   <v type="int" >      108 </v>
   <v type="int" >      109 </v>
   <v type="int" >      110 </v>
   <v type="int" >      111 </v>
   <v type="int" >      112 </v>
   <v type="int" >      113 </v>
   <v type="int" >      114 </v>
   <v type="int" >      115 </v>
   <v type="int" >      116 </v>
   <v type="int" >      117 </v>
   <v type="int" >      118 </v>
   <v type="int" >      119 </v>
  </varray>
 </primitive_cell>
 <kpoints>
  <generation param="Gamma">
   <v type="int" name="divisions">       2        2        2 </v>
   <v name="usershift">      0.00000000       0.00000000       0.00000000 </v>
   <v name="genvec1">      0.50000000       0.00000000       0.00000000 </v>
   <v name="genvec2">      0.00000000       0.50000000       0.00000000 </v>
   <v name="genvec3">      0.00000000       0.00000000       0.50000000 </v>
   <v name="shift">      0.00000000       0.00000000       0.00000000 </v>
  </generation>
  <varray name="kpointlist" >
   <v>       0.00000000       0.00000000       0.00000000 </v>
   <v>       0.50000000       0.00000000       0.00000000 </v>
   <v>       0.00000000       0.50000000       0.00000000 </v>
   <v>       0.50000000       0.50000000       0.00000000 </v>
   <v>       0.00000000       0.00000000       0.50000000 </v>
   <v>       0.50000000       0.00000000       0.50000000 </v>
   <v>       0.00000000       0.50000000       0.50000000 </v>
   <v>       0.50000000       0.50000000       0.50000000 </v>
  </varray>
  <varray name="weights" >
   <v>       0.12500000 </v>
   <v>       0.12500000 </v>
   <v>       0.12500000 </v>
   <v>       0.12500000 </v>
   <v>       0.12500000 </v>
   <v>       0.12500000 </v>
   <v>       0.12500000 </v>
   <v>       0.12500000 </v>
  </varray>
 </kpoints>
 <parameters>
  <separator name="general" >
   <i type="string" name="SYSTEM">unknown system</i>
   <i type="logical" name="LCOMPAT"> F  </i>
  </separator>
  <separator name="electronic" >
   <i type="string" name="PREC">normal</i>
   <i name="ENMAX">    450.00000000</i>
   <i name="ENAUG">    605.39200000</i>
   <i name="EDIFF">      0.00001000</i>
   <i type="int" name="IALGO">    58</i>
   <i type="int" name="IWAVPR">    10</i>
   <i type="int" name="NBANDS">   633</i>
   <i type="int" name="NBANDSLOW">    -1</i>
   <i type="int" name="NBANDSHIGH">    -1</i>
   <i name="NELECT">   1056.00000000</i>
   <i type="int" name="TURBO">     0</i>
   <i type="int" name="IRESTART">     0</i>
   <i type="int" name="NREBOOT">     0</i>
   <i type="int" name="NMIN">     0</i>
   <i name="EREF">      0.00000000</i>
   <separator name="electronic smearing" >
    <i type="int" name="ISMEAR">     0</i>
    <i name="SIGMA">      0.05000000</i>
    <i name="KSPACING">      0.50000000</i>
    <i type="logical" name="KGAMMA"> T  </i>
    <i type="logical" name="KBLOWUP"> T  </i>
   </separator>
   <separator name="electronic projectors" >
    <i type="logical" name="LREAL"> T  </i>
    <v name="ROPT">     -0.00050000     -0.00050000     -0.00050000</v>
    <i type="int" name="LMAXPAW">  -100</i>
    <i type="int" name="LMAXMIX">     2</i>
    <i type="logical" name="NLSPLINE"> F  </i>
   </separator>
   <separator name="electronic startup" >
    <i type="int" name="ISTART">     0</i>
    <i type="int" name="ICHARG">     0</i>
    <i type="int" name="INIWAV">     1</i>
   </separator>
   <separator name="electronic spin" >
    <i type="int" name="ISPIN">     1</i>
    <i type="logical" name="LNONCOLLINEAR"> F  </i>
    <v name="MAGMOM">      1.00000000      1.00000000      1.00000000      1.00000000      1.00000000      1.00000000      1.00000000      1.00000000      1.00000000      1.00000000      1.00000000      1.00000000      1.00000000      1.00000000      1.00000000      1.00000000      1.00000000      1.00000000      1.00000000      1.00000000
      1.00000000      1.00000000      1.00000000      1.00000000      1.00000000      1.00000000      1.00000000      1.00000000      1.00000000      1.00000000      1.00000000      1.00000000      1.00000000      1.00000000      1.00000000      1.00000000      1.00000000      1.00000000      1.00000000      1.00000000
      1.00000000      1.00000000      1.00000000      1.00000000      1.00000000      1.00000000      1.00000000      1.00000000      1.00000000      1.00000000      1.00000000      1.00000000      1.00000000      1.00000000      1.00000000      1.00000000      1.00000000      1.00000000      1.00000000      1.00000000
      1.00000000      1.00000000      1.00000000      1.00000000      1.00000000      1.00000000      1.00000000      1.00000000      1.00000000      1.00000000      1.00000000      1.00000000      1.00000000      1.00000000      1.00000000      1.00000000      1.00000000      1.00000000      1.00000000      1.00000000
      1.00000000      1.00000000      1.00000000      1.00000000      1.00000000      1.00000000      1.00000000      1.00000000      1.00000000      1.00000000      1.00000000      1.00000000      1.00000000      1.00000000      1.00000000      1.00000000      1.00000000      1.00000000      1.00000000      1.00000000
      1.00000000      1.00000000      1.00000000      1.00000000      1.00000000      1.00000000      1.00000000      1.00000000      1.00000000      1.00000000      1.00000000      1.00000000      1.00000000      1.00000000      1.00000000      1.00000000      1.00000000      1.00000000      1.00000000</v>
    <i name="NUPDOWN">     -1.00000000</i>
    <i type="logical" name="LSORBIT"> F  </i>
    <v name="SAXIS">      0.00000000      0.00000000      1.00000000</v>
    <i type="logical" name="LSPIRAL"> F  </i>
    <v name="QSPIRAL">      0.00000000      0.00000000      0.00000000</v>
    <i type="logical" name="LZEROZ"> F  </i>
   </separator>
   <separator name="electronic exchange-correlation" >
    <i type="logical" name="LASPH"> F  </i>
    <i type="logical" name="LMETAGGA"> F  </i>
   </separator>
   <separator name="electronic convergence" >
    <i type="int" name="NELM">   500</i>
    <i type="int" name="NELMDL">    -5</i>
    <i type="int" name="NELMIN">     2</i>
    <i name="ENINI">    450.00000000</i>
    <separator name="electronic convergence detail" >
     <i type="logical" name="LDIAG"> T  </i>
     <i type="logical" name="LSUBROT"> F  </i>
     <i name="WEIMIN">      0.00000000</i>
     <i name="EBREAK">      0.00000000</i>
     <i name="DEPER">      0.30000000</i>
     <i type="int" name="NRMM">     4</i>
     <i name="TIME">      0.40000000</i>
    </separator>
   </separator>
   <separator name="electronic mixer" >
    <i name="AMIX">      0.40000000</i>
    <i name="BMIX">      1.00000000</i>
    <i name="AMIN">      0.10000000</i>
    <i name="AMIX_MAG">      1.60000000</i>
    <i name="BMIX_MAG">      1.00000000</i>
    <separator name="electronic mixer details" >
     <i type="int" name="IMIX">     4</i>
     <i type="logical" name="MIXFIRST"> F  </i>
     <i type="int" name="MAXMIX">   -45</i>
     <i name="WC">    100.00000000</i>
     <i type="int" name="INIMIX">     1</i>
     <i type="int" name="MIXPRE">     1</i>
     <i type="int" name="MREMOVE">     5</i>
    </separator>
   </separator>
   <separator name="electronic dipolcorrection" >
    <i type="logical" name="LDIPOL"> F  </i>
    <i type="logical" name="LMONO"> F  </i>
    <i type="int" name="IDIPOL">     0</i>
    <i name="EPSILON">      1.00000000</i>
    <v name="DIPOL">   -100.00000000   -100.00000000   -100.00000000</v>
    <i name="EFIELD">      0.00000000</i>
   </separator>
  </separator>
  <separator name="grids" >
   <i type="int" name="NGX">    64</i>
   <i type="int" name="NGY">    48</i>
   <i type="int" name="NGZ">    60</i>
   <i type="int" name="NGXF">   128</i>
   <i type="int" name="NGYF">    96</i>
   <i type="int" name="NGZF">   120</i>
   <i type="logical" name="ADDGRID"> F  </i>
  </separator>
  <separator name="ionic" >
   <i type="int" name="NSW">     0</i>
   <i type="int" name="IBRION">    -1</i>
   <i type="int" name="MDALGO">     0</i>
   <i type="int" name="ISIF">     2</i>
   <i name="PSTRESS">      0.00000000</i>
   <i name="EDIFFG">     -0.00500000</i>
   <i type="int" name="NFREE">     0</i>
   <i name="POTIM">      0.50000000</i>
   <i name="SMASS">     -3.00000000</i>
   <i name="SCALEE">      1.00000000</i>
  </separator>
  <separator name="ionic md" >
   <i name="TEBEG">      0.00010000</i>
   <i name="TEEND">      0.00010000</i>
   <i type="int" name="NBLOCK">     1</i>
   <i type="int" name="KBLOCK">     1</i>
   <i type="int" name="NPACO">   256</i>
   <i name="APACO">     10.00000000</i>
  </separator>
  <separator name="symmetry" >
   <i type="int" name="ISYM">     3</i>
   <i name="SYMPREC">      0.00001000</i>
  </separator>
  <separator name="dos" >
   <i type="int" name="LORBIT">     0</i>
   <v name="RWIGS">     -1.00000000     -1.00000000     -1.00000000</v>
   <i type="int" name="NEDOS">   301</i>
   <i name="EMIN">     10.00000000</i>
   <i name="EMAX">    -10.00000000</i>
   <i name="EFERMI">      0.00000000</i>
  </separator>
  <separator name="writing" >
   <i type="int" name="NWRITE">     2</i>
   <i type="logical" name="LWAVE"> T  </i>
   <i type="logical" name="LDOWNSAMPLE"> F  </i>
   <i type="logical" name="LCHARG"> T  </i>
   <i type="logical" name="LPARD"> F  </i>
   <i type="logical" name="LVTOT"> F  </i>
   <i type="logical" name="LVHAR"> F  </i>
   <i type="logical" name="LELF"> F  </i>
   <i type="logical" name="LOPTICS"> F  </i>
   <v name="STM">      0.00000000      0.00000000      0.00000000      0.00000000      0.00000000      0.00000000      0.00000000</v>
  </separator>
  <separator name="performance" >
   <i type="int" name="NPAR">     1</i>
   <i type="int" name="NSIM">     4</i>
   <i type="int" name="NBLK">    -1</i>
   <i type="logical" name="LPLANE"> T  </i>
   <i type="logical" name="LSCALAPACK"> T  </i>
   <i type="logical" name="LSCAAWARE"> F  </i>
   <i type="logical" name="LSCALU"> F  </i>
   <i type="logical" name="LASYNC"> F  </i>
   <i type="logical" name="LORBITALREAL"> F  </i>
  </separator>
  <separator name="miscellaneous" >
   <i type="int" name="IDIOT">     3</i>
   <i type="int" name="PHON_NSTRUCT">    -1</i>
   <i type="logical" name="LMUSIC"> F  </i>
   <v name="POMASS">     69.72300000     16.00000000     30.97400000</v>
   <v name="DARWINR">      0.00000000      0.00000000      0.00000000</v>
   <v name="DARWINV">      1.00000000      1.00000000      1.00000000</v>
   <i type="logical" name="LCORR"> T  </i>
  </separator>
  <i type="logical" name="GGA_COMPAT"> T  </i>
  <i type="logical" name="LBERRY"> F  </i>
  <i type="int" name="ICORELEVEL">     0</i>
  <i type="logical" name="LDAU"> F  </i>
  <i type="int" name="I_CONSTRAINED_M">     0</i>
  <separator name="electronic exchange-correlation" >
   <i type="string" name="GGA">--</i>
   <i type="int" name="VOSKOWN">     0</i>
   <i type="logical" name="LHFCALC"> T  </i>
   <i type="string" name="PRECFOCK">fast</i>
   <i type="logical" name="LSYMGRAD"> F  </i>
   <i type="logical" name="LHFONE"> F  </i>
   <i type="logical" name="LRHFCALC"> F  </i>
   <i type="logical" name="LTHOMAS"> F  </i>
   <i type="logical" name="LMODELHF"> F  </i>
   <i type="logical" name="LFOCKACE"> T  </i>
   <i name="ENCUT4O">     -1.00000000</i>
   <i type="int" name="EXXOEP">     0</i>
   <i type="int" name="FOURORBIT">     0</i>
   <i name="AEXX">      0.35000000</i>
   <i name="HFALPHA">     -1.00000000</i>
   <i name="MCALPHA">      0.00000000</i>
   <i name="ALDAX">      0.65000000</i>
   <i name="AGGAX">      0.65000000</i>
   <i name="ALDAC">      1.00000000</i>
   <i name="AGGAC">      1.00000000</i>
   <i type="int" name="NKREDX">     1</i>
   <i type="int" name="NKREDY">     1</i>
   <i type="int" name="NKREDZ">     1</i>
   <i type="logical" name="SHIFTRED"> F  </i>
   <i type="logical" name="ODDONLY"> F  </i>
   <i type="logical" name="EVENONLY"> F  </i>
   <i type="int" name="LMAXFOCK">     4</i>
   <i type="int" name="NMAXFOCKAE">     1</i>
   <i type="logical" name="LFOCKAEDFT"> F  </i>
   <i name="HFSCREEN">      0.18000000</i>
   <i name="HFSCREENC">      0.18000000</i>
   <i type="int" name="NBANDSGWLOW">     1</i>
  </separator>
  <separator name="vdW DFT" >
   <i type="logical" name="LUSE_VDW"> F  </i>
   <i type="int" name="IVDW_NL">     1</i>
   <i type="logical" name="LSPIN_VDW"> F  </i>
   <i name="Zab_VDW">     -0.84910000</i>
   <i name="PARAM1">      0.12340000</i>
   <i name="PARAM2">      1.00000000</i>
   <i name="PARAM3">      0.00000000</i>
  </separator>
  <separator name="model GW" >
   <i type="int" name="MODEL_GW">     0</i>
   <i name="MODEL_EPS0">      6.39733692</i>
   <i name="MODEL_ALPHA">      1.00000000</i>
  </separator>
  <separator name="linear response parameters" >
   <i type="logical" name="LEPSILON"> F  </i>
   <i type="logical" name="LRPA"> F  </i>
   <i type="logical" name="LNABLA"> F  </i>
   <i type="logical" name="LVEL"> F  </i>
   <i name="CSHIFT">      0.10000000</i>
   <i name="OMEGAMAX">     -1.00000000</i>
   <i name="DEG_THRESHOLD">      0.00200000</i>
   <i name="RTIME">     -0.10000000</i>
   <i name="WPLASMAI">      0.00000000</i>
   <v name="DFIELD">      0.00000000      0.00000000      0.00000000</v>
   <v name="WPLASMA">      0.00000000      0.00000000      0.00000000      0.00000000      0.00000000      0.00000000      0.00000000      0.00000000      0.00000000</v>
  </separator>
  <separator name="orbital magnetization" >
   <i type="logical" name="NUCIND"> F  </i>
   <v name="MAGPOS">      0.00000000      0.00000000      0.00000000</v>
   <i type="logical" name="LNICSALL"> T  </i>
   <i type="logical" name="ORBITALMAG"> F  </i>
   <i type="logical" name="LMAGBLOCH"> F  </i>
   <i type="logical" name="LCHIMAG"> F  </i>
   <i type="logical" name="LGAUGE"> T  </i>
   <i type="int" name="MAGATOM">     0</i>
   <v name="MAGDIPOL">      0.00000000      0.00000000      0.00000000</v>
   <v name="AVECCONST">      0.00000000      0.00000000      0.00000000</v>
  </separator>
  <separator name="response functions" >
   <i type="logical" name="LALL_IN_ONE"> F  </i>
   <i type="int" name="IALL_IN_ONE">    -1</i>
   <i type="int" name="NBANDS_WAVE">    -1</i>
   <i type="logical" name="LFINITE_TEMPERATURE"> F  </i>
   <i type="logical" name="LADDER"> F  </i>
   <i type="logical" name="LRPAFORCE"> F  </i>
   <i type="logical" name="LFXC"> F  </i>
   <i type="logical" name="LHARTREE"> T  </i>
   <i type="int" name="IBSE">     0</i>
   <v type="int" name="KPOINT">    -1     0     0     0</v>
   <i type="logical" name="LTCTC"> F  </i>
   <i type="logical" name="LTCTE"> F  </i>
   <i type="logical" name="LTETE"> F  </i>
   <i type="logical" name="LTRIPLET"> F  </i>
   <i type="logical" name="LFXCEPS"> F  </i>
   <i type="logical" name="LFXHEG"> F  </i>
   <i type="int" name="NATURALO">     2</i>
   <i type="logical" name="LHOLEGF"> F  </i>
   <i type="logical" name="L2ORDER"> F  </i>
   <i type="logical" name="LDMP1"> F  </i>
   <i type="logical" name="LMP2LT"> F  </i>
   <i type="logical" name="LSMP2LT"> F  </i>
   <i type="logical" name="LGWLF"> F  </i>
   <i name="ENCUTGW">     -1.60000002</i>
   <i name="ENCUTGWSOFT">     -1.60000002</i>
   <i name="ENCUTLF">     -1.00000000</i>
   <i type="logical" name="LESF_SPLINES"> F  </i>
   <i type="int" name="LMAXMP2">    -1</i>
   <i name="SCISSOR">      0.00000000</i>
   <i type="int" name="NOMEGA">     0</i>
   <i type="int" name="NOMEGAR">     0</i>
   <i type="int" name="NBANDSGW">    -1</i>
   <i type="int" name="NBANDSO">    -1</i>
   <i type="int" name="NBANDSV">    -1</i>
   <i type="int" name="NELMGW">     1</i>
   <i type="int" name="NELMHF">     1</i>
   <i type="int" name="DIM">     3</i>
   <i type="int" name="IESPILON">     4</i>
   <i type="int" name="ANTIRES">     0</i>
   <i name="OMEGAMAX">    -30.00000000</i>
   <i name="OMEGAMIN">    -30.00000000</i>
   <i name="OMEGATL">   -200.00000000</i>
   <i type="int" name="OMEGAGRID">     0</i>
   <i name="CSHIFT">     -0.10000000</i>
   <i type="logical" name="LSELFENERGY"> F  </i>
   <i type="logical" name="LSPECTRAL"> F  </i>
   <i type="logical" name="LSPECTRALGW"> F  </i>
   <i type="logical" name="LSINGLES"> F  </i>
   <i type="logical" name="LFERMIGW"> F  </i>
   <i type="logical" name="ODDONLYGW"> F  </i>
   <i type="logical" name="EVENONLYGW"> F  </i>
   <i type="int" name="NKREDLFX">     1</i>
   <i type="int" name="NKREDLFY">     1</i>
   <i type="int" name="NKREDLFZ">     1</i>
   <i type="int" name="MAXMEM">  2800</i>
   <i type="int" name="TELESCOPE">     0</i>
   <i type="int" name="NTAUPAR">    -1</i>
   <i type="int" name="NOMEGAPAR">    -1</i>
   <i name="DAMP_NEWTON">      0.80000001</i>
   <i name="LAMBDA">      1.00000000</i>
  </separator>
  <separator name="External order field" >
   <i name="OFIELD_KAPPA">      0.00000000</i>
   <v name="OFIELD_K">      0.00000000      0.00000000      0.00000000</v>
   <i name="OFIELD_Q6_NEAR">      0.00000000</i>
   <i name="OFIELD_Q6_FAR">      0.00000000</i>
   <i name="OFIELD_A">      0.00000000</i>
  </separator>
  <separator name="optional k-points parameters" >
   <i type="int" name="KPOINTS_OPT_MODE">     1</i>
   <i type="logical" name="LKPOINTS_OPT"> F  </i>
  </separator>
 </parameters>
 <atominfo>
  <atoms>     119 </atoms>
  <types>       3 </types>
  <array name="atoms" >
   <dimension dim="1">ion</dimension>
   <field type="string">element</field>
   <field type="int">atomtype</field>
   <set>
    <rc><c>Ga</c><c>   1</c></rc>
    <rc><c>Ga</c><c>   1</c></rc>
    <rc><c>Ga</c><c>   1</c></rc>
    <rc><c>Ga</c><c>   1</c></rc>
    <rc><c>Ga</c><c>   1</c></rc>
    <rc><c>Ga</c><c>   1</c></rc>
    <rc><c>Ga</c><c>   1</c></rc>
    <rc><c>Ga</c><c>   1</c></rc>
    <rc><c>Ga</c><c>   1</c></rc>
    <rc><c>Ga</c><c>   1</c></rc>
    <rc><c>Ga</c><c>   1</c></rc>
    <rc><c>Ga</c><c>   1</c></rc>
    <rc><c>Ga</c><c>   1</c></rc>
    <rc><c>Ga</c><c>   1</c></rc>
    <rc><c>Ga</c><c>   1</c></rc>
    <rc><c>Ga</c><c>   1</c></rc>
    <rc><c>Ga</c><c>   1</c></rc>
    <rc><c>Ga</c><c>   1</c></rc>
    <rc><c>Ga</c><c>   1</c></rc>
    <rc><c>Ga</c><c>   1</c></rc>
    <rc><c>Ga</c><c>   1</c></rc>
    <rc><c>Ga</c><c>   1</c></rc>
    <rc><c>Ga</c><c>   1</c></rc>
    <rc><c>Ga</c><c>   1</c></rc>
    <rc><c>Ga</c><c>   1</c></rc>
    <rc><c>Ga</c><c>   1</c></rc>
    <rc><c>Ga</c><c>   1</c></rc>
    <rc><c>Ga</c><c>   1</c></rc>
    <rc><c>Ga</c><c>   1</c></rc>
    <rc><c>Ga</c><c>   1</c></rc>
    <rc><c>Ga</c><c>   1</c></rc>
    <rc><c>Ga</c><c>   1</c></rc>
    <rc><c>Ga</c><c>   1</c></rc>
    <rc><c>Ga</c><c>   1</c></rc>
    <rc><c>Ga</c><c>   1</c></rc>
    <rc><c>Ga</c><c>   1</c></rc>
    <rc><c>Ga</c><c>   1</c></rc>
    <rc><c>Ga</c><c>   1</c></rc>
    <rc><c>Ga</c><c>   1</c></rc>
    <rc><c>Ga</c><c>   1</c></rc>
    <rc><c>Ga</c><c>   1</c></rc>
    <rc><c>Ga</c><c>   1</c></rc>
    <rc><c>Ga</c><c>   1</c></rc>
    <rc><c>Ga</c><c>   1</c></rc>
    <rc><c>Ga</c><c>   1</c></rc>
    <rc><c>Ga</c><c>   1</c></rc>
    <rc><c>Ga</c><c>   1</c></rc>
    <rc><c>O </c><c>   2</c></rc>
    <rc><c>O </c><c>   2</c></rc>
    <rc><c>O </c><c>   2</c></rc>
    <rc><c>O </c><c>   2</c></rc>
    <rc><c>O </c><c>   2</c></rc>
    <rc><c>O </c><c>   2</c></rc>
    <rc><c>O </c><c>   2</c></rc>
    <rc><c>O </c><c>   2</c></rc>
    <rc><c>O </c><c>   2</c></rc>
    <rc><c>O </c><c>   2</c></rc>
    <rc><c>O </c><c>   2</c></rc>
    <rc><c>O </c><c>   2</c></rc>
    <rc><c>O </c><c>   2</c></rc>
    <rc><c>O </c><c>   2</c></rc>
    <rc><c>O </c><c>   2</c></rc>
    <rc><c>O </c><c>   2</c></rc>
    <rc><c>O </c><c>   2</c></rc>
    <rc><c>O </c><c>   2</c></rc>
    <rc><c>O </c><c>   2</c></rc>
    <rc><c>O </c><c>   2</c></rc>
    <rc><c>O </c><c>   2</c></rc>
    <rc><c>O </c><c>   2</c></rc>
    <rc><c>O </c><c>   2</c></rc>
    <rc><c>O </c><c>   2</c></rc>
    <rc><c>O </c><c>   2</c></rc>
    <rc><c>O </c><c>   2</c></rc>
    <rc><c>O </c><c>   2</c></rc>
    <rc><c>O </c><c>   2</c></rc>
    <rc><c>O </c><c>   2</c></rc>
    <rc><c>O </c><c>   2</c></rc>
    <rc><c>O </c><c>   2</c></rc>
    <rc><c>O </c><c>   2</c></rc>
    <rc><c>O </c><c>   2</c></rc>
    <rc><c>O </c><c>   2</c></rc>
    <rc><c>O </c><c>   2</c></rc>
    <rc><c>O </c><c>   2</c></rc>
    <rc><c>O </c><c>   2</c></rc>
    <rc><c>O </c><c>   2</c></rc>
    <rc><c>O </c><c>   2</c></rc>
    <rc><c>O </c><c>   2</c></rc>
    <rc><c>O </c><c>   2</c></rc>
    <rc><c>O </c><c>   2</c></rc>
    <rc><c>O </c><c>   2</c></rc>
    <rc><c>O </c><c>   2</c></rc>
    <rc><c>O </c><c>   2</c></rc>
    <rc><c>O </c><c>   2</c></rc>
    <rc><c>O </c><c>   2</c></rc>
    <rc><c>O </c><c>   2</c></rc>
    <rc><c>O </c><c>   2</c></rc>
    <rc><c>O </c><c>   2</c></rc>
    <rc><c>O </c><c>   2</c></rc>
    <rc><c>O </c><c>   2</c></rc>
    <rc><c>O </c><c>   2</c></rc>
    <rc><c>O </c><c>   2</c></rc>
    <rc><c>O </c><c>   2</c></rc>
    <rc><c>O </c><c>   2</c></rc>
    <rc><c>O </c><c>   2</c></rc>
    <rc><c>O </c><c>   2</c></rc>
    <rc><c>O </c><c>   2</c></rc>
    <rc><c>O </c><c>   2</c></rc>
    <rc><c>O </c><c>   2</c></rc>
    <rc><c>O </c><c>   2</c></rc>
    <rc><c>O </c><c>   2</c></rc>
    <rc><c>O </c><c>   2</c></rc>
    <rc><c>O </c><c>   2</c></rc>
    <rc><c>O </c><c>   2</c></rc>
    <rc><c>O </c><c>   2</c></rc>
    <rc><c>O </c><c>   2</c></rc>
    <rc><c>O </c><c>   2</c></rc>
    <rc><c>O </c><c>   2</c></rc>
    <rc><c>O </c><c>   2</c></rc>
    <rc><c>P </c><c>   3</c></rc>
   </set>
  </array>
  <array name="atomtypes" >
   <dimension dim="1">type</dimension>
   <field type="int">atomspertype</field>
   <field type="string">element</field>
   <field>mass</field>
   <field>valence</field>
   <field type="string">pseudopotential</field>
   <set>
    <rc><c>  47</c><c>Ga</c><c>     69.72300000</c><c>     13.00000000</c><c>  PAW_PBE Ga_d 06Jul2010                </c></rc>
    <rc><c>  71</c><c>O </c><c>     16.00000000</c><c>      6.00000000</c><c>   PAW_PBE O 08Apr2002                  </c></rc>
    <rc><c>   1</c><c>P </c><c>     30.97400000</c><c>      5.00000000</c><c>  PAW_PBE P 06Sep2000                   </c></rc>
   </set>
  </array>
 </atominfo>
 <structure name="initialpos" >
  <crystal>
   <varray name="basis" >
    <v>       0.00000000      12.28047342       0.00000000 </v>
    <v>       9.14270205       0.00000000       0.00000000 </v>
    <v>       0.00000000      -2.76826177     -11.30069772 </v>
   </varray>
   <i name="volume">   1268.80515525 </i>
   <varray name="rec_basis" >
    <v>       0.00000000       0.08143009      -0.01994742 </v>
    <v>       0.10937686      -0.00000000       0.00000000 </v>
    <v>       0.00000000       0.00000000      -0.08849011 </v>
   </varray>
  </crystal>
  <varray name="positions" >
   <v>       0.65636472       0.00249363       0.15829709 </v>
   <v>       0.65377920       0.00472659       0.65592006 </v>
   <v>       0.68397387       0.33376138       0.15112817 </v>
   <v>       0.65751226       0.33996796       0.65521033 </v>
   <v>       0.65662751       0.66387789       0.15752554 </v>
   <v>       0.64755763       0.67342395       0.65675819 </v>
   <v>       0.84281639       0.16198895       0.36377123 </v>
   <v>       0.83529535       0.17157624       0.83954741 </v>
   <v>       0.84328874       0.50512090       0.34891692 </v>
   <v>       0.83581685       0.51098011       0.83701711 </v>
   <v>       0.84407342       0.83600636       0.35043301 </v>
   <v>       0.83845245       0.84323675       0.83970047 </v>
   <v>       0.58804752       0.17027148       0.39114538 </v>
   <v>       0.59635450       0.20015459       0.90575161 </v>
   <v>       0.59262686       0.50204136       0.39236870 </v>
   <v>       0.60441057       0.45931355       0.90703482 </v>
   <v>       0.58735609       0.83971285       0.39782000 </v>
   <v>       0.57464444       0.83071967       0.89452324 </v>
   <v>       0.90441189       0.00385563       0.10579153 </v>
   <v>       0.92246548       0.03542500       0.60578920 </v>
   <v>       0.91232321       0.34151118       0.10154709 </v>
   <v>       0.90749202       0.30131070       0.59822699 </v>
   <v>       0.90044298       0.67350640       0.10112324 </v>
   <v>       0.90813634       0.66188531       0.60224292 </v>
   <v>       0.15671249       0.16377673       0.15528652 </v>
   <v>       0.16022273       0.13370050       0.59199551 </v>
   <v>       0.15911016       0.50953879       0.15532765 </v>
   <v>       0.15399100       0.49399671       0.65381130 </v>
   <v>       0.15709442       0.84639510       0.14903071 </v>
   <v>       0.14913290       0.82625277       0.66379005 </v>
   <v>       0.33013878       0.00502471       0.33897137 </v>
   <v>       0.34822997       0.98728660       0.84821774 </v>
   <v>       0.33568193       0.33635604       0.34056614 </v>
   <v>       0.31273621       0.32062210       0.84493665 </v>
   <v>       0.34086382       0.66830009       0.33406174 </v>
   <v>       0.35800502       0.65352898       0.84696204 </v>
   <v>       0.09465691       0.01846222       0.87120200 </v>
   <v>       0.08673726       0.33937964       0.39625814 </v>
   <v>       0.07891519       0.34920300       0.89521920 </v>
   <v>       0.09222079       0.68546375       0.39800356 </v>
   <v>       0.09393756       0.68710157       0.89088646 </v>
   <v>       0.39836267       0.19921971       0.09098320 </v>
   <v>       0.40537446       0.17424385       0.60893256 </v>
   <v>       0.40393369       0.46197974       0.09301287 </v>
   <v>       0.40315596       0.50849089       0.60128016 </v>
   <v>       0.43132744       0.82950397       0.11656189 </v>
   <v>       0.38134868       0.84863660       0.59556741 </v>
   <v>       0.99344882       0.17060014       0.13008840 </v>
   <v>       0.07506671       0.07682862       0.69896815 </v>
   <v>       0.99568756       0.51184052       0.12608450 </v>
   <v>       0.98842706       0.48557664       0.61784592 </v>
   <v>       0.99274852       0.83677713       0.12094831 </v>
   <v>       0.98938386       0.83309599       0.61935511 </v>
   <v>       0.49713570       0.00616006       0.37117159 </v>
   <v>       0.51222674       0.01995896       0.87825372 </v>
   <v>       0.50004345       0.33791192       0.36993502 </v>
   <v>       0.46287332       0.32498429       0.86870251 </v>
   <v>       0.50395002       0.66794777       0.37005665 </v>
   <v>       0.52054646       0.63730151       0.88099534 </v>
   <v>       0.68142457       0.16086809       0.28737395 </v>
   <v>       0.66928592       0.16603058       0.77263627 </v>
   <v>       0.67934006       0.50833606       0.28360128 </v>
   <v>       0.66970941       0.51056124       0.77231537 </v>
   <v>       0.66468842       0.83330394       0.27712023 </v>
   <v>       0.66468171       0.83865637       0.78101260 </v>
   <v>       0.82316907       0.98812335       0.22072313 </v>
   <v>       0.82572147       0.00362971       0.71879654 </v>
   <v>       0.84019963       0.33785792       0.22739948 </v>
   <v>       0.82251842       0.34433611       0.71947528 </v>
   <v>       0.82742900       0.67359867       0.22457662 </v>
   <v>       0.82256604       0.67541345       0.71585721 </v>
   <v>       0.81600296       0.98747200       0.45593246 </v>
   <v>       0.83057281       0.00633265       0.94588874 </v>
   <v>       0.81438281       0.34556219       0.44519756 </v>
   <v>       0.83914079       0.34244219       0.94373528 </v>
   <v>       0.82242210       0.66711816       0.44888601 </v>
   <v>       0.82857908       0.67716460       0.94178902 </v>
   <v>       0.69115341       0.15460697       0.06087872 </v>
   <v>       0.65859768       0.17302142       0.55075736 </v>
   <v>       0.69670973       0.51326953       0.06188120 </v>
   <v>       0.65909155       0.50654295       0.55163104 </v>
   <v>       0.65561224       0.83284453       0.05267890 </v>
   <v>       0.65988511       0.83776585       0.55569941 </v>
   <v>       0.49311144       0.02016480       0.12835308 </v>
   <v>       0.48848675       0.00414114       0.62260577 </v>
   <v>       0.53584223       0.33247304       0.13779737 </v>
   <v>       0.49383329       0.34099801       0.62851573 </v>
   <v>       0.49627772       0.64153410       0.13109851 </v>
   <v>       0.48569297       0.67839304       0.61669910 </v>
   <v>       0.99651313       0.17838721       0.87540969 </v>
   <v>       0.00471918       0.51220202       0.37350233 </v>
   <v>       0.99785332       0.52094005       0.87175751 </v>
   <v>       0.99740940       0.83323962       0.37527944 </v>
   <v>       0.99918454       0.84851181       0.86703009 </v>
   <v>       0.17347656       0.99791244       0.26602088 </v>
   <v>       0.19983372       0.90306619       0.82433936 </v>
   <v>       0.17029900       0.34636640       0.27714380 </v>
   <v>       0.15919203       0.34697807       0.78061091 </v>
   <v>       0.17099302       0.67389467       0.27759591 </v>
   <v>       0.16252428       0.65104889       0.76804163 </v>
   <v>       0.32481899       0.16983401       0.22415296 </v>
   <v>       0.31127115       0.15751794       0.71293896 </v>
   <v>       0.32525938       0.50741117       0.21885089 </v>
   <v>       0.32379601       0.50465135       0.71650357 </v>
   <v>       0.32987280       0.83217010       0.21143714 </v>
   <v>       0.36969354       0.81880961       0.74823766 </v>
   <v>       0.33025570       0.17243659       0.44874199 </v>
   <v>       0.30242788       0.14173539       0.93548959 </v>
   <v>       0.33346242       0.50429907       0.44223759 </v>
   <v>       0.31321380       0.51199264       0.94138200 </v>
   <v>       0.33948889       0.83149830       0.43355824 </v>
   <v>       0.37984816       0.82078169       0.95840755 </v>
   <v>       0.15347879       0.00950064       0.03983295 </v>
   <v>       0.22454282       0.94383761       0.57413711 </v>
   <v>       0.15299249       0.33937906       0.05302182 </v>
   <v>       0.18329754       0.34420119       0.55109047 </v>
   <v>       0.16451629       0.67702507       0.05010366 </v>
   <v>       0.17054307       0.66195346       0.55315762 </v>
   <v>       0.03092073       0.11353905       0.40082011 </v>
  </varray>
 </structure>
 <calculation>
  <scstep>
   <time name="total">    3.94    3.96</time>
   <energy>
    <i name="alphaZ">   5376.25786726 </i>
    <i name="ewald"> -86690.37289493 </i>
    <i name="hartreedc">  -2117.57481341 </i>
    <i name="XCdc">   2816.09132553 </i>
    <i name="pawpsdc"> 339968.36323796 </i>
    <i name="pawaedc">-371334.77925517 </i>
    <i name="eentropy">     -0.00412977 </i>
    <i name="bandstr"> -39981.26550982 </i>
    <i name="atom"> 131459.35058357 </i>
    <i name="e_fr_energy"> -20503.93358879 </i>
    <i name="e_wo_entrp"> -20503.92945902 </i>
    <i name="e_0_energy"> -20503.93152390 </i>
   </energy>
  </scstep>
  <scstep>
   <time name="total">    3.16    3.16</time>
   <energy>
    <i name="e_fr_energy"> -65806.11007218 </i>
    <i name="e_wo_entrp"> -65806.09581669 </i>
    <i name="e_0_energy"> -65806.10294444 </i>
   </energy>
  </scstep>
  <scstep>
   <time name="total">    3.37    3.37</time>
   <energy>
    <i name="e_fr_energy"> -71127.04545113 </i>
    <i name="e_wo_entrp"> -71127.02113916 </i>
    <i name="e_0_energy"> -71127.03329515 </i>
   </energy>
  </scstep>
  <scstep>
   <time name="total">    3.98    3.98</time>
   <energy>
    <i name="e_fr_energy"> -71933.51392889 </i>
    <i name="e_wo_entrp"> -71933.46678759 </i>
    <i name="e_0_energy"> -71933.49035824 </i>
   </energy>
  </scstep>
  <scstep>
   <time name="total">  236.49  236.47</time>
   <energy>
    <i name="e_fr_energy"> -39529.38880862 </i>
    <i name="e_wo_entrp"> -39529.34829520 </i>
    <i name="e_0_energy"> -39529.36855191 </i>
   </energy>
  </scstep>
  <scstep>
   <time name="total">  469.94  469.91</time>
   <energy>
    <i name="e_fr_energy">  30940.68918641 </i>
    <i name="e_wo_entrp">  30940.72032001 </i>
    <i name="e_0_energy">  30940.70475321 </i>
   </energy>
  </scstep>
  <scstep>
   <time name="total">  470.68  470.66</time>
   <energy>
    <i name="e_fr_energy">   7103.98538353 </i>
    <i name="e_wo_entrp">   7104.01197194 </i>
    <i name="e_0_energy">   7103.99867773 </i>
   </energy>
  </scstep>
  <scstep>
   <time name="total">  471.38  471.38</time>
   <energy>
    <i name="e_fr_energy">   2226.08337102 </i>
    <i name="e_wo_entrp">   2226.12613118 </i>
    <i name="e_0_energy">   2226.10475110 </i>
   </energy>
  </scstep>
  <scstep>
   <time name="total">  470.40  470.39</time>
   <energy>
    <i name="e_fr_energy">    980.17653339 </i>
    <i name="e_wo_entrp">    980.22261541 </i>
    <i name="e_0_energy">    980.19957440 </i>
   </energy>
  </scstep>
  <scstep>
   <time name="total">  470.10  470.12</time>
   <energy>
    <i name="e_fr_energy">    427.78275748 </i>
    <i name="e_wo_entrp">    427.79275238 </i>
    <i name="e_0_energy">    427.78775493 </i>
   </energy>
  </scstep>
  <scstep>
   <time name="total">  469.33  469.31</time>
   <energy>
    <i name="e_fr_energy">    -89.51762385 </i>
    <i name="e_wo_entrp">    -89.50610343 </i>
    <i name="e_0_energy">    -89.51186364 </i>
   </energy>
  </scstep>
  <scstep>
   <time name="total">  468.92  468.91</time>
   <energy>
    <i name="e_fr_energy">   -466.87104935 </i>
    <i name="e_wo_entrp">   -466.85610749 </i>
    <i name="e_0_energy">   -466.86357842 </i>
   </energy>
  </scstep>
  <scstep>
   <time name="total">  469.09  469.07</time>
   <energy>
    <i name="e_fr_energy">   -651.51954642 </i>
    <i name="e_wo_entrp">   -651.51041113 </i>
    <i name="e_0_energy">   -651.51497878 </i>
   </energy>
  </scstep>
  <scstep>
   <time name="total">  469.47  469.51</time>
   <energy>
    <i name="e_fr_energy">   -743.80511641 </i>
    <i name="e_wo_entrp">   -743.79301175 </i>
    <i name="e_0_energy">   -743.79906408 </i>
   </energy>
  </scstep>
  <scstep>
   <time name="total">  469.33  469.33</time>
   <energy>
    <i name="e_fr_energy">   -796.39692413 </i>
    <i name="e_wo_entrp">   -796.38792783 </i>
    <i name="e_0_energy">   -796.39242598 </i>
   </energy>
  </scstep>
  <scstep>
   <time name="total">  469.39  469.40</time>
   <energy>
    <i name="e_fr_energy">   -827.48644693 </i>
    <i name="e_wo_entrp">   -827.48156216 </i>
    <i name="e_0_energy">   -827.48400454 </i>
   </energy>
  </scstep>
  <scstep>
   <time name="total">  468.72  468.71</time>
   <energy>
    <i name="e_fr_energy">   -843.86601247 </i>
    <i name="e_wo_entrp">   -843.85946006 </i>
    <i name="e_0_energy">   -843.86273626 </i>
   </energy>
  </scstep>
  <scstep>
   <time name="total">  469.27  469.27</time>
   <energy>
    <i name="e_fr_energy">   -854.96476551 </i>
    <i name="e_wo_entrp">   -854.95699502 </i>
    <i name="e_0_energy">   -854.96088027 </i>
   </energy>
  </scstep>
  <scstep>
   <time name="total">  469.03  469.01</time>
   <energy>
    <i name="e_fr_energy">   -861.55325905 </i>
    <i name="e_wo_entrp">   -861.54607008 </i>
    <i name="e_0_energy">   -861.54966457 </i>
   </energy>
  </scstep>
  <scstep>
   <time name="total">  468.76  468.77</time>
   <energy>
    <i name="e_fr_energy">   -865.30657506 </i>
    <i name="e_wo_entrp">   -865.30014026 </i>
    <i name="e_0_energy">   -865.30335766 </i>
   </energy>
  </scstep>
  <scstep>
   <time name="total">  468.72  468.72</time>
   <energy>
    <i name="e_fr_energy">   -867.30320286 </i>
    <i name="e_wo_entrp">   -867.29684604 </i>
    <i name="e_0_energy">   -867.30002445 </i>
   </energy>
  </scstep>
  <scstep>
   <time name="total">  468.77  468.74</time>
   <energy>
    <i name="e_fr_energy">   -868.40044789 </i>
    <i name="e_wo_entrp">   -868.39435118 </i>
    <i name="e_0_energy">   -868.39739954 </i>
   </energy>
  </scstep>
  <scstep>
   <time name="total">  469.18  469.18</time>
   <energy>
    <i name="e_fr_energy">   -868.96798267 </i>
    <i name="e_wo_entrp">   -868.96221878 </i>
    <i name="e_0_energy">   -868.96510073 </i>
   </energy>
  </scstep>
  <scstep>
   <time name="total">  468.47  468.47</time>
   <energy>
    <i name="e_fr_energy">   -869.28054202 </i>
    <i name="e_wo_entrp">   -869.27507795 </i>
    <i name="e_0_energy">   -869.27780998 </i>
   </energy>
  </scstep>
  <scstep>
   <time name="total">  468.90  468.89</time>
   <energy>
    <i name="e_fr_energy">   -869.46066377 </i>
    <i name="e_wo_entrp">   -869.45543407 </i>
    <i name="e_0_energy">   -869.45804892 </i>
   </energy>
  </scstep>
  <scstep>
   <time name="total">  468.89  468.88</time>
   <energy>
    <i name="e_fr_energy">   -869.56043841 </i>
    <i name="e_wo_entrp">   -869.55536886 </i>
    <i name="e_0_energy">   -869.55790363 </i>
   </energy>
  </scstep>
  <scstep>
   <time name="total">  469.00  468.98</time>
   <energy>
    <i name="e_fr_energy">   -869.61987232 </i>
    <i name="e_wo_entrp">   -869.61491074 </i>
    <i name="e_0_energy">   -869.61739153 </i>
   </energy>
  </scstep>
  <scstep>
   <time name="total">  468.92  468.91</time>
   <energy>
    <i name="e_fr_energy">   -869.65260676 </i>
    <i name="e_wo_entrp">   -869.64775690 </i>
    <i name="e_0_energy">   -869.65018183 </i>
   </energy>
  </scstep>
  <scstep>
   <time name="total">  468.83  468.82</time>
   <energy>
    <i name="e_fr_energy">   -869.67076042 </i>
    <i name="e_wo_entrp">   -869.66599719 </i>
    <i name="e_0_energy">   -869.66837880 </i>
   </energy>
  </scstep>
  <scstep>
   <time name="total">  468.99  468.99</time>
   <energy>
    <i name="e_fr_energy">   -869.68112616 </i>
    <i name="e_wo_entrp">   -869.67637768 </i>
    <i name="e_0_energy">   -869.67875192 </i>
   </energy>
  </scstep>
  <scstep>
   <time name="total">  468.67  468.68</time>
   <energy>
    <i name="e_fr_energy">   -869.68697428 </i>
    <i name="e_wo_entrp">   -869.68219916 </i>
    <i name="e_0_energy">   -869.68458672 </i>
   </energy>
  </scstep>
  <scstep>
   <time name="total">  468.71  468.70</time>
   <energy>
    <i name="e_fr_energy">   -869.69043882 </i>
    <i name="e_wo_entrp">   -869.68565508 </i>
    <i name="e_0_energy">   -869.68804695 </i>
   </energy>
  </scstep>
  <scstep>
   <time name="total">  468.66  468.66</time>
   <energy>
    <i name="e_fr_energy">   -869.69251938 </i>
    <i name="e_wo_entrp">   -869.68775365 </i>
    <i name="e_0_energy">   -869.69013651 </i>
   </energy>
  </scstep>
  <scstep>
   <time name="total">  468.83  468.83</time>
   <energy>
    <i name="e_fr_energy">   -869.69369635 </i>
    <i name="e_wo_entrp">   -869.68893684 </i>
    <i name="e_0_energy">   -869.69131659 </i>
   </energy>
  </scstep>
  <scstep>
   <time name="total">  469.15  469.13</time>
   <energy>
    <i name="e_fr_energy">   -869.69435579 </i>
    <i name="e_wo_entrp">   -869.68958002 </i>
    <i name="e_0_energy">   -869.69196791 </i>
   </energy>
  </scstep>
  <scstep>
   <time name="total">  468.91  468.89</time>
   <energy>
    <i name="e_fr_energy">   -869.69473077 </i>
    <i name="e_wo_entrp">   -869.68993873 </i>
    <i name="e_0_energy">   -869.69233475 </i>
   </energy>
  </scstep>
  <scstep>
   <time name="total">  468.45  468.41</time>
   <energy>
    <i name="e_fr_energy">   -869.69493708 </i>
    <i name="e_wo_entrp">   -869.69015494 </i>
    <i name="e_0_energy">   -869.69254601 </i>
   </energy>
  </scstep>
  <scstep>
   <time name="total">  468.85  468.83</time>
   <energy>
    <i name="e_fr_energy">   -869.69513765 </i>
    <i name="e_wo_entrp">   -869.69034697 </i>
    <i name="e_0_energy">   -869.69274231 </i>
   </energy>
  </scstep>
  <scstep>
   <time name="total">  468.74  468.73</time>
   <energy>
    <i name="e_fr_energy">   -869.69521092 </i>
    <i name="e_wo_entrp">   -869.69041540 </i>
    <i name="e_0_energy">   -869.69281316 </i>
   </energy>
  </scstep>
  <scstep>
   <time name="total">  468.66  468.63</time>
   <energy>
    <i name="e_fr_energy">   -869.69523582 </i>
    <i name="e_wo_entrp">   -869.69043964 </i>
    <i name="e_0_energy">   -869.69283773 </i>
   </energy>
  </scstep>
  <scstep>
   <time name="total">  699.46  699.41</time>
   <energy>
    <i name="alphaZ">   5376.25786726 </i>
    <i name="ewald"> -86690.37289493 </i>
    <i name="hartreedc"> -33904.41434850 </i>
    <i name="XCdc">   2788.06368538 </i>
    <i name="pawpsdc"> 121695.21687972 </i>
    <i name="pawaedc">-136888.48516812 </i>
    <i name="eentropy">     -0.00479698 </i>
    <i name="bandstr">  -8996.37770677 </i>
    <i name="atom"> 131459.35058357 </i>
    <i name="e_fr_energy">   -869.69524539 </i>
    <i name="e_wo_entrp">   -869.69044841 </i>
    <i name="e_0_energy">   -869.69284690 </i>
   </energy>
  </scstep>
  <structure>
   <crystal>
    <varray name="basis" >
     <v>       0.00000000      12.28047342       0.00000000 </v>
     <v>       9.14270205       0.00000000       0.00000000 </v>
     <v>       0.00000000      -2.76826177     -11.30069772 </v>
    </varray>
    <i name="volume">   1268.80515525 </i>
    <varray name="rec_basis" >
     <v>       0.00000000       0.08143009      -0.01994742 </v>
     <v>       0.10937686      -0.00000000       0.00000000 </v>
     <v>       0.00000000       0.00000000      -0.08849011 </v>
    </varray>
   </crystal>
   <varray name="positions" >
    <v>       0.65636472       0.00249363       0.15829709 </v>
    <v>       0.65377920       0.00472659       0.65592006 </v>
    <v>       0.68397387       0.33376138       0.15112817 </v>
    <v>       0.65751226       0.33996796       0.65521033 </v>
    <v>       0.65662751       0.66387789       0.15752554 </v>
    <v>       0.64755763       0.67342395       0.65675819 </v>
    <v>       0.84281639       0.16198895       0.36377123 </v>
    <v>       0.83529535       0.17157624       0.83954741 </v>
    <v>       0.84328874       0.50512090       0.34891692 </v>
    <v>       0.83581685       0.51098011       0.83701711 </v>
    <v>       0.84407342       0.83600636       0.35043301 </v>
    <v>       0.83845245       0.84323675       0.83970047 </v>
    <v>       0.58804752       0.17027148       0.39114538 </v>
    <v>       0.59635450       0.20015459       0.90575161 </v>
    <v>       0.59262686       0.50204136       0.39236870 </v>
    <v>       0.60441057       0.45931355       0.90703482 </v>
    <v>       0.58735609       0.83971285       0.39782000 </v>
    <v>       0.57464444       0.83071967       0.89452324 </v>
    <v>       0.90441189       0.00385563       0.10579153 </v>
    <v>       0.92246548       0.03542500       0.60578920 </v>
    <v>       0.91232321       0.34151118       0.10154709 </v>
    <v>       0.90749202       0.30131070       0.59822699 </v>
    <v>       0.90044298       0.67350640       0.10112324 </v>
    <v>       0.90813634       0.66188531       0.60224292 </v>
    <v>       0.15671249       0.16377673       0.15528652 </v>
    <v>       0.16022273       0.13370050       0.59199551 </v>
    <v>       0.15911016       0.50953879       0.15532765 </v>
    <v>       0.15399100       0.49399671       0.65381130 </v>
    <v>       0.15709442       0.84639510       0.14903071 </v>
    <v>       0.14913290       0.82625277       0.66379005 </v>
    <v>       0.33013878       0.00502471       0.33897137 </v>
    <v>       0.34822997       0.98728660       0.84821774 </v>
    <v>       0.33568193       0.33635604       0.34056614 </v>
    <v>       0.31273621       0.32062210       0.84493665 </v>
    <v>       0.34086382       0.66830009       0.33406174 </v>
    <v>       0.35800502       0.65352898       0.84696204 </v>
    <v>       0.09465691       0.01846222       0.87120200 </v>
    <v>       0.08673726       0.33937964       0.39625814 </v>
    <v>       0.07891519       0.34920300       0.89521920 </v>
    <v>       0.09222079       0.68546375       0.39800356 </v>
    <v>       0.09393756       0.68710157       0.89088646 </v>
    <v>       0.39836267       0.19921971       0.09098320 </v>
    <v>       0.40537446       0.17424385       0.60893256 </v>
    <v>       0.40393369       0.46197974       0.09301287 </v>
    <v>       0.40315596       0.50849089       0.60128016 </v>
    <v>       0.43132744       0.82950397       0.11656189 </v>
    <v>       0.38134868       0.84863660       0.59556741 </v>
    <v>       0.99344882       0.17060014       0.13008840 </v>
    <v>       0.07506671       0.07682862       0.69896815 </v>
    <v>       0.99568756       0.51184052       0.12608450 </v>
    <v>       0.98842706       0.48557664       0.61784592 </v>
    <v>       0.99274852       0.83677713       0.12094831 </v>
    <v>       0.98938386       0.83309599       0.61935511 </v>
    <v>       0.49713570       0.00616006       0.37117159 </v>
    <v>       0.51222674       0.01995896       0.87825372 </v>
    <v>       0.50004345       0.33791192       0.36993502 </v>
    <v>       0.46287332       0.32498429       0.86870251 </v>
    <v>       0.50395002       0.66794777       0.37005665 </v>
    <v>       0.52054646       0.63730151       0.88099534 </v>
    <v>       0.68142457       0.16086809       0.28737395 </v>
    <v>       0.66928592       0.16603058       0.77263627 </v>
    <v>       0.67934006       0.50833606       0.28360128 </v>
    <v>       0.66970941       0.51056124       0.77231537 </v>
    <v>       0.66468842       0.83330394       0.27712023 </v>
    <v>       0.66468171       0.83865637       0.78101260 </v>
    <v>       0.82316907       0.98812335       0.22072313 </v>
    <v>       0.82572147       0.00362971       0.71879654 </v>
    <v>       0.84019963       0.33785792       0.22739948 </v>
    <v>       0.82251842       0.34433611       0.71947528 </v>
    <v>       0.82742900       0.67359867       0.22457662 </v>
    <v>       0.82256604       0.67541345       0.71585721 </v>
    <v>       0.81600296       0.98747200       0.45593246 </v>
    <v>       0.83057281       0.00633265       0.94588874 </v>
    <v>       0.81438281       0.34556219       0.44519756 </v>
    <v>       0.83914079       0.34244219       0.94373528 </v>
    <v>       0.82242210       0.66711816       0.44888601 </v>
    <v>       0.82857908       0.67716460       0.94178902 </v>
    <v>       0.69115341       0.15460697       0.06087872 </v>
    <v>       0.65859768       0.17302142       0.55075736 </v>
    <v>       0.69670973       0.51326953       0.06188120 </v>
    <v>       0.65909155       0.50654295       0.55163104 </v>
    <v>       0.65561224       0.83284453       0.05267890 </v>
    <v>       0.65988511       0.83776585       0.55569941 </v>
    <v>       0.49311144       0.02016480       0.12835308 </v>
    <v>       0.48848675       0.00414114       0.62260577 </v>
    <v>       0.53584223       0.33247304       0.13779737 </v>
    <v>       0.49383329       0.34099801       0.62851573 </v>
    <v>       0.49627772       0.64153410       0.13109851 </v>
    <v>       0.48569297       0.67839304       0.61669910 </v>
    <v>       0.99651313       0.17838721       0.87540969 </v>
    <v>       0.00471918       0.51220202       0.37350233 </v>
    <v>       0.99785332       0.52094005       0.87175751 </v>
    <v>       0.99740940       0.83323962       0.37527944 </v>
    <v>       0.99918454       0.84851181       0.86703009 </v>
    <v>       0.17347656       0.99791244       0.26602088 </v>
    <v>       0.19983372       0.90306619       0.82433936 </v>
    <v>       0.17029900       0.34636640       0.27714380 </v>
    <v>       0.15919203       0.34697807       0.78061091 </v>
    <v>       0.17099302       0.67389467       0.27759591 </v>
    <v>       0.16252428       0.65104889       0.76804163 </v>
    <v>       0.32481899       0.16983401       0.22415296 </v>
    <v>       0.31127115       0.15751794       0.71293896 </v>
    <v>       0.32525938       0.50741117       0.21885089 </v>
    <v>       0.32379601       0.50465135       0.71650357 </v>
    <v>       0.32987280       0.83217010       0.21143714 </v>
    <v>       0.36969354       0.81880961       0.74823766 </v>
    <v>       0.33025570       0.17243659       0.44874199 </v>
    <v>       0.30242788       0.14173539       0.93548959 </v>
    <v>       0.33346242       0.50429907       0.44223759 </v>
    <v>       0.31321380       0.51199264       0.94138200 </v>
    <v>       0.33948889       0.83149830       0.43355824 </v>
    <v>       0.37984816       0.82078169       0.95840755 </v>
    <v>       0.15347879       0.00950064       0.03983295 </v>
    <v>       0.22454282       0.94383761       0.57413711 </v>
    <v>       0.15299249       0.33937906       0.05302182 </v>
    <v>       0.18329754       0.34420119       0.55109047 </v>
    <v>       0.16451629       0.67702507       0.05010366 </v>
    <v>       0.17054307       0.66195346       0.55315762 </v>
    <v>       0.03092073       0.11353905       0.40082011 </v>
   </varray>
  </structure>
  <varray name="forces" >
   <v>       0.07509824       0.16096261       0.00942225 </v>
   <v>       0.04679045       0.06727580      -0.00077930 </v>
   <v>      -0.00075693      -0.25754569       0.12047266 </v>
   <v>       0.03562316       0.07716496      -0.01507611 </v>
   <v>      -0.11422866       0.08510888      -0.00232250 </v>
   <v>      -0.02365205       0.04553498       0.01930223 </v>
   <v>      -0.08218541      -0.45113440      -0.04975853 </v>
   <v>      -0.00072673      -0.04309034      -0.00886648 </v>
   <v>       0.04088722      -0.22243013      -0.03561520 </v>
   <v>       0.01054088      -0.06467710       0.04684398 </v>
   <v>       0.06586869       0.11601783      -0.05029066 </v>
   <v>       0.04164149       0.01556881       0.00728231 </v>
   <v>      -0.05659666      -0.04366997      -0.00606640 </v>
   <v>       0.09186045      -0.01704665       0.00104056 </v>
   <v>       0.06894288      -0.04526740       0.01869000 </v>
   <v>       0.12719667       0.05978837      -0.00117466 </v>
   <v>      -0.01244104      -0.02347447       0.02745164 </v>
   <v>       0.01216284       0.14257207      -0.09377660 </v>
   <v>      -0.03670426       0.04212564      -0.07743297 </v>
   <v>      -0.23566570      -0.03223078      -0.09024450 </v>
   <v>      -0.01178042       0.05911110      -0.02992392 </v>
   <v>       0.48452206      -0.34843001       0.12060913 </v>
   <v>       0.01271436       0.07671349      -0.04328226 </v>
   <v>       0.12413881      -0.09603201       0.08206882 </v>
   <v>      -0.16537786       0.04256422      -0.03751026 </v>
   <v>      -0.19617509       0.05097917      -0.32702787 </v>
   <v>      -0.03463024       0.09546866      -0.04824400 </v>
   <v>       0.05285392       0.12256173      -0.10004718 </v>
   <v>       0.15263732      -0.00468437      -0.08752133 </v>
   <v>      -0.03703160       0.01402391      -0.07445746 </v>
   <v>       0.03099962      -0.14047687       0.07662426 </v>
   <v>      -0.18451874      -0.20098772      -0.18136007 </v>
   <v>      -0.01267772      -0.05241673       0.05641114 </v>
   <v>      -0.04911207       0.18896576      -0.13960754 </v>
   <v>       0.01867927      -0.01455777       0.01616923 </v>
   <v>      -0.03095646       0.09415294      -0.10281728 </v>
   <v>      -0.28470288       0.03805012       0.07471092 </v>
   <v>       0.24691509       0.28216422      -0.06744861 </v>
   <v>      -0.00644069       0.01718305       0.01171583 </v>
   <v>       0.10353034      -0.13378659       0.01257515 </v>
   <v>      -0.04052319      -0.03053243       0.04454945 </v>
   <v>       0.09591757      -0.08308678      -0.07320759 </v>
   <v>      -0.08103745       0.00367318       0.05720781 </v>
   <v>      -0.14760908      -0.08704608       0.03820388 </v>
   <v>       0.02922482       0.00228608      -0.00933564 </v>
   <v>      -0.02878608      -0.14866749       0.20263457 </v>
   <v>       0.08320288       0.03167045      -0.03145737 </v>
   <v>       0.04243837      -0.21466139       0.22370135 </v>
   <v>      -0.12609368       0.11833513       0.13919566 </v>
   <v>      -0.08515641      -0.19853137       0.11556719 </v>
   <v>       0.06746758      -0.07905423       0.05529436 </v>
   <v>       0.02465194      -0.26935213       0.09649106 </v>
   <v>      -0.17130825       0.08628824      -0.04913862 </v>
   <v>       0.01611343       0.21948339      -0.10589926 </v>
   <v>      -0.20747615       0.02976865      -0.05893061 </v>
   <v>       0.00433949       0.25256103      -0.12064250 </v>
   <v>      -0.13517638      -0.54944149       0.05858654 </v>
   <v>      -0.04161143       0.15037990      -0.09252113 </v>
   <v>       0.18106868      -0.00567321      -0.03880913 </v>
   <v>      -0.04506903       0.03609739      -0.21588818 </v>
   <v>      -0.09133961       0.25209058       0.08893490 </v>
   <v>       0.08272333      -0.01376076      -0.20038007 </v>
   <v>       0.04958584       0.21843348       0.11379347 </v>
   <v>      -0.00035236      -0.08760550      -0.02989343 </v>
   <v>      -0.03292721      -0.05951367      -0.02229368 </v>
   <v>      -0.06574914       0.06879586       0.24903336 </v>
   <v>       0.01824320      -0.10586866      -0.19770213 </v>
   <v>       0.11414941      -0.18929124       0.38460599 </v>
   <v>      -0.06077775      -0.18012724      -0.02956273 </v>
   <v>      -0.02191876       0.09772108       0.15137145 </v>
   <v>      -0.06988540       0.06087822       0.00802762 </v>
   <v>       0.09745274       0.55349945       0.18823719 </v>
   <v>       0.00986147       0.39090785      -0.02200845 </v>
   <v>      -0.09022500       0.56324335       0.02435324 </v>
   <v>      -0.04812125       0.37779329      -0.10184556 </v>
   <v>      -0.06991697       0.56467080      -0.05368261 </v>
   <v>       0.01933594       0.39712796      -0.04648066 </v>
   <v>       0.02278242      -0.47582467      -0.23177690 </v>
   <v>       0.04009891      -0.33875164       0.01401362 </v>
   <v>      -0.03086757      -0.49085044      -0.24712741 </v>
   <v>      -0.06489676      -0.35855065       0.07903054 </v>
   <v>      -0.02437033      -0.38134279       0.07365594 </v>
   <v>      -0.00141528      -0.42150681      -0.02617807 </v>
   <v>      -0.15386738       0.02455329       0.09549168 </v>
   <v>       0.13328567      -0.24591462       0.04638174 </v>
   <v>       0.10187696       0.63729191      -0.00413517 </v>
   <v>      -0.03650736      -0.21730167       0.12012788 </v>
   <v>       0.20383120       0.05699519       0.09379546 </v>
   <v>      -0.22933154      -0.11319481      -0.01639271 </v>
   <v>       0.08107040       0.20932362       0.04565774 </v>
   <v>      -0.10890810       0.08490370      -0.11077799 </v>
   <v>      -0.14777652       0.14721683      -0.07431616 </v>
   <v>      -0.77296499      -0.22747676      -0.03168319 </v>
   <v>      -0.10293565       0.12377866      -0.01426970 </v>
   <v>      -0.00811130       0.67691569       0.55359990 </v>
   <v>       0.34912639      -0.11204977       0.29217724 </v>
   <v>       0.06005586       0.05467127      -0.10568533 </v>
   <v>       0.21955151       0.16126982      -0.43628105 </v>
   <v>      -0.09174466      -0.00212392      -0.12196177 </v>
   <v>       0.12123620      -0.21036806       0.00972797 </v>
   <v>      -0.06866524      -0.28035491      -0.10217520 </v>
   <v>      -0.02174050       0.21093502       0.29270059 </v>
   <v>       0.09546620      -0.23370589      -0.12224056 </v>
   <v>       0.14696976       0.12270469       0.19358917 </v>
   <v>      -0.07942978       0.08506660       0.09165560 </v>
   <v>       0.01595461      -0.05916267       0.11754403 </v>
   <v>       0.04055310       0.32667908      -0.08728238 </v>
   <v>      -0.03819208       0.48510473       0.29027856 </v>
   <v>      -0.03910238       0.34722046      -0.07360998 </v>
   <v>       0.14211512       0.54593144       0.22127055 </v>
   <v>       0.01894136       0.15997507      -0.05377290 </v>
   <v>       0.02552842       0.15795024      -0.12894564 </v>
   <v>       0.03705064      -0.24778890      -0.09037595 </v>
   <v>       0.00271493      -0.22321852      -0.57537012 </v>
   <v>       0.03698768      -0.39387895       0.10669012 </v>
   <v>      -0.04448971      -0.49684290       0.08757648 </v>
   <v>       0.07618905      -0.38208269       0.06542421 </v>
   <v>       0.00920837      -0.43601317       0.13949771 </v>
   <v>       0.54276366      -0.14579317      -0.14637672 </v>
  </varray>
  <varray name="stress" >
   <v>     169.84248143      -5.35718821      -2.79857591 </v>
   <v>      -5.35718837     198.26764026       4.94192507 </v>
   <v>      -2.79857540       4.94192474     206.79907243 </v>
  </varray>
  <energy>
   <i name="e_fr_energy">   -869.69524539 </i>
   <i name="e_wo_entrp">   -869.69044841 </i>
   <i name="e_0_energy">   -869.69284690 </i>
  </energy>
  <time name="totalsc">17957.4917959.57</time>
  <eigenvalues>
   <array>
    <dimension dim="1">band</dimension>
    <dimension dim="2">kpoint</dimension>
    <dimension dim="3">spin</dimension>
    <field>eigene</field>
    <field>occ</field>
    <set>
     <set comment="spin 1">
      <set comment="kpoint 1">
       <r>  -19.2059    1.0000 </r>
       <r>  -18.9299    1.0000 </r>
       <r>  -18.8470    1.0000 </r>
       <r>  -18.7562    1.0000 </r>
       <r>  -18.6638    1.0000 </r>
       <r>  -18.5142    1.0000 </r>
       <r>  -18.4837    1.0000 </r>
       <r>  -18.3878    1.0000 </r>
       <r>  -18.3207    1.0000 </r>
       <r>  -18.3082    1.0000 </r>
       <r>  -18.2975    1.0000 </r>
       <r>  -18.2728    1.0000 </r>
       <r>  -18.2336    1.0000 </r>
       <r>  -18.2042    1.0000 </r>
       <r>  -18.1735    1.0000 </r>
       <r>  -18.1653    1.0000 </r>
       <r>  -18.0858    1.0000 </r>
       <r>  -18.0492    1.0000 </r>
       <r>  -18.0187    1.0000 </r>
       <r>  -17.9995    1.0000 </r>
       <r>  -17.9556    1.0000 </r>
       <r>  -17.9080    1.0000 </r>
       <r>  -17.8955    1.0000 </r>
       <r>  -17.8679    1.0000 </r>
       <r>  -17.8364    1.0000 </r>
       <r>  -17.8238    1.0000 </r>
       <r>  -17.7877    1.0000 </r>
       <r>  -17.7703    1.0000 </r>
       <r>  -17.7451    1.0000 </r>
       <r>  -17.7231    1.0000 </r>
       <r>  -17.7106    1.0000 </r>
       <r>  -17.6776    1.0000 </r>
       <r>  -17.6771    1.0000 </r>
       <r>  -17.6395    1.0000 </r>
       <r>  -17.6330    1.0000 </r>
       <r>  -17.6231    1.0000 </r>
       <r>  -17.6173    1.0000 </r>
       <r>  -17.5878    1.0000 </r>
       <r>  -17.5741    1.0000 </r>
       <r>  -17.5682    1.0000 </r>
       <r>  -17.5490    1.0000 </r>
       <r>  -17.5235    1.0000 </r>
       <r>  -17.5157    1.0000 </r>
       <r>  -17.4953    1.0000 </r>
       <r>  -17.4771    1.0000 </r>
       <r>  -17.4684    1.0000 </r>
       <r>  -17.4506    1.0000 </r>
       <r>  -17.4374    1.0000 </r>
       <r>  -17.4245    1.0000 </r>
       <r>  -17.3747    1.0000 </r>
       <r>  -17.3302    1.0000 </r>
       <r>  -17.3241    1.0000 </r>
       <r>  -17.2927    1.0000 </r>
       <r>  -17.2325    1.0000 </r>
       <r>  -17.2072    1.0000 </r>
       <r>  -17.2010    1.0000 </r>
       <r>  -17.1823    1.0000 </r>
       <r>  -17.1464    1.0000 </r>
       <r>  -17.1183    1.0000 </r>
       <r>  -17.0895    1.0000 </r>
       <r>  -17.0455    1.0000 </r>
       <r>  -17.0115    1.0000 </r>
       <r>  -16.9552    1.0000 </r>
       <r>  -16.8733    1.0000 </r>
       <r>  -16.8090    1.0000 </r>
       <r>  -16.7415    1.0000 </r>
       <r>  -16.6585    1.0000 </r>
       <r>  -16.5728    1.0000 </r>
       <r>  -16.5281    1.0000 </r>
       <r>  -16.4296    1.0000 </r>
       <r>  -16.4028    1.0000 </r>
       <r>  -13.8869    1.0000 </r>
       <r>  -13.8508    1.0000 </r>
       <r>  -13.8237    1.0000 </r>
       <r>  -13.7957    1.0000 </r>
       <r>  -13.7909    1.0000 </r>
       <r>  -13.7769    1.0000 </r>
       <r>  -13.7544    1.0000 </r>
       <r>  -13.7474    1.0000 </r>
       <r>  -13.7448    1.0000 </r>
       <r>  -13.7293    1.0000 </r>
       <r>  -13.7263    1.0000 </r>
       <r>  -13.7109    1.0000 </r>
       <r>  -13.7007    1.0000 </r>
       <r>  -13.6963    1.0000 </r>
       <r>  -13.6913    1.0000 </r>
       <r>  -13.6885    1.0000 </r>
       <r>  -13.6802    1.0000 </r>
       <r>  -13.6742    1.0000 </r>
       <r>  -13.6648    1.0000 </r>
       <r>  -13.6595    1.0000 </r>
       <r>  -13.6555    1.0000 </r>
       <r>  -13.6411    1.0000 </r>
       <r>  -13.6307    1.0000 </r>
       <r>  -13.6259    1.0000 </r>
       <r>  -13.6239    1.0000 </r>
       <r>  -13.6172    1.0000 </r>
       <r>  -13.6137    1.0000 </r>
       <r>  -13.6023    1.0000 </r>
       <r>  -13.5973    1.0000 </r>
       <r>  -13.5958    1.0000 </r>
       <r>  -13.5891    1.0000 </r>
       <r>  -13.5861    1.0000 </r>
       <r>  -13.5826    1.0000 </r>
       <r>  -13.5774    1.0000 </r>
       <r>  -13.5692    1.0000 </r>
       <r>  -13.5677    1.0000 </r>
       <r>  -13.5666    1.0000 </r>
       <r>  -13.5650    1.0000 </r>
       <r>  -13.5640    1.0000 </r>
       <r>  -13.5549    1.0000 </r>
       <r>  -13.5491    1.0000 </r>
       <r>  -13.5452    1.0000 </r>
       <r>  -13.5407    1.0000 </r>
       <r>  -13.5335    1.0000 </r>
       <r>  -13.5297    1.0000 </r>
       <r>  -13.5255    1.0000 </r>
       <r>  -13.5208    1.0000 </r>
       <r>  -13.5184    1.0000 </r>
       <r>  -13.5141    1.0000 </r>
       <r>  -13.5077    1.0000 </r>
       <r>  -13.5055    1.0000 </r>
       <r>  -13.5016    1.0000 </r>
       <r>  -13.4968    1.0000 </r>
       <r>  -13.4944    1.0000 </r>
       <r>  -13.4892    1.0000 </r>
       <r>  -13.4881    1.0000 </r>
       <r>  -13.4837    1.0000 </r>
       <r>  -13.4784    1.0000 </r>
       <r>  -13.4733    1.0000 </r>
       <r>  -13.4725    1.0000 </r>
       <r>  -13.4657    1.0000 </r>
       <r>  -13.4629    1.0000 </r>
       <r>  -13.4564    1.0000 </r>
       <r>  -13.4540    1.0000 </r>
       <r>  -13.4528    1.0000 </r>
       <r>  -13.4469    1.0000 </r>
       <r>  -13.4464    1.0000 </r>
       <r>  -13.4402    1.0000 </r>
       <r>  -13.4389    1.0000 </r>
       <r>  -13.4324    1.0000 </r>
       <r>  -13.4298    1.0000 </r>
       <r>  -13.4241    1.0000 </r>
       <r>  -13.4228    1.0000 </r>
       <r>  -13.4165    1.0000 </r>
       <r>  -13.4135    1.0000 </r>
       <r>  -13.4095    1.0000 </r>
       <r>  -13.4068    1.0000 </r>
       <r>  -13.3998    1.0000 </r>
       <r>  -13.3943    1.0000 </r>
       <r>  -13.3852    1.0000 </r>
       <r>  -13.3808    1.0000 </r>
       <r>  -13.3775    1.0000 </r>
       <r>  -13.3704    1.0000 </r>
       <r>  -13.3606    1.0000 </r>
       <r>  -13.3480    1.0000 </r>
       <r>  -13.3412    1.0000 </r>
       <r>  -13.3361    1.0000 </r>
       <r>  -13.3314    1.0000 </r>
       <r>  -13.3268    1.0000 </r>
       <r>  -13.3195    1.0000 </r>
       <r>  -13.3155    1.0000 </r>
       <r>  -13.3138    1.0000 </r>
       <r>  -13.3097    1.0000 </r>
       <r>  -13.3053    1.0000 </r>
       <r>  -13.3010    1.0000 </r>
       <r>  -13.2998    1.0000 </r>
       <r>  -13.2929    1.0000 </r>
       <r>  -13.2879    1.0000 </r>
       <r>  -13.2813    1.0000 </r>
       <r>  -13.2777    1.0000 </r>
       <r>  -13.2726    1.0000 </r>
       <r>  -13.2709    1.0000 </r>
       <r>  -13.2609    1.0000 </r>
       <r>  -13.2531    1.0000 </r>
       <r>  -13.2468    1.0000 </r>
       <r>  -13.2397    1.0000 </r>
       <r>  -13.2321    1.0000 </r>
       <r>  -13.2196    1.0000 </r>
       <r>  -13.2156    1.0000 </r>
       <r>  -13.2071    1.0000 </r>
       <r>  -13.2000    1.0000 </r>
       <r>  -13.1978    1.0000 </r>
       <r>  -13.1904    1.0000 </r>
       <r>  -13.1873    1.0000 </r>
       <r>  -13.1825    1.0000 </r>
       <r>  -13.1758    1.0000 </r>
       <r>  -13.1707    1.0000 </r>
       <r>  -13.1666    1.0000 </r>
       <r>  -13.1610    1.0000 </r>
       <r>  -13.1553    1.0000 </r>
       <r>  -13.1467    1.0000 </r>
       <r>  -13.1435    1.0000 </r>
       <r>  -13.1382    1.0000 </r>
       <r>  -13.1348    1.0000 </r>
       <r>  -13.1274    1.0000 </r>
       <r>  -13.1224    1.0000 </r>
       <r>  -13.1164    1.0000 </r>
       <r>  -13.1114    1.0000 </r>
       <r>  -13.1099    1.0000 </r>
       <r>  -13.1052    1.0000 </r>
       <r>  -13.1006    1.0000 </r>
       <r>  -13.0986    1.0000 </r>
       <r>  -13.0950    1.0000 </r>
       <r>  -13.0915    1.0000 </r>
       <r>  -13.0896    1.0000 </r>
       <r>  -13.0811    1.0000 </r>
       <r>  -13.0787    1.0000 </r>
       <r>  -13.0753    1.0000 </r>
       <r>  -13.0699    1.0000 </r>
       <r>  -13.0612    1.0000 </r>
       <r>  -13.0547    1.0000 </r>
       <r>  -13.0504    1.0000 </r>
       <r>  -13.0455    1.0000 </r>
       <r>  -13.0413    1.0000 </r>
       <r>  -13.0358    1.0000 </r>
       <r>  -13.0323    1.0000 </r>
       <r>  -13.0284    1.0000 </r>
       <r>  -13.0160    1.0000 </r>
       <r>  -13.0150    1.0000 </r>
       <r>  -13.0074    1.0000 </r>
       <r>  -12.9985    1.0000 </r>
       <r>  -12.9921    1.0000 </r>
       <r>  -12.9887    1.0000 </r>
       <r>  -12.9785    1.0000 </r>
       <r>  -12.9763    1.0000 </r>
       <r>  -12.9734    1.0000 </r>
       <r>  -12.9689    1.0000 </r>
       <r>  -12.9663    1.0000 </r>
       <r>  -12.9588    1.0000 </r>
       <r>  -12.9494    1.0000 </r>
       <r>  -12.9465    1.0000 </r>
       <r>  -12.9381    1.0000 </r>
       <r>  -12.9293    1.0000 </r>
       <r>  -12.9267    1.0000 </r>
       <r>  -12.9235    1.0000 </r>
       <r>  -12.9118    1.0000 </r>
       <r>  -12.9044    1.0000 </r>
       <r>  -12.8929    1.0000 </r>
       <r>  -12.8905    1.0000 </r>
       <r>  -12.8846    1.0000 </r>
       <r>  -12.8789    1.0000 </r>
       <r>  -12.8750    1.0000 </r>
       <r>  -12.8682    1.0000 </r>
       <r>  -12.8588    1.0000 </r>
       <r>  -12.8492    1.0000 </r>
       <r>  -12.8476    1.0000 </r>
       <r>  -12.8400    1.0000 </r>
       <r>  -12.8311    1.0000 </r>
       <r>  -12.8187    1.0000 </r>
       <r>  -12.8109    1.0000 </r>
       <r>  -12.8009    1.0000 </r>
       <r>  -12.7915    1.0000 </r>
       <r>  -12.7850    1.0000 </r>
       <r>  -12.7735    1.0000 </r>
       <r>  -12.7670    1.0000 </r>
       <r>  -12.7589    1.0000 </r>
       <r>  -12.7494    1.0000 </r>
       <r>  -12.7351    1.0000 </r>
       <r>  -12.7251    1.0000 </r>
       <r>  -12.7104    1.0000 </r>
[...]
       <r>   -12.7689   259.2886   510.9858 </r>
       <r>   -12.6330   163.5649   533.2155 </r>
       <r>   -12.4971   156.7073   554.5131 </r>
       <r>   -12.3612   117.7659   570.5183 </r>
       <r>   -12.2253   111.5881   585.6840 </r>
       <r>   -12.0894    92.3728   598.2381 </r>
       <r>   -11.9534    61.3025   606.5696 </r>
       <r>   -11.8175    36.5121   611.5318 </r>
       <r>   -11.6816     3.4448   612.0000 </r>
       <r>   -11.5457     0.0001   612.0000 </r>
       <r>   -11.4098     0.0000   612.0000 </r>
       <r>   -11.2739     0.0000   612.0000 </r>
       <r>   -11.1380     0.0000   612.0000 </r>
       <r>   -11.0021     0.0000   612.0000 </r>
       <r>   -10.8662     0.0000   612.0000 </r>
       <r>   -10.7303     0.0000   612.0000 </r>
       <r>   -10.5944     0.0000   612.0000 </r>
       <r>   -10.4585     0.0000   612.0000 </r>
       <r>   -10.3226     0.0000   612.0000 </r>
       <r>   -10.1867     0.0000   612.0000 </r>
       <r>   -10.0507     0.0000   612.0000 </r>
       <r>    -9.9148     0.0000   612.0000 </r>
       <r>    -9.7789     0.0000   612.0000 </r>
       <r>    -9.6430     0.0000   612.0000 </r>
       <r>    -9.5071     0.0000   612.0000 </r>
       <r>    -9.3712     0.0000   612.0000 </r>
       <r>    -9.2353     0.0000   612.0000 </r>
       <r>    -9.0994     0.0000   612.0000 </r>
       <r>    -8.9635     0.0000   612.0000 </r>
       <r>    -8.8276     0.0000   612.0000 </r>
       <r>    -8.6917     0.0000   612.0000 </r>
       <r>    -8.5558     0.0000   612.0000 </r>
       <r>    -8.4199     0.0000   612.0000 </r>
       <r>    -8.2840     0.0000   612.0000 </r>
       <r>    -8.1480     0.0000   612.0000 </r>
       <r>    -8.0121     0.0000   612.0000 </r>
       <r>    -7.8762     0.0000   612.0000 </r>
       <r>    -7.7403     0.0000   612.0000 </r>
       <r>    -7.6044     0.0000   612.0000 </r>
       <r>    -7.4685     0.0000   612.0000 </r>
       <r>    -7.3326     0.0000   612.0000 </r>
       <r>    -7.1967     0.0000   612.0000 </r>
       <r>    -7.0608     0.0000   612.0000 </r>
       <r>    -6.9249     0.0068   612.0009 </r>
       <r>    -6.7890    10.0505   613.3669 </r>
       <r>    -6.6531     4.6585   614.0000 </r>
       <r>    -6.5172     0.0001   614.0000 </r>
       <r>    -6.3813     0.0000   614.0000 </r>
       <r>    -6.2453     0.0000   614.0000 </r>
       <r>    -6.1094     0.0000   614.0000 </r>
       <r>    -5.9735     0.0000   614.0000 </r>
       <r>    -5.8376     0.0000   614.0000 </r>
       <r>    -5.7017     0.0000   614.0000 </r>
       <r>    -5.5658     0.9325   614.1267 </r>
       <r>    -5.4299    11.3301   615.6666 </r>
       <r>    -5.2940    15.3105   617.7474 </r>
       <r>    -5.1581    20.8590   620.5823 </r>
       <r>    -5.0222    29.3825   624.5756 </r>
       <r>    -4.8863    35.8676   629.4502 </r>
       <r>    -4.7504    42.5086   635.2274 </r>
       <r>    -4.6145    36.1210   640.1366 </r>
       <r>    -4.4786    40.9703   645.7047 </r>
       <r>    -4.3426    43.3045   651.5901 </r>
       <r>    -4.2067    39.8068   657.0001 </r>
       <r>    -4.0708    42.4762   662.7730 </r>
       <r>    -3.9349    34.8833   667.5139 </r>
       <r>    -3.7990    38.3898   672.7313 </r>
       <r>    -3.6631    29.9204   676.7977 </r>
       <r>    -3.5272    31.6166   681.0946 </r>
       <r>    -3.3913    31.6380   685.3945 </r>
       <r>    -3.2554    35.5589   690.2272 </r>
       <r>    -3.1195    44.4349   696.2662 </r>
       <r>    -2.9836    34.6595   700.9767 </r>
       <r>    -2.8477    33.9377   705.5890 </r>
       <r>    -2.7118    38.4819   710.8190 </r>
       <r>    -2.5759    35.9801   715.7090 </r>
       <r>    -2.4399    41.8481   721.3964 </r>
       <r>    -2.3040    42.9897   727.2390 </r>
       <r>    -2.1681    52.6218   734.3907 </r>
       <r>    -2.0322    60.7647   742.6491 </r>
       <r>    -1.8963    58.6712   750.6229 </r>
       <r>    -1.7604    51.9291   757.6804 </r>
       <r>    -1.6245    59.5622   765.7754 </r>
       <r>    -1.4886    54.6387   773.2012 </r>
       <r>    -1.3527    56.7066   780.9080 </r>
       <r>    -1.2168    67.8251   790.1259 </r>
       <r>    -1.0809    59.0560   798.1521 </r>
       <r>    -0.9450    55.4106   805.6828 </r>
       <r>    -0.8091    61.2170   814.0026 </r>
       <r>    -0.6732    58.2473   821.9188 </r>
       <r>    -0.5372    56.0369   829.5346 </r>
       <r>    -0.4013    60.8771   837.8083 </r>
       <r>    -0.2654    66.1414   846.7974 </r>
       <r>    -0.1295    64.7804   855.6015 </r>
       <r>     0.0064    71.1151   865.2665 </r>
       <r>     0.1423    78.7237   875.9657 </r>
       <r>     0.2782    79.0608   886.7106 </r>
       <r>     0.4141    77.4995   897.2433 </r>
       <r>     0.5500    80.6422   908.2032 </r>
       <r>     0.6859    86.4913   919.9580 </r>
       <r>     0.8218    93.5917   932.6777 </r>
       <r>     0.9577    99.0221   946.1356 </r>
       <r>     1.0936   108.3064   960.8552 </r>
       <r>     1.2295   110.6896   975.8987 </r>
       <r>     1.3655    95.7196   988.9077 </r>
       <r>     1.5014    87.0666  1000.7406 </r>
       <r>     1.6373    71.6204  1010.4743 </r>
       <r>     1.7732    49.2568  1017.1687 </r>
       <r>     1.9091    46.4374  1023.4799 </r>
       <r>     2.0450    48.4471  1030.0642 </r>
       <r>     2.1809    18.5096  1032.5798 </r>
       <r>     2.3168    19.1836  1035.1870 </r>
       <r>     2.4527    17.4496  1037.5585 </r>
       <r>     2.5886    17.7996  1039.9776 </r>
       <r>     2.7245     0.1650  1040.0000 </r>
       <r>     2.8604     0.0000  1040.0000 </r>
       <r>     2.9963     0.0000  1040.0000 </r>
       <r>     3.1322     0.0000  1040.0000 </r>
       <r>     3.2682     0.8225  1040.1118 </r>
       <r>     3.4041    12.4326  1041.8015 </r>
       <r>     3.5400     1.7748  1042.0427 </r>
       <r>     3.6759     9.4143  1043.3221 </r>
       <r>     3.8118     4.9852  1043.9997 </r>
       <r>     3.9477     0.0355  1044.0045 </r>
       <r>     4.0836     6.5156  1044.8900 </r>
       <r>     4.2195     7.4440  1045.9017 </r>
       <r>     4.3554     0.7233  1046.0000 </r>
       <r>     4.4913     0.0000  1046.0000 </r>
       <r>     4.6272     0.0000  1046.0000 </r>
       <r>     4.7631     0.0000  1046.0000 </r>
       <r>     4.8990     0.0000  1046.0000 </r>
       <r>     5.0349     0.0073  1046.0010 </r>
       <r>     5.1709     2.1518  1046.2934 </r>
       <r>     5.3068    11.3287  1047.8331 </r>
       <r>     5.4427     1.3000  1048.0098 </r>
       <r>     5.5786     3.1458  1048.4373 </r>
       <r>     5.7145     6.8442  1049.3675 </r>
       <r>     5.8504     4.6241  1049.9959 </r>
       <r>     5.9863     4.6080  1050.6222 </r>
       <r>     6.1222     9.9896  1051.9798 </r>
       <r>     6.2581     0.1484  1052.0000 </r>
       <r>     6.3940     0.0000  1052.0000 </r>
       <r>     6.5299     0.0000  1052.0000 </r>
       <r>     6.6658     0.0000  1052.0000 </r>
       <r>     6.8017     0.0000  1052.0000 </r>
       <r>     6.9376     0.0000  1052.0000 </r>
       <r>     7.0736     0.0000  1052.0000 </r>
       <r>     7.2095     0.0034  1052.0005 </r>
       <r>     7.3454     1.5152  1052.2064 </r>
       <r>     7.4813     0.3211  1052.2500 </r>
       <r>     7.6172     1.2025  1052.4135 </r>
       <r>     7.7531     3.2343  1052.8530 </r>
       <r>     7.8890     2.1823  1053.1496 </r>
       <r>     8.0249     4.2049  1053.7211 </r>
       <r>     8.1608     3.6331  1054.2149 </r>
       <r>     8.2967     0.5049  1054.2835 </r>
       <r>     8.4326     9.3664  1055.5564 </r>
       <r>     8.5685     1.6920  1055.7864 </r>
       <r>     8.7044     3.4640  1056.2572 </r>
       <r>     8.8404     4.7593  1056.9040 </r>
       <r>     8.9763     8.4114  1058.0472 </r>
       <r>     9.1122     4.4779  1058.6557 </r>
       <r>     9.2481     8.6262  1059.8281 </r>
       <r>     9.3840     5.1859  1060.5329 </r>
       <r>     9.5199    10.9671  1062.0234 </r>
       <r>     9.6558    18.2199  1064.4996 </r>
       <r>     9.7917     7.8642  1065.5684 </r>
       <r>     9.9276    12.2304  1067.2306 </r>
       <r>    10.0635    13.1490  1069.0177 </r>
       <r>    10.1994    19.0306  1071.6041 </r>
       <r>    10.3353    20.4559  1074.3842 </r>
       <r>    10.4712    27.2060  1078.0817 </r>
       <r>    10.6071    27.4189  1081.8081 </r>
       <r>    10.7431    31.4295  1086.0796 </r>
       <r>    10.8790    28.1101  1089.8999 </r>
       <r>    11.0149    22.7466  1092.9914 </r>
       <r>    11.1508    26.8960  1096.6467 </r>
       <r>    11.2867    30.6711  1100.8151 </r>
       <r>    11.4226    33.1000  1105.3137 </r>
       <r>    11.5585    34.5031  1110.0029 </r>
       <r>    11.6944    36.4815  1114.9610 </r>
       <r>    11.8303    36.2455  1119.8870 </r>
       <r>    11.9662    35.0832  1124.6551 </r>
       <r>    12.1021    33.8943  1129.2616 </r>
       <r>    12.2380    33.7543  1133.8490 </r>
       <r>    12.3739    34.2537  1138.5043 </r>
       <r>    12.5098    33.8396  1143.1034 </r>
       <r>    12.6458    29.5807  1147.1236 </r>
       <r>    12.7817    35.5716  1151.9581 </r>
       <r>    12.9176    26.8608  1155.6086 </r>
       <r>    13.0535    30.4376  1159.7453 </r>
       <r>    13.1894    25.4310  1163.2016 </r>
       <r>    13.3253    27.5342  1166.9437 </r>
       <r>    13.4612    29.1911  1170.9109 </r>
       <r>    13.5971    26.6409  1174.5316 </r>
       <r>    13.7330    25.7136  1178.0263 </r>
       <r>    13.8689    28.0903  1181.8440 </r>
       <r>    14.0048    24.6899  1185.1995 </r>
       <r>    14.1407    21.5277  1188.1253 </r>
       <r>    14.2766    28.5137  1192.0005 </r>
       <r>    14.4125    25.0596  1195.4063 </r>
       <r>    14.5485    26.7497  1199.0418 </r>
       <r>    14.6844    28.1623  1202.8692 </r>
       <r>    14.8203    28.1980  1206.7015 </r>
       <r>    14.9562    25.2503  1210.1332 </r>
       <r>    15.0921    20.5413  1212.9249 </r>
       <r>    15.2280    23.0001  1216.0508 </r>
       <r>    15.3639    26.6336  1219.6705 </r>
       <r>    15.4998    22.6290  1222.7459 </r>
       <r>    15.6357    21.7744  1225.7052 </r>
       <r>    15.7716    24.0942  1228.9798 </r>
       <r>    15.9075    23.0367  1232.1107 </r>
       <r>    16.0434    21.5901  1235.0449 </r>
       <r>    16.1793    24.1264  1238.3239 </r>
       <r>    16.3152    28.8829  1242.2493 </r>
       <r>    16.4512    21.8366  1245.2170 </r>
       <r>    16.5871    21.2822  1248.1094 </r>
       <r>    16.7230    21.4135  1251.0197 </r>
       <r>    16.8589    19.6777  1253.6940 </r>
       <r>    16.9948    18.2845  1256.1790 </r>
       <r>    17.1307    20.0785  1258.9078 </r>
       <r>    17.2666    14.9734  1260.9428 </r>
       <r>    17.4025     9.0533  1262.1732 </r>
       <r>    17.5384    10.6217  1263.6168 </r>
       <r>    17.6743     8.8165  1264.8150 </r>
       <r>    17.8102     3.2001  1265.2499 </r>
       <r>    17.9461     5.4993  1265.9973 </r>
       <r>    18.0820     0.0198  1266.0000 </r>
       <r>    18.2179     0.0000  1266.0000 </r>
       <r>    18.3539     0.0000  1266.0000 </r>
       <r>    18.4898     0.0000  1266.0000 </r>
       <r>    18.6257     0.0000  1266.0000 </r>
       <r>    18.7616     0.0000  1266.0000 </r>
       <r>    18.8975     0.0000  1266.0000 </r>
       <r>    19.0334     0.0000  1266.0000 </r>
       <r>    19.1693     0.0000  1266.0000 </r>
       <r>    19.3052     0.0000  1266.0000 </r>
       <r>    19.4411     0.0000  1266.0000 </r>
       <r>    19.5770     0.0000  1266.0000 </r>
       <r>    19.7129     0.0000  1266.0000 </r>
      </set>
     </set>
    </array>
   </total>
  </dos>
 </calculation>
 <structure name="finalpos" >
  <crystal>
   <varray name="basis" >
    <v>       0.00000000      12.28047342       0.00000000 </v>
    <v>       9.14270205       0.00000000       0.00000000 </v>
    <v>       0.00000000      -2.76826177     -11.30069772 </v>
   </varray>
   <i name="volume">   1268.80515525 </i>
   <varray name="rec_basis" >
    <v>       0.00000000       0.08143009      -0.01994742 </v>
    <v>       0.10937686      -0.00000000       0.00000000 </v>
    <v>       0.00000000       0.00000000      -0.08849011 </v>
   </varray>
  </crystal>
  <varray name="positions" >
   <v>       0.65636472       0.00249363       0.15829709 </v>
   <v>       0.65377920       0.00472659       0.65592006 </v>
   <v>       0.68397387       0.33376138       0.15112817 </v>
   <v>       0.65751226       0.33996796       0.65521033 </v>
   <v>       0.65662751       0.66387789       0.15752554 </v>
   <v>       0.64755763       0.67342395       0.65675819 </v>
   <v>       0.84281639       0.16198895       0.36377123 </v>
   <v>       0.83529535       0.17157624       0.83954741 </v>
   <v>       0.84328874       0.50512090       0.34891692 </v>
   <v>       0.83581685       0.51098011       0.83701711 </v>
   <v>       0.84407342       0.83600636       0.35043301 </v>
   <v>       0.83845245       0.84323675       0.83970047 </v>
   <v>       0.58804752       0.17027148       0.39114538 </v>
   <v>       0.59635450       0.20015459       0.90575161 </v>
   <v>       0.59262686       0.50204136       0.39236870 </v>
   <v>       0.60441057       0.45931355       0.90703482 </v>
   <v>       0.58735609       0.83971285       0.39782000 </v>
   <v>       0.57464444       0.83071967       0.89452324 </v>
   <v>       0.90441189       0.00385563       0.10579153 </v>
   <v>       0.92246548       0.03542500       0.60578920 </v>
   <v>       0.91232321       0.34151118       0.10154709 </v>
   <v>       0.90749202       0.30131070       0.59822699 </v>
   <v>       0.90044298       0.67350640       0.10112324 </v>
   <v>       0.90813634       0.66188531       0.60224292 </v>
   <v>       0.15671249       0.16377673       0.15528652 </v>
   <v>       0.16022273       0.13370050       0.59199551 </v>
   <v>       0.15911016       0.50953879       0.15532765 </v>
   <v>       0.15399100       0.49399671       0.65381130 </v>
   <v>       0.15709442       0.84639510       0.14903071 </v>
   <v>       0.14913290       0.82625277       0.66379005 </v>
   <v>       0.33013878       0.00502471       0.33897137 </v>
   <v>       0.34822997       0.98728660       0.84821774 </v>
   <v>       0.33568193       0.33635604       0.34056614 </v>
   <v>       0.31273621       0.32062210       0.84493665 </v>
   <v>       0.34086382       0.66830009       0.33406174 </v>
   <v>       0.35800502       0.65352898       0.84696204 </v>
   <v>       0.09465691       0.01846222       0.87120200 </v>
   <v>       0.08673726       0.33937964       0.39625814 </v>
   <v>       0.07891519       0.34920300       0.89521920 </v>
   <v>       0.09222079       0.68546375       0.39800356 </v>
   <v>       0.09393756       0.68710157       0.89088646 </v>
   <v>       0.39836267       0.19921971       0.09098320 </v>
   <v>       0.40537446       0.17424385       0.60893256 </v>
   <v>       0.40393369       0.46197974       0.09301287 </v>
   <v>       0.40315596       0.50849089       0.60128016 </v>
   <v>       0.43132744       0.82950397       0.11656189 </v>
   <v>       0.38134868       0.84863660       0.59556741 </v>
   <v>       0.99344882       0.17060014       0.13008840 </v>
   <v>       0.07506671       0.07682862       0.69896815 </v>
   <v>       0.99568756       0.51184052       0.12608450 </v>
   <v>       0.98842706       0.48557664       0.61784592 </v>
   <v>       0.99274852       0.83677713       0.12094831 </v>
   <v>       0.98938386       0.83309599       0.61935511 </v>
   <v>       0.49713570       0.00616006       0.37117159 </v>
   <v>       0.51222674       0.01995896       0.87825372 </v>
   <v>       0.50004345       0.33791192       0.36993502 </v>
   <v>       0.46287332       0.32498429       0.86870251 </v>
   <v>       0.50395002       0.66794777       0.37005665 </v>
   <v>       0.52054646       0.63730151       0.88099534 </v>
   <v>       0.68142457       0.16086809       0.28737395 </v>
   <v>       0.66928592       0.16603058       0.77263627 </v>
   <v>       0.67934006       0.50833606       0.28360128 </v>
   <v>       0.66970941       0.51056124       0.77231537 </v>
   <v>       0.66468842       0.83330394       0.27712023 </v>
   <v>       0.66468171       0.83865637       0.78101260 </v>
   <v>       0.82316907       0.98812335       0.22072313 </v>
   <v>       0.82572147       0.00362971       0.71879654 </v>
   <v>       0.84019963       0.33785792       0.22739948 </v>
   <v>       0.82251842       0.34433611       0.71947528 </v>
   <v>       0.82742900       0.67359867       0.22457662 </v>
   <v>       0.82256604       0.67541345       0.71585721 </v>
   <v>       0.81600296       0.98747200       0.45593246 </v>
   <v>       0.83057281       0.00633265       0.94588874 </v>
   <v>       0.81438281       0.34556219       0.44519756 </v>
   <v>       0.83914079       0.34244219       0.94373528 </v>
   <v>       0.82242210       0.66711816       0.44888601 </v>
   <v>       0.82857908       0.67716460       0.94178902 </v>
   <v>       0.69115341       0.15460697       0.06087872 </v>
   <v>       0.65859768       0.17302142       0.55075736 </v>
   <v>       0.69670973       0.51326953       0.06188120 </v>
   <v>       0.65909155       0.50654295       0.55163104 </v>
   <v>       0.65561224       0.83284453       0.05267890 </v>
   <v>       0.65988511       0.83776585       0.55569941 </v>
   <v>       0.49311144       0.02016480       0.12835308 </v>
   <v>       0.48848675       0.00414114       0.62260577 </v>
   <v>       0.53584223       0.33247304       0.13779737 </v>
   <v>       0.49383329       0.34099801       0.62851573 </v>
   <v>       0.49627772       0.64153410       0.13109851 </v>
   <v>       0.48569297       0.67839304       0.61669910 </v>
   <v>       0.99651313       0.17838721       0.87540969 </v>
   <v>       0.00471918       0.51220202       0.37350233 </v>
   <v>       0.99785332       0.52094005       0.87175751 </v>
   <v>       0.99740940       0.83323962       0.37527944 </v>
   <v>       0.99918454       0.84851181       0.86703009 </v>
   <v>       0.17347656       0.99791244       0.26602088 </v>
   <v>       0.19983372       0.90306619       0.82433936 </v>
   <v>       0.17029900       0.34636640       0.27714380 </v>
   <v>       0.15919203       0.34697807       0.78061091 </v>
   <v>       0.17099302       0.67389467       0.27759591 </v>
   <v>       0.16252428       0.65104889       0.76804163 </v>
   <v>       0.32481899       0.16983401       0.22415296 </v>
   <v>       0.31127115       0.15751794       0.71293896 </v>
   <v>       0.32525938       0.50741117       0.21885089 </v>
   <v>       0.32379601       0.50465135       0.71650357 </v>
   <v>       0.32987280       0.83217010       0.21143714 </v>
   <v>       0.36969354       0.81880961       0.74823766 </v>
   <v>       0.33025570       0.17243659       0.44874199 </v>
   <v>       0.30242788       0.14173539       0.93548959 </v>
   <v>       0.33346242       0.50429907       0.44223759 </v>
   <v>       0.31321380       0.51199264       0.94138200 </v>
   <v>       0.33948889       0.83149830       0.43355824 </v>
   <v>       0.37984816       0.82078169       0.95840755 </v>
   <v>       0.15347879       0.00950064       0.03983295 </v>
   <v>       0.22454282       0.94383761       0.57413711 </v>
   <v>       0.15299249       0.33937906       0.05302182 </v>
   <v>       0.18329754       0.34420119       0.55109047 </v>
   <v>       0.16451629       0.67702507       0.05010366 </v>
   <v>       0.17054307       0.66195346       0.55315762 </v>
   <v>       0.03092073       0.11353905       0.40082011 </v>
  </varray>
 </structure>
</modeling>
