       N       E                     dE             d eps       ncg     rms          rms(c)
DAV:   1     0.216717798765E+05    0.21672E+05   -0.31766E+05 10000   0.280E+03
DAV:   2     0.480575706949E+04   -0.16866E+05   -0.15895E+05 10000   0.813E+02
DAV:   3    -0.144778950554E+03   -0.49505E+04   -0.46656E+04 12864   0.320E+02
DAV:   4    -0.763509402839E+03   -0.61873E+03   -0.60550E+03 12408   0.121E+02
DAV:   5    -0.805504532777E+03   -0.41995E+02   -0.41684E+02 14360   0.342E+01    0.608E+01
RMM:   6    -0.698786713078E+03    0.10672E+03   -0.38344E+02 13143   0.237E+01    0.227E+01
RMM:   7    -0.703659253525E+03   -0.48725E+01   -0.71031E+01 13724   0.101E+01    0.183E+01
RMM:   8    -0.698628547126E+03    0.50307E+01   -0.11698E+01 15069   0.462E+00    0.136E+01
RMM:   9    -0.697869037534E+03    0.75951E+00   -0.50193E+00 14419   0.227E+00    0.102E+01
RMM:  10    -0.705159542191E+03   -0.72905E+01   -0.52524E+00 12092   0.297E+00    0.240E+01
RMM:  11    -0.697424775856E+03    0.77348E+01   -0.17716E+00 13743   0.156E+00    0.856E+00
RMM:  12    -0.697765407069E+03   -0.34063E+00   -0.15135E+00 13049   0.110E+00    0.586E+00
RMM:  13    -0.697380757025E+03    0.38465E+00   -0.55826E-01 13131   0.804E-01    0.443E+00
RMM:  14    -0.697217632682E+03    0.16312E+00   -0.78652E-02 15362   0.348E-01    0.409E+00
RMM:  15    -0.697218636994E+03   -0.10043E-02   -0.15706E-02 13442   0.150E-01    0.421E+00
RMM:  16    -0.696927113360E+03    0.29152E+00   -0.90137E-02 13252   0.247E-01    0.197E+00
RMM:  17    -0.696916385815E+03    0.10728E-01   -0.17283E-02 14276   0.131E-01    0.172E+00
RMM:  18    -0.696896690222E+03    0.19696E-01   -0.11727E-02 13880   0.104E-01    0.138E+00
RMM:  19    -0.696885772809E+03    0.10917E-01   -0.51073E-03 13327   0.712E-02    0.777E-01
RMM:  20    -0.696883150577E+03    0.26222E-02   -0.22918E-03 13805   0.474E-02    0.785E-01
RMM:  21    -0.696878603988E+03    0.45466E-02   -0.34640E-03 13513   0.577E-02    0.650E-01
RMM:  22    -0.696880086016E+03   -0.14820E-02   -0.12807E-03 13042   0.412E-02    0.915E-01
RMM:  23    -0.696876059315E+03    0.40267E-02   -0.13776E-03 13303   0.344E-02    0.652E-01
RMM:  24    -0.696875610417E+03    0.44890E-03   -0.87737E-04 12151   0.351E-02    0.609E-01
RMM:  25    -0.696874413765E+03    0.11967E-02   -0.15306E-04 10190   0.160E-02    0.195E-01
RMM:  26    -0.696874759427E+03   -0.34566E-03   -0.27525E-04 10802   0.188E-02    0.237E-01
RMM:  27    -0.696874620766E+03    0.13866E-03   -0.82090E-05  9702   0.129E-02    0.127E-01
RMM:  28    -0.696874576164E+03    0.44602E-04   -0.31301E-05  7823   0.803E-03    0.443E-02
RMM:  29    -0.696874575984E+03    0.18020E-06   -0.11951E-05  6151   0.497E-03
   1 F= -.69687458E+03 E0= -.69685638E+03  d E =-.696875E+03
       N       E                     dE             d eps       ncg     rms          rms(c)
DAV:   1    -0.683608415237E+03    0.13266E+02   -0.20996E+03 13720   0.701E+01    0.181E+01
RMM:   2    -0.695550047434E+03   -0.11942E+02   -0.13643E+02 13547   0.203E+01    0.405E+00
RMM:   3    -0.698859326751E+03   -0.33093E+01   -0.30576E+01 14661   0.885E+00    0.822E+00
RMM:   4    -0.699483983161E+03   -0.62466E+00   -0.59932E+00 15725   0.345E+00    0.826E+00
RMM:   5    -0.699482134814E+03    0.18483E-02   -0.70902E-01 15319   0.115E+00    0.617E+00
RMM:   6    -0.699428303045E+03    0.53832E-01   -0.49445E-01 13100   0.120E+00    0.321E+00
RMM:   7    -0.699421142322E+03    0.71607E-02   -0.86967E-02 14199   0.466E-01    0.346E+00
RMM:   8    -0.699405491466E+03    0.15651E-01   -0.28653E-02 14253   0.256E-01    0.175E+00
RMM:   9    -0.699399853314E+03    0.56382E-02   -0.23004E-02 13329   0.235E-01    0.173E-01
RMM:  10    -0.699400750882E+03   -0.89757E-03   -0.48674E-03 15185   0.904E-02    0.142E-01
RMM:  11    -0.699400914946E+03   -0.16406E-03   -0.17445E-03 13918   0.371E-02    0.669E-02
RMM:  12    -0.699401145388E+03   -0.23044E-03   -0.10161E-03 11941   0.265E-02    0.251E-02
RMM:  13    -0.699401279063E+03   -0.13367E-03   -0.72992E-04  9901   0.128E-02    0.214E-02
RMM:  14    -0.699401292950E+03   -0.13888E-04   -0.17453E-04  7638   0.873E-03    0.286E-03
RMM:  15    -0.699401298168E+03   -0.52175E-05   -0.56069E-05  6207   0.539E-03
   2 F= -.69940130E+03 E0= -.69939108E+03  d E =-.252672E+01
       N       E                     dE             d eps       ncg     rms          rms(c)
DAV:   1    -0.699421560971E+03   -0.20268E-01   -0.92524E+01 13412   0.126E+01    0.104E+01
RMM:   2    -0.704119628760E+03   -0.46981E+01   -0.16222E+01 13318   0.547E+00    0.104E+01
RMM:   3    -0.701029527991E+03    0.30901E+01   -0.28065E+00 14723   0.259E+00    0.673E+00
RMM:   4    -0.699925144796E+03    0.11044E+01   -0.30944E+00 13767   0.135E+00    0.237E+00
RMM:   5    -0.699857974422E+03    0.67170E-01   -0.35389E-01 15423   0.511E-01    0.179E+00
RMM:   6    -0.699945576217E+03   -0.87602E-01   -0.75231E-02 13438   0.268E-01    0.248E+00
RMM:   7    -0.699841147385E+03    0.10443E+00   -0.73523E-02 12876   0.279E-01    0.210E+00
RMM:   8    -0.699796708565E+03    0.44439E-01   -0.81943E-02 13986   0.190E-01    0.212E+00
RMM:   9    -0.699784283792E+03    0.12425E-01   -0.81667E-03 13821   0.970E-02    0.773E-01
RMM:  10    -0.699785851505E+03   -0.15677E-02   -0.17383E-03 12155   0.382E-02    0.715E-01
RMM:  11    -0.699786408547E+03   -0.55704E-03   -0.42533E-04 10480   0.234E-02    0.749E-01
RMM:  12    -0.699788237603E+03   -0.18291E-02   -0.42769E-04 10980   0.234E-02    0.868E-01
RMM:  13    -0.700119086450E+03   -0.33085E+00   -0.50407E-02 17674   0.179E-01    0.116E+01
RMM:  14    -0.699716587377E+03    0.40250E+00   -0.21275E-02 16930   0.218E-01    0.158E+00
RMM:  15    -0.699772764616E+03   -0.56177E-01   -0.11156E-02 15740   0.148E-01    0.562E-01
RMM:  16    -0.699781147694E+03   -0.83831E-02   -0.22213E-03 13716   0.867E-02    0.396E-01
RMM:  17    -0.699781175485E+03   -0.27791E-04   -0.38613E-04 11931   0.285E-02    0.448E-01
RMM:  18    -0.699781385396E+03   -0.20991E-03   -0.22395E-04 10580   0.197E-02    0.468E-01
RMM:  19    -0.699780708693E+03    0.67670E-03   -0.87362E-05  8825   0.111E-02    0.404E-01
RMM:  20    -0.699780130860E+03    0.57783E-03   -0.78018E-05  8425   0.824E-03    0.329E-01
RMM:  21    -0.699779841557E+03    0.28930E-03   -0.43749E-05  7277   0.661E-03    0.273E-01
RMM:  22    -0.699779595713E+03    0.24584E-03   -0.37151E-05  6901   0.650E-03    0.212E-01
RMM:  23    -0.699779445385E+03    0.15033E-03   -0.34679E-05  6652   0.707E-03    0.159E-01
RMM:  24    -0.699779335466E+03    0.10992E-03   -0.42885E-05  6989   0.749E-03    0.102E-01
RMM:  25    -0.699779286698E+03    0.48768E-04   -0.35591E-05  6734   0.749E-03    0.502E-02
RMM:  26    -0.699779277054E+03    0.96442E-05   -0.28597E-05  6480   0.704E-03
   3 F= -.69977928E+03 E0= -.69976705E+03  d E =-.290470E+01
       N       E                     dE             d eps       ncg     rms          rms(c)
DAV:   1    -0.699339942818E+03    0.43934E+00   -0.33429E+02 10222   0.255E+01    0.802E+00
RMM:   2    -0.701065134811E+03   -0.17252E+01   -0.19003E+01 13578   0.813E+00    0.224E+00
RMM:   3    -0.701415240507E+03   -0.35011E+00   -0.44720E+00 15415   0.320E+00    0.344E+00
RMM:   4    -0.701427253641E+03   -0.12013E-01   -0.60238E-01 15623   0.114E+00    0.307E+00
RMM:   5    -0.701391670528E+03    0.35583E-01   -0.12695E-01 15152   0.489E-01    0.119E+00
RMM:   6    -0.701383975910E+03    0.76946E-02   -0.86711E-02 12730   0.373E-01    0.950E-01
RMM:   7    -0.701379672674E+03    0.43032E-02   -0.18682E-02 15406   0.171E-01    0.575E-01
RMM:   8    -0.701378525762E+03    0.11469E-02   -0.73358E-03 14381   0.828E-02    0.200E-01
RMM:   9    -0.701378535158E+03   -0.93960E-05   -0.15978E-03 13691   0.448E-02    0.948E-02
RMM:  10    -0.701378561795E+03   -0.26637E-04   -0.71216E-04 11851   0.296E-02    0.238E-02
RMM:  11    -0.701378578870E+03   -0.17076E-04   -0.19381E-04 10820   0.168E-02    0.202E-02
RMM:  12    -0.701378582237E+03   -0.33673E-05   -0.68061E-05  9398   0.104E-02
   4 F= -.70137858E+03 E0= -.70136873E+03  d E =-.159931E+01
       N       E                     dE             d eps       ncg     rms          rms(c)
DAV:   1    -0.701118251580E+03    0.26033E+00   -0.96434E+01 10936   0.138E+01    0.281E+00
RMM:   2    -0.701535205409E+03   -0.41695E+00   -0.45969E+00 13632   0.403E+00    0.167E+00
RMM:   3    -0.701580940542E+03   -0.45735E-01   -0.10166E+00 15408   0.154E+00    0.987E-01
RMM:   4    -0.701583198056E+03   -0.22575E-02   -0.13212E-01 15574   0.541E-01    0.822E-01
RMM:   5    -0.701572063526E+03    0.11135E-01   -0.40850E-02 14123   0.274E-01    0.236E-01
RMM:   6    -0.701572055902E+03    0.76237E-05   -0.16929E-02 14184   0.161E-01    0.157E-01
RMM:   7    -0.701571784200E+03    0.27170E-03   -0.35045E-03 14877   0.735E-02    0.516E-02
RMM:   8    -0.701571845493E+03   -0.61293E-04   -0.10548E-03 13237   0.345E-02    0.240E-02
RMM:   9    -0.701571869857E+03   -0.24364E-04   -0.29938E-04 10953   0.207E-02    0.912E-03
RMM:  10    -0.701571878706E+03   -0.88485E-05   -0.10606E-04  9734   0.112E-02    0.435E-03
RMM:  11    -0.701571881089E+03   -0.23833E-05   -0.33688E-05  8319   0.771E-03
   5 F= -.70157188E+03 E0= -.70155976E+03  d E =-.179260E+01
       N       E                     dE             d eps       ncg     rms          rms(c)
DAV:   1    -0.702086212161E+03   -0.51433E+00   -0.13069E+02 10404   0.154E+01    0.573E+00
RMM:   2    -0.702593155183E+03   -0.50694E+00   -0.69236E+00 13478   0.457E+00    0.162E+00
RMM:   3    -0.702718670165E+03   -0.12551E+00   -0.16167E+00 15515   0.179E+00    0.177E+00
RMM:   4    -0.702722086104E+03   -0.34159E-02   -0.21984E-01 15630   0.640E-01    0.145E+00
RMM:   5    -0.702714654481E+03    0.74316E-02   -0.46990E-02 15034   0.284E-01    0.707E-01
RMM:   6    -0.702713854250E+03    0.80023E-03   -0.21664E-02 13439   0.180E-01    0.238E-01
RMM:   7    -0.702713254337E+03    0.59991E-03   -0.58711E-03 15421   0.856E-02    0.995E-02
RMM:   8    -0.702713360541E+03   -0.10620E-03   -0.22278E-03 13334   0.430E-02    0.414E-02
RMM:   9    -0.702713385062E+03   -0.24521E-04   -0.44464E-04 11220   0.241E-02    0.360E-02
RMM:  10    -0.702713396641E+03   -0.11579E-04   -0.23795E-04 10383   0.151E-02    0.131E-02
RMM:  11    -0.702713398758E+03   -0.21170E-05   -0.54001E-05  9256   0.930E-03
   6 F= -.70271340E+03 E0= -.70270118E+03  d E =-.114152E+01
       N       E                     dE             d eps       ncg     rms          rms(c)
DAV:   1    -0.701008428732E+03    0.17050E+01   -0.46194E+02 10540   0.290E+01    0.232E+01
RMM:   2    -0.703560391041E+03   -0.25520E+01   -0.29722E+01 13794   0.869E+00    0.353E+00
RMM:   3    -0.703819483635E+03   -0.25909E+00   -0.50230E+00 15513   0.323E+00    0.434E+00
RMM:   4    -0.703868808943E+03   -0.49325E-01   -0.91651E-01 15499   0.119E+00    0.366E+00
RMM:   5    -0.703824827241E+03    0.43982E-01   -0.24157E-01 14665   0.627E-01    0.955E-01
RMM:   6    -0.703827775706E+03   -0.29485E-02   -0.75360E-02 15452   0.309E-01    0.313E-01
RMM:   7    -0.703828128241E+03   -0.35254E-03   -0.19298E-02 15292   0.140E-01    0.160E-01
RMM:   8    -0.703828689683E+03   -0.56144E-03   -0.73899E-03 13867   0.806E-02    0.608E-02
RMM:   9    -0.703828893844E+03   -0.20416E-03   -0.23501E-03 13700   0.442E-02    0.199E-02
RMM:  10    -0.703828972583E+03   -0.78738E-04   -0.90683E-04 11065   0.245E-02    0.219E-02
RMM:  11    -0.703828993661E+03   -0.21079E-04   -0.30826E-04 10306   0.144E-02    0.784E-03
RMM:  12    -0.703829006812E+03   -0.13151E-04   -0.14109E-04  9244   0.879E-03    0.364E-03
RMM:  13    -0.703829011274E+03   -0.44624E-05   -0.50320E-05  7707   0.587E-03
   7 F= -.70382901E+03 E0= -.70382374E+03  d E =-.225713E+01
       N       E                     dE             d eps       ncg     rms          rms(c)
DAV:   1    -0.703597635152E+03    0.23137E+00   -0.22758E+02 11144   0.219E+01    0.626E+00
RMM:   2    -0.704633006979E+03   -0.10354E+01   -0.11938E+01 13997   0.671E+00    0.201E+00
RMM:   3    -0.704805590560E+03   -0.17258E+00   -0.23092E+00 15585   0.242E+00    0.995E-01
RMM:   4    -0.704816303989E+03   -0.10713E-01   -0.31070E-01 15727   0.865E-01    0.628E-01
RMM:   5    -0.704811393683E+03    0.49103E-02   -0.67684E-02 15069   0.388E-01    0.127E-01
RMM:   6    -0.704812483012E+03   -0.10893E-02   -0.15209E-02 15506   0.178E-01    0.735E-02
RMM:   7    -0.704812759552E+03   -0.27654E-03   -0.39064E-03 15260   0.817E-02    0.305E-02
RMM:   8    -0.704812858308E+03   -0.98757E-04   -0.11675E-03 13278   0.412E-02    0.103E-02
RMM:   9    -0.704812890741E+03   -0.32433E-04   -0.36662E-04 11403   0.229E-02    0.658E-03
RMM:  10    -0.704812901627E+03   -0.10886E-04   -0.12771E-04 10228   0.135E-02    0.324E-03
RMM:  11    -0.704812905222E+03   -0.35952E-05   -0.45106E-05  9189   0.826E-03
   8 F= -.70481291E+03 E0= -.70480933E+03  d E =-.983894E+00
       N       E                     dE             d eps       ncg     rms          rms(c)
DAV:   1    -0.704764448509E+03    0.48453E-01   -0.25090E+01 11400   0.723E+00    0.190E+00
RMM:   2    -0.704869973664E+03   -0.10553E+00   -0.11660E+00 13691   0.211E+00    0.717E-01
RMM:   3    -0.704887325880E+03   -0.17352E-01   -0.23412E-01 15483   0.763E-01    0.368E-01
RMM:   4    -0.704887928521E+03   -0.60264E-03   -0.28853E-02 15700   0.271E-01    0.185E-01
RMM:   5    -0.704887880211E+03    0.48309E-04   -0.62214E-03 15465   0.119E-01    0.392E-02
RMM:   6    -0.704887973335E+03   -0.93123E-04   -0.13649E-03 15209   0.546E-02    0.275E-02
RMM:   7    -0.704887995247E+03   -0.21913E-04   -0.36740E-04 12729   0.264E-02    0.696E-03
RMM:   8    -0.704888004599E+03   -0.93519E-05   -0.11302E-04 10487   0.144E-02    0.359E-03
RMM:   9    -0.704888007315E+03   -0.27158E-05   -0.38254E-05  9135   0.893E-03
   9 F= -.70488801E+03 E0= -.70488326E+03  d E =-.105900E+01
       N       E                     dE             d eps       ncg     rms          rms(c)
DAV:   1    -0.704534587356E+03    0.35342E+00   -0.22128E+02 10640   0.219E+01    0.317E+00
RMM:   2    -0.705477873607E+03   -0.94329E+00   -0.10510E+01 13815   0.662E+00    0.143E+00
RMM:   3    -0.705657869521E+03   -0.18000E+00   -0.21904E+00 15406   0.247E+00    0.152E+00
RMM:   4    -0.705670978689E+03   -0.13109E-01   -0.27796E-01 15654   0.853E-01    0.129E+00
RMM:   5    -0.705659722014E+03    0.11257E-01   -0.94352E-02 13196   0.474E-01    0.311E-01
RMM:   6    -0.705659887952E+03   -0.16594E-03   -0.23133E-02 15196   0.245E-01    0.254E-01
RMM:   7    -0.705659135510E+03    0.75244E-03   -0.77350E-03 14844   0.115E-01    0.563E-02
RMM:   8    -0.705659255957E+03   -0.12045E-03   -0.14631E-03 15269   0.526E-02    0.273E-02
RMM:   9    -0.705659295337E+03   -0.39379E-04   -0.43440E-04 12385   0.257E-02    0.191E-02
RMM:  10    -0.705659300039E+03   -0.47024E-05   -0.11541E-04 10324   0.145E-02    0.528E-03
RMM:  11    -0.705659304101E+03   -0.40617E-05   -0.43359E-05  8755   0.834E-03
  10 F= -.70565930E+03 E0= -.70565410E+03  d E =-.771297E+00
       N       E                     dE             d eps       ncg     rms          rms(c)
DAV:   1    -0.705608131004E+03    0.51169E-01   -0.21230E+01 11336   0.686E+00    0.101E+00
RMM:   2    -0.705690950463E+03   -0.82819E-01   -0.90985E-01 13539   0.195E+00    0.448E-01
RMM:   3    -0.705706163528E+03   -0.15213E-01   -0.19463E-01 15361   0.731E-01    0.355E-01
RMM:   4    -0.705706425937E+03   -0.26241E-03   -0.23555E-02 15591   0.253E-01    0.199E-01
RMM:   5    -0.705706169809E+03    0.25613E-03   -0.61228E-03 14343   0.120E-01    0.461E-02
RMM:   6    -0.705706268646E+03   -0.98837E-04   -0.14561E-03 15411   0.572E-02    0.292E-02
RMM:   7    -0.705706292328E+03   -0.23682E-04   -0.39731E-04 12866   0.252E-02    0.141E-02
RMM:   8    -0.705706298025E+03   -0.56968E-05   -0.10040E-04 10123   0.139E-02    0.384E-03
RMM:   9    -0.705706300645E+03   -0.26202E-05   -0.36353E-05  8711   0.875E-03
  11 F= -.70570630E+03 E0= -.70570144E+03  d E =-.818293E+00
       N       E                     dE             d eps       ncg     rms          rms(c)
DAV:   1    -0.705276592195E+03    0.42971E+00   -0.20380E+02 10199   0.198E+01    0.621E+00
RMM:   2    -0.706149308450E+03   -0.87272E+00   -0.93831E+00 13452   0.554E+00    0.150E+00
RMM:   3    -0.706291446021E+03   -0.14214E+00   -0.17691E+00 15397   0.206E+00    0.116E+00
RMM:   4    -0.706296610471E+03   -0.51645E-02   -0.21217E-01 15470   0.709E-01    0.558E-01
RMM:   5    -0.706297217215E+03   -0.60674E-03   -0.46933E-02 15225   0.313E-01    0.119E-01
RMM:   6    -0.706298260260E+03   -0.10430E-02   -0.11211E-02 15599   0.146E-01    0.678E-02
RMM:   7    -0.706298542969E+03   -0.28271E-03   -0.30976E-03 15039   0.687E-02    0.242E-02
RMM:   8    -0.706298627839E+03   -0.84871E-04   -0.92499E-04 13258   0.362E-02    0.930E-03
RMM:   9    -0.706298654798E+03   -0.26959E-04   -0.30160E-04 10868   0.194E-02    0.472E-03
RMM:  10    -0.706298663361E+03   -0.85631E-05   -0.99731E-05  9845   0.118E-02
  12 F= -.70629866E+03 E0= -.70629513E+03  d E =-.592363E+00
       N       E                     dE             d eps       ncg     rms          rms(c)
DAV:   1    -0.706291990995E+03    0.66638E-02   -0.37726E+00 11104   0.266E+00    0.736E-01
RMM:   2    -0.706307156180E+03   -0.15165E-01   -0.16630E-01 13201   0.721E-01    0.271E-01
RMM:   3    -0.706309282474E+03   -0.21263E-02   -0.30121E-02 15394   0.269E-01    0.153E-01
RMM:   4    -0.706309315092E+03   -0.32618E-04   -0.33571E-03 14913   0.933E-02    0.599E-02
RMM:   5    -0.706309353470E+03   -0.38378E-04   -0.78492E-04 14782   0.422E-02    0.194E-02
RMM:   6    -0.706309368430E+03   -0.14959E-04   -0.17683E-04 11888   0.196E-02    0.108E-02
RMM:   7    -0.706309372426E+03   -0.39963E-05   -0.53531E-05  9349   0.106E-02
  13 F= -.70630937E+03 E0= -.70630584E+03  d E =-.603072E+00
       N       E                     dE             d eps       ncg     rms          rms(c)
DAV:   1    -0.706219453992E+03    0.89914E-01   -0.65166E+01 10848   0.119E+01    0.152E+00
RMM:   2    -0.706474388130E+03   -0.25493E+00   -0.27059E+00 13663   0.352E+00    0.555E-01
RMM:   3    -0.706530956491E+03   -0.56568E-01   -0.65361E-01 15082   0.132E+00    0.452E-01
RMM:   4    -0.706532379396E+03   -0.14229E-02   -0.75678E-02 15545   0.452E-01    0.177E-01
RMM:   5    -0.706532439867E+03   -0.60471E-04   -0.15110E-02 15377   0.196E-01    0.609E-02
RMM:   6    -0.706532710910E+03   -0.27104E-03   -0.31783E-03 15524   0.850E-02    0.422E-02
RMM:   7    -0.706532757426E+03   -0.46515E-04   -0.78177E-04 13236   0.446E-02    0.184E-02
RMM:   8    -0.706532776703E+03   -0.19277E-04   -0.27737E-04 13178   0.232E-02    0.579E-03
RMM:   9    -0.706532781632E+03   -0.49285E-05   -0.64385E-05  9401   0.105E-02
  14 F= -.70653278E+03 E0= -.70652923E+03  d E =-.223409E+00
       N       E                     dE             d eps       ncg     rms          rms(c)
DAV:   1    -0.706528645614E+03    0.41311E-02   -0.25472E+00 11552   0.233E+00    0.284E-01
RMM:   2    -0.706537657047E+03   -0.90114E-02   -0.95972E-02 13510   0.649E-01    0.108E-01
RMM:   3    -0.706539480775E+03   -0.18237E-02   -0.21815E-02 15068   0.240E-01    0.883E-02
RMM:   4    -0.706539519601E+03   -0.38826E-04   -0.25196E-03 15353   0.832E-02    0.347E-02
RMM:   5    -0.706539520262E+03   -0.66034E-06   -0.52964E-04 14395   0.364E-02    0.129E-02
RMM:   6    -0.706539528385E+03   -0.81234E-05   -0.11269E-04 11594   0.165E-02    0.808E-03
RMM:   7    -0.706539530167E+03   -0.17818E-05   -0.32819E-05  8770   0.100E-02
  15 F= -.70653953E+03 E0= -.70653596E+03  d E =-.230158E+00
       N       E                     dE             d eps       ncg     rms          rms(c)
DAV:   1    -0.706510472724E+03    0.29056E-01   -0.24328E+01 10392   0.709E+00    0.922E-01
RMM:   2    -0.706592042568E+03   -0.81570E-01   -0.88014E-01 13092   0.190E+00    0.365E-01
RMM:   3    -0.706608286499E+03   -0.16244E-01   -0.18938E-01 15237   0.726E-01    0.338E-01
RMM:   4    -0.706608884929E+03   -0.59843E-03   -0.20289E-02 15314   0.244E-01    0.211E-01
RMM:   5    -0.706608714278E+03    0.17065E-03   -0.52990E-03 14423   0.115E-01    0.463E-02
RMM:   6    -0.706608803456E+03   -0.89179E-04   -0.11690E-03 15149   0.532E-02    0.331E-02
RMM:   7    -0.706608828873E+03   -0.25417E-04   -0.37723E-04 13167   0.263E-02    0.297E-02
RMM:   8    -0.706608824336E+03    0.45365E-05   -0.89259E-05  9867   0.140E-02
  16 F= -.70660882E+03 E0= -.70660534E+03  d E =-.692942E-01
       N       E                     dE             d eps       ncg     rms          rms(c)
DAV:   1    -0.706605088794E+03    0.37401E-02   -0.19923E+00 11352   0.203E+00    0.264E-01
RMM:   2    -0.706611650244E+03   -0.65615E-02   -0.70845E-02 13050   0.537E-01    0.103E-01
RMM:   3    -0.706612942385E+03   -0.12921E-02   -0.15117E-02 15224   0.205E-01    0.928E-02
RMM:   4    -0.706612983426E+03   -0.41042E-04   -0.16294E-03 14931   0.696E-02    0.538E-02
RMM:   5    -0.706612978381E+03    0.50451E-05   -0.43936E-04 14049   0.331E-02    0.127E-02
RMM:   6    -0.706612984951E+03   -0.65698E-05   -0.88295E-05 10998   0.150E-02
  17 F= -.70661298E+03 E0= -.70660953E+03  d E =-.734548E-01
       N       E                     dE             d eps       ncg     rms          rms(c)
DAV:   1    -0.706594990494E+03    0.17988E-01   -0.12658E+01 10472   0.515E+00    0.744E-01
RMM:   2    -0.706636278280E+03   -0.41288E-01   -0.43782E-01 12933   0.133E+00    0.248E-01
RMM:   3    -0.706645354404E+03   -0.90761E-02   -0.10061E-01 15205   0.522E-01    0.201E-01
RMM:   4    -0.706645694914E+03   -0.34051E-03   -0.10438E-02 15293   0.171E-01    0.950E-02
RMM:   5    -0.706645752752E+03   -0.57838E-04   -0.23157E-03 15097   0.742E-02    0.348E-02
RMM:   6    -0.706645786036E+03   -0.33284E-04   -0.52269E-04 14730   0.329E-02    0.190E-02
RMM:   7    -0.706645798263E+03   -0.12227E-04   -0.14901E-04 10635   0.166E-02    0.923E-03
RMM:   8    -0.706645800303E+03   -0.20402E-05   -0.42673E-05  9020   0.102E-02
  18 F= -.70664580E+03 E0= -.70664231E+03  d E =-.328154E-01
       N       E                     dE             d eps       ncg     rms          rms(c)
DAV:   1    -0.706636260705E+03    0.95376E-02   -0.39593E+00 10984   0.288E+00    0.415E-01
RMM:   2    -0.706649124486E+03   -0.12864E-01   -0.13644E-01 12943   0.734E-01    0.140E-01
RMM:   3    -0.706651882214E+03   -0.27577E-02   -0.30605E-02 15199   0.287E-01    0.113E-01
RMM:   4    -0.706651984558E+03   -0.10234E-03   -0.32141E-03 15161   0.941E-02    0.534E-02
RMM:   5    -0.706652004912E+03   -0.20354E-04   -0.72856E-04 14568   0.413E-02    0.198E-02
RMM:   6    -0.706652014195E+03   -0.92835E-05   -0.16346E-04 12058   0.188E-02    0.106E-02
RMM:   7    -0.706652018308E+03   -0.41121E-05   -0.49690E-05  9107   0.102E-02
  19 F= -.70665202E+03 E0= -.70664851E+03  d E =-.390334E-01
       N       E                     dE             d eps       ncg     rms          rms(c)
DAV:   1    -0.706618809129E+03    0.33205E-01   -0.14614E+01 10448   0.553E+00    0.867E-01
RMM:   2    -0.706666735394E+03   -0.47926E-01   -0.50879E-01 12992   0.144E+00    0.248E-01
RMM:   3    -0.706677398224E+03   -0.10663E-01   -0.11693E-01 15118   0.563E-01    0.220E-01
RMM:   4    -0.706677966708E+03   -0.56848E-03   -0.12383E-02 15341   0.184E-01    0.135E-01
RMM:   5    -0.706677869369E+03    0.97338E-04   -0.28190E-03 14395   0.825E-02    0.353E-02
RMM:   6    -0.706677917776E+03   -0.48407E-04   -0.65136E-04 14966   0.381E-02    0.224E-02
RMM:   7    -0.706677932374E+03   -0.14598E-04   -0.17837E-04 11261   0.174E-02    0.154E-02
RMM:   8    -0.706677934510E+03   -0.21363E-05   -0.51856E-05  9099   0.112E-02
  20 F= -.70667793E+03 E0= -.70667448E+03  d E =-.259162E-01
       N       E                     dE             d eps       ncg     rms          rms(c)
DAV:   1    -0.706668594644E+03    0.93377E-02   -0.33303E+00 11048   0.264E+00    0.415E-01
RMM:   2    -0.706679363707E+03   -0.10769E-01   -0.11428E-01 12952   0.683E-01    0.118E-01
RMM:   3    -0.706681826135E+03   -0.24624E-02   -0.26962E-02 15118   0.269E-01    0.106E-01
RMM:   4    -0.706681965284E+03   -0.13915E-03   -0.28369E-03 15131   0.879E-02    0.671E-02
RMM:   5    -0.706681942454E+03    0.22830E-04   -0.66800E-04 14130   0.403E-02    0.181E-02
RMM:   6    -0.706681952979E+03   -0.10525E-04   -0.14919E-04 12135   0.185E-02    0.112E-02
RMM:   7    -0.706681956301E+03   -0.33219E-05   -0.44211E-05  8994   0.101E-02
  21 F= -.70668196E+03 E0= -.70667855E+03  d E =-.299380E-01
       N       E                     dE             d eps       ncg     rms          rms(c)
DAV:   1    -0.706650288353E+03    0.31665E-01   -0.11165E+01 10656   0.491E+00    0.635E-01
RMM:   2    -0.706686471882E+03   -0.36184E-01   -0.38678E-01 12986   0.128E+00    0.229E-01
RMM:   3    -0.706694823578E+03   -0.83517E-02   -0.90484E-02 15135   0.504E-01    0.198E-01
RMM:   4    -0.706695258942E+03   -0.43536E-03   -0.10061E-02 15342   0.168E-01    0.109E-01
RMM:   5    -0.706695257310E+03    0.16319E-05   -0.22713E-03 14646   0.740E-02    0.352E-02
RMM:   6    -0.706695295014E+03   -0.37705E-04   -0.52533E-04 14695   0.340E-02    0.220E-02
RMM:   7    -0.706695304705E+03   -0.96908E-05   -0.15327E-04 10980   0.167E-02    0.108E-02
RMM:   8    -0.706695306278E+03   -0.15731E-05   -0.40744E-05  8832   0.100E-02
  22 F= -.70669531E+03 E0= -.70669200E+03  d E =-.133500E-01
       N       E                     dE             d eps       ncg     rms          rms(c)
DAV:   1    -0.706695188586E+03    0.11612E-03   -0.54506E-02 11616   0.343E-01    0.445E-02
RMM:   2    -0.706695366933E+03   -0.17835E-03   -0.19014E-03 12977   0.891E-02    0.161E-02
RMM:   3    -0.706695406778E+03   -0.39844E-04   -0.44224E-04 14276   0.352E-02    0.142E-02
RMM:   4    -0.706695409203E+03   -0.24257E-05   -0.55003E-05  9404   0.137E-02
  23 F= -.70669541E+03 E0= -.70669211E+03  d E =-.134529E-01
       N       E                     dE             d eps       ncg     rms          rms(c)
DAV:   1    -0.706678667332E+03    0.16739E-01   -0.59268E+00 10782   0.358E+00    0.452E-01
RMM:   2    -0.706697343390E+03   -0.18676E-01   -0.19653E-01 12942   0.925E-01    0.140E-01
RMM:   3    -0.706701691198E+03   -0.43478E-02   -0.46297E-02 15037   0.363E-01    0.125E-01
RMM:   4    -0.706701940849E+03   -0.24965E-03   -0.52472E-03 15219   0.121E-01    0.718E-02
RMM:   5    -0.706701925230E+03    0.15620E-04   -0.11443E-03 14522   0.529E-02    0.220E-02
RMM:   6    -0.706701945757E+03   -0.20527E-04   -0.26010E-04 13267   0.241E-02    0.145E-02
RMM:   7    -0.706701952212E+03   -0.64551E-05   -0.78456E-05  9848   0.130E-02
  24 F= -.70670195E+03 E0= -.70669863E+03  d E =-.654301E-02
       N       E                     dE             d eps       ncg     rms          rms(c)
DAV:   1    -0.706701816724E+03    0.12903E-03   -0.83185E-02 11672   0.424E-01    0.514E-02
RMM:   2    -0.706702079041E+03   -0.26232E-03   -0.27567E-03 12916   0.111E-01    0.161E-02
RMM:   3    -0.706702142690E+03   -0.63649E-04   -0.68757E-04 14430   0.441E-02    0.152E-02
RMM:   4    -0.706702147577E+03   -0.48870E-05   -0.88982E-05 11119   0.167E-02
  25 F= -.70670215E+03 E0= -.70669883E+03  d E =-.673837E-02
       N       E                     dE             d eps       ncg     rms          rms(c)
DAV:   1    -0.706694486394E+03    0.76563E-02   -0.28031E+00 10848   0.250E+00    0.270E-01
RMM:   2    -0.706703561010E+03   -0.90746E-02   -0.95146E-02 13124   0.655E-01    0.885E-02
RMM:   3    -0.706705628495E+03   -0.20675E-02   -0.21799E-02 14982   0.254E-01    0.803E-02
RMM:   4    -0.706705742600E+03   -0.11410E-03   -0.25157E-03 15113   0.855E-02    0.415E-02
RMM:   5    -0.706705740355E+03    0.22444E-05   -0.54856E-04 14352   0.372E-02    0.158E-02
RMM:   6    -0.706705748773E+03   -0.84172E-05   -0.11701E-04 11541   0.167E-02    0.974E-03
RMM:   7    -0.706705750800E+03   -0.20271E-05   -0.36255E-05  8792   0.984E-03
  26 F= -.70670575E+03 E0= -.70670246E+03  d E =-.360322E-02
       N       E                     dE             d eps       ncg     rms          rms(c)
DAV:   1    -0.706705725035E+03    0.23737E-04   -0.29765E-02 11568   0.257E-01    0.260E-02
RMM:   2    -0.706705823188E+03   -0.98153E-04   -0.10266E-03 13098   0.683E-02    0.898E-03
RMM:   3    -0.706705844554E+03   -0.21366E-04   -0.23639E-04 12946   0.267E-02    0.861E-03
RMM:   4    -0.706705846178E+03   -0.16242E-05   -0.35963E-05  7812   0.130E-02
  27 F= -.70670585E+03 E0= -.70670256E+03  d E =-.369860E-02
       N       E                     dE             d eps       ncg     rms          rms(c)
DAV:   1    -0.706700306507E+03    0.55380E-02   -0.20425E+00 10656   0.208E+00    0.234E-01
RMM:   2    -0.706706510320E+03   -0.62038E-02   -0.65326E-02 12699   0.531E-01    0.739E-02
RMM:   3    -0.706707999975E+03   -0.14897E-02   -0.15825E-02 15049   0.213E-01    0.707E-02
RMM:   4    -0.706708073477E+03   -0.73502E-04   -0.17353E-03 15064   0.700E-02    0.373E-02
RMM:   5    -0.706708069336E+03    0.41413E-05   -0.39920E-04 13579   0.311E-02    0.169E-02
RMM:   6    -0.706708073361E+03   -0.40247E-05   -0.78245E-05  9883   0.141E-02
  28 F= -.70670807E+03 E0= -.70670480E+03  d E =-.222718E-02
       N       E                     dE             d eps       ncg     rms          rms(c)
DAV:   1    -0.706708025825E+03    0.43511E-04   -0.33732E-02 11688   0.268E-01    0.264E-02
RMM:   2    -0.706708139929E+03   -0.11410E-03   -0.11991E-03 12907   0.706E-02    0.102E-02
RMM:   3    -0.706708163301E+03   -0.23372E-04   -0.26748E-04 13146   0.279E-02    0.111E-02
RMM:   4    -0.706708164236E+03   -0.93557E-06   -0.39853E-05  8239   0.134E-02
  29 F= -.70670816E+03 E0= -.70670489E+03  d E =-.231806E-02
       N       E                     dE             d eps       ncg     rms          rms(c)
DAV:   1    -0.706704608065E+03    0.35552E-02   -0.13019E+00 10608   0.165E+00    0.193E-01
RMM:   2    -0.706708488764E+03   -0.38807E-02   -0.40807E-02 12650   0.417E-01    0.599E-02
RMM:   3    -0.706709473794E+03   -0.98503E-03   -0.10287E-02 15061   0.169E-01    0.568E-02
RMM:   4    -0.706709531443E+03   -0.57649E-04   -0.10905E-03 14895   0.545E-02    0.336E-02
RMM:   5    -0.706709529545E+03    0.18983E-05   -0.26445E-04 12574   0.252E-02    0.144E-02
RMM:   6    -0.706709531449E+03   -0.19041E-05   -0.51988E-05  9163   0.117E-02
  30 F= -.70670953E+03 E0= -.70670627E+03  d E =-.136721E-02
       N       E                     dE             d eps       ncg     rms          rms(c)
DAV:   1    -0.706709520721E+03    0.88240E-05   -0.13272E-02 11776   0.168E-01    0.163E-02
RMM:   2    -0.706709566806E+03   -0.46085E-04   -0.48477E-04 12684   0.451E-02    0.683E-03
RMM:   3    -0.706709576203E+03   -0.93969E-05   -0.11418E-04 11829   0.184E-02    0.770E-03
RMM:   4    -0.706709576552E+03   -0.34903E-06   -0.18613E-05  6410   0.977E-03
  31 F= -.70670958E+03 E0= -.70670631E+03  d E =-.141232E-02
       N       E                     dE             d eps       ncg     rms          rms(c)
DAV:   1    -0.706706936322E+03    0.26399E-02   -0.90324E-01 10536   0.138E+00    0.169E-01
RMM:   2    -0.706709632887E+03   -0.26966E-02   -0.28474E-02 12727   0.352E-01    0.510E-02
RMM:   3    -0.706710316354E+03   -0.68347E-03   -0.72135E-03 14935   0.142E-01    0.470E-02
RMM:   4    -0.706710354457E+03   -0.38103E-04   -0.75867E-04 14769   0.461E-02    0.267E-02
RMM:   5    -0.706710351307E+03    0.31496E-05   -0.18251E-04 12235   0.215E-02    0.108E-02
RMM:   6    -0.706710353235E+03   -0.19284E-05   -0.36518E-05  8506   0.100E-02
  32 F= -.70671035E+03 E0= -.70670708E+03  d E =-.776684E-03
       N       E                     dE             d eps       ncg     rms          rms(c)
DAV:   1    -0.706710354236E+03   -0.29292E-05   -0.42427E-05  8392   0.123E-02    0.327E-03
RMM:   2    -0.706710354855E+03   -0.61885E-06   -0.83319E-06  5830   0.709E-03
  33 F= -.70671035E+03 E0= -.70670708E+03  d E =-.778303E-03
       N       E                     dE             d eps       ncg     rms          rms(c)
DAV:   1    -0.706709055013E+03    0.12992E-02   -0.46584E-01 10390   0.961E-01    0.113E-01
RMM:   2    -0.706710360390E+03   -0.13054E-02   -0.13849E-02 12297   0.239E-01    0.360E-02
RMM:   3    -0.706710708242E+03   -0.34785E-03   -0.37351E-03 14945   0.100E-01    0.349E-02
RMM:   4    -0.706710722588E+03   -0.14346E-04   -0.36370E-04 13705   0.317E-02    0.171E-02
RMM:   5    -0.706710722834E+03   -0.24634E-06   -0.89645E-05 10469   0.155E-02
  34 F= -.70671072E+03 E0= -.70670745E+03  d E =-.367979E-03
       N       E                     dE             d eps       ncg     rms          rms(c)
DAV:   1    -0.706710722918E+03   -0.33029E-06   -0.10031E-03 11864   0.456E-02    0.923E-03
RMM:   2    -0.706710726647E+03   -0.37283E-05   -0.42836E-05  7181   0.137E-02
  35 F= -.70671073E+03 E0= -.70670745E+03  d E =-.371792E-03
       N       E                     dE             d eps       ncg     rms          rms(c)
DAV:   1    -0.706710105979E+03    0.61694E-03   -0.22192E-01 10622   0.682E-01    0.770E-02
RMM:   2    -0.706710765669E+03   -0.65969E-03   -0.69361E-03 12634   0.171E-01    0.244E-02
RMM:   3    -0.706710928897E+03   -0.16323E-03   -0.17322E-03 14879   0.696E-02    0.233E-02
RMM:   4    -0.706710937419E+03   -0.85214E-05   -0.18609E-04 12381   0.230E-02    0.120E-02
RMM:   5    -0.706710937483E+03   -0.64509E-07   -0.48316E-05  9325   0.128E-02
  36 F= -.70671094E+03 E0= -.70670767E+03  d E =-.210836E-03
       N       E                     dE             d eps       ncg     rms          rms(c)
DAV:   1    -0.706710937420E+03   -0.12151E-08   -0.97941E-04 11104   0.459E-02    0.739E-03
RMM:   2    -0.706710941149E+03   -0.37295E-05   -0.39878E-05  7132   0.132E-02
  37 F= -.70671094E+03 E0= -.70670767E+03  d E =-.214503E-03
       N       E                     dE             d eps       ncg     rms          rms(c)
DAV:   1    -0.706710939041E+03   -0.16214E-05   -0.24837E-04 10784   0.247E-02    0.341E-03
RMM:   2    -0.706710940262E+03   -0.12209E-05   -0.14480E-05  5592   0.917E-03
  38 F= -.70671094E+03 E0= -.70670767E+03  d E =-.213615E-03
       N       E                     dE             d eps       ncg     rms          rms(c)
DAV:   1    -0.706710940394E+03   -0.13526E-05   -0.12515E-04  8984   0.200E-02    0.200E-03
RMM:   2    -0.706710941926E+03   -0.15318E-05   -0.16314E-05  5612   0.897E-03
  39 F= -.70671094E+03 E0= -.70670767E+03  d E =-.215279E-03
       N       E                     dE             d eps       ncg     rms          rms(c)
DAV:   1    -0.706710424079E+03    0.51631E-03   -0.17466E-01 10543   0.598E-01    0.701E-02
RMM:   2    -0.706710923790E+03   -0.49971E-03   -0.52629E-03 12405   0.149E-01    0.225E-02
RMM:   3    -0.706711057261E+03   -0.13347E-03   -0.14151E-03 14887   0.623E-02    0.206E-02
RMM:   4    -0.706711063419E+03   -0.61580E-05   -0.14333E-04 12184   0.202E-02    0.967E-03
RMM:   5    -0.706711064014E+03   -0.59483E-06   -0.37682E-05  8731   0.115E-02
  40 F= -.70671106E+03 E0= -.70670779E+03  d E =-.122088E-03
       N       E                     dE             d eps       ncg     rms          rms(c)
DAV:   1    -0.706711062966E+03    0.45286E-06   -0.73476E-05  8912   0.133E-02    0.185E-03
RMM:   2    -0.706711063307E+03   -0.34118E-06   -0.38104E-06  5830   0.488E-03
  41 F= -.70671106E+03 E0= -.70670779E+03  d E =-.121382E-03
       N       E                     dE             d eps       ncg     rms          rms(c)
DAV:   1    -0.706711063930E+03   -0.96354E-06   -0.49999E-05  9152   0.114E-02    0.178E-03
RMM:   2    -0.706711064368E+03   -0.43811E-06   -0.47320E-06  5508   0.490E-03
  42 F= -.70671106E+03 E0= -.70670779E+03  d E =-.122442E-03
       N       E                     dE             d eps       ncg     rms          rms(c)
DAV:   1    -0.706711063248E+03    0.68190E-06   -0.83074E-06  6632   0.805E-03    0.972E-04
RMM:   2    -0.706711063497E+03   -0.24866E-06   -0.27561E-06  5175   0.367E-03
  43 F= -.70671106E+03 E0= -.70670779E+03  d E =-.121571E-03
       N       E                     dE             d eps       ncg     rms          rms(c)
DAV:   1    -0.706711064318E+03   -0.10698E-05   -0.28993E-06  5780   0.403E-03    0.100E-03
RMM:   2    -0.706711064401E+03   -0.83535E-07   -0.11090E-06  5125   0.247E-03
  44 F= -.70671106E+03 E0= -.70670779E+03  d E =-.122476E-03
       N       E                     dE             d eps       ncg     rms          rms(c)
DAV:   1    -0.706711063684E+03    0.63368E-06   -0.56648E-07  5440   0.332E-03    0.479E-04
RMM:   2    -0.706711063700E+03   -0.15825E-07   -0.22769E-07  2582   0.116E-03
  45 F= -.70671106E+03 E0= -.70670779E+03  d E =-.121774E-03
       N       E                     dE             d eps       ncg     rms          rms(c)
DAV:   1    -0.706711064412E+03   -0.72853E-06   -0.22176E-07  5390   0.131E-03    0.383E-04
RMM:   2    -0.706711064413E+03   -0.93132E-09   -0.50388E-08  1737   0.736E-04
  46 F= -.70671106E+03 E0= -.70670779E+03  d E =-.122488E-03
       N       E                     dE             d eps       ncg     rms          rms(c)
DAV:   1    -0.706710822827E+03    0.24159E-03   -0.80887E-02 10582   0.414E-01    0.484E-02
RMM:   2    -0.706711059278E+03   -0.23645E-03   -0.24841E-03 12557   0.104E-01    0.160E-02
RMM:   3    -0.706711121678E+03   -0.62400E-04   -0.65995E-04 14607   0.433E-02    0.145E-02
RMM:   4    -0.706711125302E+03   -0.36242E-05   -0.72092E-05 10274   0.151E-02
  47 F= -.70671113E+03 E0= -.70670786E+03  d E =-.608890E-04
       N       E                     dE             d eps       ncg     rms          rms(c)
DAV:   1    -0.706711089618E+03    0.32061E-04   -0.64032E-03 10734   0.120E-01    0.119E-02
RMM:   2    -0.706711112826E+03   -0.23208E-04   -0.24931E-04 12243   0.353E-02    0.447E-03
RMM:   3    -0.706711117377E+03   -0.45508E-05   -0.57298E-05  8181   0.145E-02
  48 F= -.70671112E+03 E0= -.70670785E+03  d E =-.529632E-04
       N       E                     dE             d eps       ncg     rms          rms(c)
DAV:   1    -0.706711108897E+03    0.39290E-05   -0.34150E-03 10802   0.858E-02    0.119E-02
RMM:   2    -0.706711121061E+03   -0.12164E-04   -0.12887E-04 11661   0.246E-02    0.358E-03
RMM:   3    -0.706711123238E+03   -0.21770E-05   -0.31268E-05  6911   0.107E-02
  49 F= -.70671112E+03 E0= -.70670785E+03  d E =-.588248E-04
       N       E                     dE             d eps       ncg     rms          rms(c)
DAV:   1    -0.706711116609E+03    0.44518E-05   -0.82794E-04 10246   0.430E-02    0.585E-03
RMM:   2    -0.706711119947E+03   -0.33376E-05   -0.36596E-05  7218   0.138E-02
  50 F= -.70671112E+03 E0= -.70670785E+03  d E =-.555336E-04
       N       E                     dE             d eps       ncg     rms          rms(c)
DAV:   1    -0.706711120409E+03   -0.37998E-05   -0.43648E-04 10333   0.329E-02    0.403E-03
RMM:   2    -0.706711122866E+03   -0.24563E-05   -0.27265E-05  7004   0.129E-02
  51 F= -.70671112E+03 E0= -.70670785E+03  d E =-.584521E-04
       N       E                     dE             d eps       ncg     rms          rms(c)
DAV:   1    -0.706711120751E+03   -0.34148E-06   -0.95923E-05  9182   0.189E-02    0.185E-03
RMM:   2    -0.706711121901E+03   -0.11504E-05   -0.12244E-05  5191   0.765E-03
  52 F= -.70671112E+03 E0= -.70670785E+03  d E =-.574877E-04
       N       E                     dE             d eps       ncg     rms          rms(c)
DAV:   1    -0.706711122290E+03   -0.15398E-05   -0.42761E-05  8590   0.138E-02    0.127E-03
RMM:   2    -0.706711122869E+03   -0.57823E-06   -0.59093E-06  5085   0.476E-03
  53 F= -.70671112E+03 E0= -.70670785E+03  d E =-.584553E-04
       N       E                     dE             d eps       ncg     rms          rms(c)
DAV:   1    -0.706711049319E+03    0.72972E-04   -0.29019E-02 10552   0.251E-01    0.338E-02
RMM:   2    -0.706711141964E+03   -0.92646E-04   -0.97483E-04 12766   0.652E-02    0.109E-02
RMM:   3    -0.706711163345E+03   -0.21381E-04   -0.24186E-04 13006   0.263E-02    0.870E-03
RMM:   4    -0.706711164673E+03   -0.13287E-05   -0.30302E-05  6972   0.118E-02
  54 F= -.70671116E+03 E0= -.70670790E+03  d E =-.418046E-04
       N       E                     dE             d eps       ncg     rms          rms(c)
DAV:   1    -0.706711150165E+03    0.13180E-04   -0.17275E-03 10488   0.620E-02    0.761E-03
RMM:   2    -0.706711157263E+03   -0.70978E-05   -0.73809E-05  9254   0.168E-02
  55 F= -.70671116E+03 E0= -.70670789E+03  d E =-.343940E-04
       N       E                     dE             d eps       ncg     rms          rms(c)
DAV:   1    -0.706711160518E+03   -0.10353E-04   -0.10994E-03 10326   0.480E-02    0.751E-03
RMM:   2    -0.706711163526E+03   -0.30074E-05   -0.32750E-05  6774   0.120E-02
  56 F= -.70671116E+03 E0= -.70670790E+03  d E =-.406569E-04
       N       E                     dE             d eps       ncg     rms          rms(c)
DAV:   1    -0.706711161613E+03   -0.10945E-05   -0.25537E-04 10312   0.243E-02    0.345E-03
RMM:   2    -0.706711162743E+03   -0.11302E-05   -0.12858E-05  5420   0.813E-03
  57 F= -.70671116E+03 E0= -.70670790E+03  d E =-.398741E-04
       N       E                     dE             d eps       ncg     rms          rms(c)
DAV:   1    -0.706711162941E+03   -0.13288E-05   -0.82614E-05  9686   0.166E-02    0.191E-03
RMM:   2    -0.706711163929E+03   -0.98715E-06   -0.10841E-05  5159   0.715E-03
  58 F= -.70671116E+03 E0= -.70670790E+03  d E =-.410599E-04
       N       E                     dE             d eps       ncg     rms          rms(c)
DAV:   1    -0.706711163555E+03   -0.61329E-06   -0.37295E-06  5470   0.937E-03    0.919E-04
RMM:   2    -0.706711163666E+03   -0.11137E-06   -0.14018E-06  4549   0.254E-03
  59 F= -.70671116E+03 E0= -.70670790E+03  d E =-.407974E-04
       N       E                     dE             d eps       ncg     rms          rms(c)
DAV:   1    -0.706711163832E+03   -0.27745E-06   -0.97198E-07  5228   0.321E-03    0.787E-04
RMM:   2    -0.706711163894E+03   -0.62013E-07   -0.79509E-07  4917   0.208E-03
  60 F= -.70671116E+03 E0= -.70670790E+03  d E =-.410255E-04
       N       E                     dE             d eps       ncg     rms          rms(c)
DAV:   1    -0.706711128788E+03    0.35044E-04   -0.14762E-02 10518   0.179E-01    0.211E-02
RMM:   2    -0.706711173637E+03   -0.44849E-04   -0.47499E-04 12546   0.457E-02    0.709E-03
RMM:   3    -0.706711184399E+03   -0.10762E-04   -0.12743E-04 12240   0.191E-02    0.686E-03
RMM:   4    -0.706711184949E+03   -0.54971E-06   -0.15852E-05  6375   0.899E-03
  61 F= -.70671118E+03 E0= -.70670792E+03  d E =-.210548E-04
