       N       E                     dE             d eps       ncg     rms          ort
DAV:   1    -0.743794772334E+03   -0.74379E+03   -0.14199E+04    88   0.709E+02
DAV:   2    -0.932323776977E+03   -0.18853E+03   -0.18744E+03    88   0.502E+02
DAV:   3    -0.944823462303E+03   -0.12500E+02   -0.12379E+02    88   0.153E+02
DAV:   4    -0.945330480722E+03   -0.50702E+00   -0.50666E+00    88   0.325E+01
DAV:   5    -0.884268645206E+03    0.61062E+02   -0.13807E+01    88   0.263E+01
SDA:   6     0.235885081061E+03    0.11202E+04   -0.13807E+01    88   0.729E+03 0.000E+00
CGA:   7     0.920870967143E+02   -0.14380E+03   -0.26064E+03    88   0.241E+03-0.339E+03
CGA:   8     0.672213745259E+02   -0.24866E+02   -0.25397E+02    88   0.137E+03 0.303E+02
CGA:   9     0.200892925728E+02   -0.47132E+02   -0.44898E+02    88   0.848E+02 0.150E+02
CGA:  10     0.606413427164E+00   -0.19483E+02   -0.19527E+02    88   0.426E+02 0.644E+01
CGA:  11    -0.102925431713E+02   -0.10899E+02   -0.10785E+02    88   0.118E+02 0.393E+01
CGA:  12    -0.134898839133E+02   -0.31973E+01   -0.31509E+01    88   0.454E+01 0.116E+01
CGA:  13    -0.147463688543E+02   -0.12565E+01   -0.12451E+01    88   0.161E+01 0.254E+00
CGA:  14    -0.152774329617E+02   -0.53106E+00   -0.52270E+00    88   0.727E+00 0.102E+00
CGA:  15    -0.155290946223E+02   -0.25166E+00   -0.24781E+00    88   0.371E+00 0.379E-01
CGA:  16    -0.156613901010E+02   -0.13230E+00   -0.13165E+00    88   0.165E+00 0.731E-02
CGA:  17    -0.157137607423E+02   -0.52371E-01   -0.51953E-01    88   0.739E-01 0.612E-02
CGA:  18    -0.157378195136E+02   -0.24059E-01   -0.23794E-01    88   0.342E-01 0.328E-02
CGA:  19    -0.157501945686E+02   -0.12375E-01   -0.12229E-01    88   0.188E-01 0.120E-02
CGA:  20    -0.157573239904E+02   -0.71294E-02   -0.70719E-02    88   0.107E-01 0.374E-03
CGA:  21    -0.157611856876E+02   -0.38617E-02   -0.38511E-02    88   0.565E-02 0.757E-04
CGA:  22    -0.157630855431E+02   -0.18999E-02   -0.18990E-02    88   0.257E-02 0.755E-05
CGA:  23    -0.157639743891E+02   -0.88885E-03   -0.88873E-03    88   0.124E-02 0.151E-05
CGA:  24    -0.157644161247E+02   -0.44174E-03   -0.44154E-03    88   0.661E-03 0.222E-05
CGA:  25    -0.157646541212E+02   -0.23800E-03   -0.23785E-03    88   0.365E-03 0.186E-05
CGA:  26    -0.157647845622E+02   -0.13044E-03   -0.13036E-03    88   0.195E-03 0.102E-05
CGA:  27    -0.157648509019E+02   -0.66340E-04   -0.66333E-04    88   0.982E-04 0.114E-06
CGA:  28    -0.157648839086E+02   -0.33007E-04   -0.33037E-04    88   0.475E-04-0.551E-06
CGA:  29    -0.157649010798E+02   -0.17171E-04   -0.17232E-04    88   0.258E-04-0.750E-06
CGA:  30    -0.157649103635E+02   -0.92837E-05   -0.93322E-05    88   0.146E-04-0.604E-06
   1 F= -.15764910E+02 E0= -.15764910E+02  d E =-.195092E-15  mag=     2.0000
