<?xml version="1.0" encoding="ISO-8859-1"?>
<modeling>
 <generator>
  <i name="program" type="string">vasp </i>
  <i name="version" type="string">6.4.2  </i>
  <i name="subversion" type="string">20Jul23 (build Nov 12 2023 22:16:35) complex                          parallel </i>
  <i name="platform" type="string">LinuxNV </i>
  <i name="date" type="string">2025 03 11 </i>
  <i name="time" type="string">21:49:15 </i>
 </generator>
 <incar>
  <i type="int" name="ISTART">     0</i>
  <i type="string" name="PREC">Normal</i>
  <i type="string" name="ALGO">Fast</i>
  <i type="int" name="ISPIN">     1</i>
  <i type="int" name="ICHARG">     2</i>
  <i type="int" name="IBRION">     2</i>
  <i name="EDIFF">      0.00001000</i>
  <i name="EDIFFG">     -0.00500000</i>
  <i type="int" name="NSW">   300</i>
  <i type="int" name="ISIF">     2</i>
  <i name="ENCUT">    450.00000000</i>
  <i type="string" name="LREAL">Auto</i>
  <i type="logical" name="LPLANE"> T  </i>
  <i type="int" name="ISMEAR">     0</i>
  <i name="SIGMA">      0.05000000</i>
  <i type="logical" name="LWAVE"> F  </i>
  <i type="logical" name="LCHARG"> F  </i>
 </incar>
 <primitive_cell>
  <structure name="primitive_cell" >
   <crystal>
    <varray name="basis" >
     <v>       0.00000000      12.28047342       0.00000000 </v>
     <v>       9.14270205       0.00000000       0.00000000 </v>
     <v>       0.00000000      -2.76826177     -11.30069772 </v>
    </varray>
    <i name="volume">   1268.80515525 </i>
    <varray name="rec_basis" >
     <v>       0.00000000       0.08143009      -0.01994742 </v>
     <v>       0.10937686      -0.00000000       0.00000000 </v>
     <v>       0.00000000       0.00000000      -0.08849011 </v>
    </varray>
   </crystal>
   <varray name="positions" >
    <v>       0.65883830       0.00000000       0.15736517 </v>
    <v>       0.65883830       0.00000000       0.65736517 </v>
    <v>       0.65883830       0.33333333       0.15736517 </v>
    <v>       0.65883830       0.33333333       0.65736517 </v>
    <v>       0.65883830       0.66666667       0.15736517 </v>
    <v>       0.65883830       0.66666667       0.65736517 </v>
    <v>       0.84116170       0.16666667       0.34263483 </v>
    <v>       0.84116170       0.16666667       0.84263483 </v>
    <v>       0.84116170       0.50000000       0.34263483 </v>
    <v>       0.84116170       0.50000000       0.84263483 </v>
    <v>       0.84116170       0.83333333       0.34263483 </v>
    <v>       0.84116170       0.83333333       0.84263483 </v>
    <v>       0.59047440       0.16666667       0.39739300 </v>
    <v>       0.59047440       0.16666667       0.89739300 </v>
    <v>       0.59047440       0.50000000       0.39739300 </v>
    <v>       0.59047440       0.50000000       0.89739300 </v>
    <v>       0.59047440       0.83333333       0.39739300 </v>
    <v>       0.59047440       0.83333333       0.89739300 </v>
    <v>       0.90952560       0.00000000       0.10260700 </v>
    <v>       0.90952560       0.00000000       0.60260700 </v>
    <v>       0.90952560       0.33333333       0.10260700 </v>
    <v>       0.90952560       0.33333333       0.60260700 </v>
    <v>       0.90952560       0.66666667       0.10260700 </v>
    <v>       0.90952560       0.66666667       0.60260700 </v>
    <v>       0.15883830       0.16666667       0.15736517 </v>
    <v>       0.15883830       0.16666667       0.65736517 </v>
    <v>       0.15883830       0.50000000       0.15736517 </v>
    <v>       0.15883830       0.50000000       0.65736517 </v>
    <v>       0.15883830       0.83333333       0.15736517 </v>
    <v>       0.15883830       0.83333333       0.65736517 </v>
    <v>       0.34116170       0.00000000       0.34263483 </v>
    <v>       0.34116170       0.00000000       0.84263483 </v>
    <v>       0.34116170       0.33333333       0.34263483 </v>
    <v>       0.34116170       0.33333333       0.84263483 </v>
    <v>       0.34116170       0.66666667       0.34263483 </v>
    <v>       0.34116170       0.66666667       0.84263483 </v>
    <v>       0.09047440       0.00000000       0.39739300 </v>
    <v>       0.09047440       0.00000000       0.89739300 </v>
    <v>       0.09047440       0.33333333       0.39739300 </v>
    <v>       0.09047440       0.33333333       0.89739300 </v>
    <v>       0.09047440       0.66666667       0.39739300 </v>
    <v>       0.09047440       0.66666667       0.89739300 </v>
    <v>       0.40952560       0.16666667       0.10260700 </v>
    <v>       0.40952560       0.16666667       0.60260700 </v>
    <v>       0.40952560       0.50000000       0.10260700 </v>
    <v>       0.40952560       0.50000000       0.60260700 </v>
    <v>       0.40952560       0.83333333       0.10260700 </v>
    <v>       0.40952560       0.83333333       0.60260700 </v>
    <v>       0.99646913       0.16666667       0.12833205 </v>
    <v>       0.99646913       0.16666667       0.62833205 </v>
    <v>       0.99646913       0.50000000       0.12833205 </v>
    <v>       0.99646913       0.50000000       0.62833205 </v>
    <v>       0.99646913       0.83333333       0.12833205 </v>
    <v>       0.99646913       0.83333333       0.62833205 </v>
    <v>       0.50353087       0.00000000       0.37166795 </v>
    <v>       0.50353087       0.00000000       0.87166795 </v>
    <v>       0.50353087       0.33333333       0.37166795 </v>
    <v>       0.50353087       0.33333333       0.87166795 </v>
    <v>       0.50353087       0.66666667       0.37166795 </v>
    <v>       0.50353087       0.66666667       0.87166795 </v>
    <v>       0.67337106       0.16666667       0.28161508 </v>
    <v>       0.67337106       0.16666667       0.78161508 </v>
    <v>       0.67337106       0.50000000       0.28161508 </v>
    <v>       0.67337106       0.50000000       0.78161508 </v>
    <v>       0.67337106       0.83333333       0.28161508 </v>
    <v>       0.67337106       0.83333333       0.78161508 </v>
    <v>       0.82662894       0.00000000       0.21838492 </v>
    <v>       0.82662894       0.00000000       0.71838492 </v>
    <v>       0.82662894       0.33333333       0.21838492 </v>
    <v>       0.82662894       0.33333333       0.71838492 </v>
    <v>       0.82662894       0.66666667       0.21838492 </v>
    <v>       0.82662894       0.66666667       0.71838492 </v>
    <v>       0.83549502       0.00000000       0.44542296 </v>
    <v>       0.83549502       0.00000000       0.94542296 </v>
    <v>       0.83549502       0.33333333       0.44542296 </v>
    <v>       0.83549502       0.33333333       0.94542296 </v>
    <v>       0.83549502       0.66666667       0.44542296 </v>
    <v>       0.83549502       0.66666667       0.94542296 </v>
    <v>       0.66450498       0.16666667       0.05457704 </v>
    <v>       0.66450498       0.16666667       0.55457704 </v>
    <v>       0.66450498       0.50000000       0.05457704 </v>
    <v>       0.66450498       0.50000000       0.55457704 </v>
    <v>       0.66450498       0.83333333       0.05457704 </v>
    <v>       0.66450498       0.83333333       0.55457704 </v>
    <v>       0.49646913       0.00000000       0.12833205 </v>
    <v>       0.49646913       0.00000000       0.62833205 </v>
    <v>       0.49646913       0.33333333       0.12833205 </v>
    <v>       0.49646913       0.33333333       0.62833205 </v>
    <v>       0.49646913       0.66666667       0.12833205 </v>
    <v>       0.49646913       0.66666667       0.62833205 </v>
    <v>       0.00353087       0.16666667       0.37166795 </v>
    <v>       0.00353087       0.16666667       0.87166795 </v>
    <v>       0.00353087       0.50000000       0.37166795 </v>
    <v>       0.00353087       0.50000000       0.87166795 </v>
    <v>       0.00353087       0.83333333       0.37166795 </v>
    <v>       0.00353087       0.83333333       0.87166795 </v>
    <v>       0.17337106       0.00000000       0.78161508 </v>
    <v>       0.17337106       0.33333333       0.28161508 </v>
    <v>       0.17337106       0.33333333       0.78161508 </v>
    <v>       0.17337106       0.66666667       0.28161508 </v>
    <v>       0.17337106       0.66666667       0.78161508 </v>
    <v>       0.32662894       0.16666667       0.21838492 </v>
    <v>       0.32662894       0.16666667       0.71838492 </v>
    <v>       0.32662894       0.50000000       0.21838492 </v>
    <v>       0.32662894       0.50000000       0.71838492 </v>
    <v>       0.32662894       0.83333333       0.21838492 </v>
    <v>       0.32662894       0.83333333       0.71838492 </v>
    <v>       0.33549502       0.16666667       0.44542296 </v>
    <v>       0.33549502       0.16666667       0.94542296 </v>
    <v>       0.33549502       0.50000000       0.44542296 </v>
    <v>       0.33549502       0.50000000       0.94542296 </v>
    <v>       0.33549502       0.83333333       0.44542296 </v>
    <v>       0.33549502       0.83333333       0.94542296 </v>
    <v>       0.16450498       0.00000000       0.05457704 </v>
    <v>       0.16450498       0.00000000       0.55457704 </v>
    <v>       0.16450498       0.33333333       0.05457704 </v>
    <v>       0.16450498       0.33333333       0.55457704 </v>
    <v>       0.16450498       0.66666667       0.05457704 </v>
    <v>       0.16450498       0.66666667       0.55457704 </v>
    <v>       0.17337106       0.00000000       0.28161508 </v>
   </varray>
  </structure>
  <varray name="primitive_index" >
   <v type="int" >        1 </v>
   <v type="int" >        2 </v>
   <v type="int" >        3 </v>
   <v type="int" >        4 </v>
   <v type="int" >        5 </v>
   <v type="int" >        6 </v>
   <v type="int" >        7 </v>
   <v type="int" >        8 </v>
   <v type="int" >        9 </v>
   <v type="int" >       10 </v>
   <v type="int" >       11 </v>
   <v type="int" >       12 </v>
   <v type="int" >       13 </v>
   <v type="int" >       14 </v>
   <v type="int" >       15 </v>
   <v type="int" >       16 </v>
   <v type="int" >       17 </v>
   <v type="int" >       18 </v>
   <v type="int" >       19 </v>
   <v type="int" >       20 </v>
   <v type="int" >       21 </v>
   <v type="int" >       22 </v>
   <v type="int" >       23 </v>
   <v type="int" >       24 </v>
   <v type="int" >       25 </v>
   <v type="int" >       26 </v>
   <v type="int" >       27 </v>
   <v type="int" >       28 </v>
   <v type="int" >       29 </v>
   <v type="int" >       30 </v>
   <v type="int" >       31 </v>
   <v type="int" >       32 </v>
   <v type="int" >       33 </v>
   <v type="int" >       34 </v>
   <v type="int" >       35 </v>
   <v type="int" >       36 </v>
   <v type="int" >       37 </v>
   <v type="int" >       38 </v>
   <v type="int" >       39 </v>
   <v type="int" >       40 </v>
   <v type="int" >       41 </v>
   <v type="int" >       42 </v>
   <v type="int" >       43 </v>
   <v type="int" >       44 </v>
   <v type="int" >       45 </v>
   <v type="int" >       46 </v>
   <v type="int" >       47 </v>
   <v type="int" >       48 </v>
   <v type="int" >       49 </v>
   <v type="int" >       50 </v>
   <v type="int" >       51 </v>
   <v type="int" >       52 </v>
   <v type="int" >       53 </v>
   <v type="int" >       54 </v>
   <v type="int" >       55 </v>
   <v type="int" >       56 </v>
   <v type="int" >       57 </v>
   <v type="int" >       58 </v>
   <v type="int" >       59 </v>
   <v type="int" >       60 </v>
   <v type="int" >       61 </v>
   <v type="int" >       62 </v>
   <v type="int" >       63 </v>
   <v type="int" >       64 </v>
   <v type="int" >       65 </v>
   <v type="int" >       66 </v>
   <v type="int" >       67 </v>
   <v type="int" >       68 </v>
   <v type="int" >       69 </v>
   <v type="int" >       70 </v>
   <v type="int" >       71 </v>
   <v type="int" >       72 </v>
   <v type="int" >       73 </v>
   <v type="int" >       74 </v>
   <v type="int" >       75 </v>
   <v type="int" >       76 </v>
   <v type="int" >       77 </v>
   <v type="int" >       78 </v>
   <v type="int" >       79 </v>
   <v type="int" >       80 </v>
   <v type="int" >       81 </v>
   <v type="int" >       82 </v>
   <v type="int" >       83 </v>
   <v type="int" >       84 </v>
   <v type="int" >       85 </v>
   <v type="int" >       86 </v>
   <v type="int" >       87 </v>
   <v type="int" >       88 </v>
   <v type="int" >       89 </v>
   <v type="int" >       90 </v>
   <v type="int" >       91 </v>
   <v type="int" >       92 </v>
   <v type="int" >       93 </v>
   <v type="int" >       94 </v>
   <v type="int" >       95 </v>
   <v type="int" >       96 </v>
   <v type="int" >       97 </v>
   <v type="int" >       98 </v>
   <v type="int" >       99 </v>
   <v type="int" >      100 </v>
   <v type="int" >      101 </v>
   <v type="int" >      102 </v>
   <v type="int" >      103 </v>
   <v type="int" >      104 </v>
   <v type="int" >      105 </v>
   <v type="int" >      106 </v>
   <v type="int" >      107 </v>
   <v type="int" >      108 </v>
   <v type="int" >      109 </v>
   <v type="int" >      110 </v>
   <v type="int" >      111 </v>
   <v type="int" >      112 </v>
   <v type="int" >      113 </v>
   <v type="int" >      114 </v>
   <v type="int" >      115 </v>
   <v type="int" >      116 </v>
   <v type="int" >      117 </v>
   <v type="int" >      118 </v>
   <v type="int" >      119 </v>
   <v type="int" >      120 </v>
  </varray>
 </primitive_cell>
 <kpoints>
  <generation param="Gamma">
   <v type="int" name="divisions">       2        2        2 </v>
   <v name="usershift">      0.00000000       0.00000000       0.00000000 </v>
   <v name="genvec1">      0.50000000       0.00000000       0.00000000 </v>
   <v name="genvec2">      0.00000000       0.50000000       0.00000000 </v>
   <v name="genvec3">      0.00000000       0.00000000       0.50000000 </v>
   <v name="shift">      0.00000000       0.00000000       0.00000000 </v>
  </generation>
  <varray name="kpointlist" >
   <v>       0.00000000       0.00000000       0.00000000 </v>
   <v>       0.50000000       0.00000000       0.00000000 </v>
   <v>       0.00000000       0.50000000       0.00000000 </v>
   <v>       0.50000000       0.50000000       0.00000000 </v>
   <v>       0.00000000       0.00000000       0.50000000 </v>
   <v>       0.50000000       0.00000000       0.50000000 </v>
   <v>       0.00000000       0.50000000       0.50000000 </v>
   <v>       0.50000000       0.50000000       0.50000000 </v>
  </varray>
  <varray name="weights" >
   <v>       0.12500000 </v>
   <v>       0.12500000 </v>
   <v>       0.12500000 </v>
   <v>       0.12500000 </v>
   <v>       0.12500000 </v>
   <v>       0.12500000 </v>
   <v>       0.12500000 </v>
   <v>       0.12500000 </v>
  </varray>
 </kpoints>
 <parameters>
  <separator name="general" >
   <i type="string" name="SYSTEM">unknown system</i>
   <i type="logical" name="LCOMPAT"> F  </i>
  </separator>
  <separator name="electronic" >
   <i type="string" name="PREC">normal</i>
   <i name="ENMAX">    450.00000000</i>
   <i name="ENAUG">    605.39200000</i>
   <i name="EDIFF">      0.00001000</i>
   <i type="int" name="IALGO">    68</i>
   <i type="int" name="IWAVPR">    11</i>
   <i type="int" name="NBANDS">   633</i>
   <i type="int" name="NBANDSLOW">    -1</i>
   <i type="int" name="NBANDSHIGH">    -1</i>
   <i name="NELECT">   1055.00000000</i>
   <i type="int" name="TURBO">     0</i>
   <i type="int" name="IRESTART">     0</i>
   <i type="int" name="NREBOOT">     0</i>
   <i type="int" name="NMIN">     0</i>
   <i name="EREF">      0.00000000</i>
   <separator name="electronic smearing" >
    <i type="int" name="ISMEAR">     0</i>
    <i name="SIGMA">      0.05000000</i>
    <i name="KSPACING">      0.50000000</i>
    <i type="logical" name="KGAMMA"> T  </i>
    <i type="logical" name="KBLOWUP"> T  </i>
   </separator>
   <separator name="electronic projectors" >
    <i type="logical" name="LREAL"> T  </i>
    <v name="ROPT">     -0.00050000     -0.00050000     -0.00050000</v>
    <i type="int" name="LMAXPAW">  -100</i>
    <i type="int" name="LMAXMIX">     2</i>
    <i type="logical" name="NLSPLINE"> F  </i>
   </separator>
   <separator name="electronic startup" >
    <i type="int" name="ISTART">     0</i>
    <i type="int" name="ICHARG">     2</i>
    <i type="int" name="INIWAV">     1</i>
   </separator>
   <separator name="electronic spin" >
    <i type="int" name="ISPIN">     1</i>
    <i type="logical" name="LNONCOLLINEAR"> F  </i>
    <v name="MAGMOM">      1.00000000      1.00000000      1.00000000      1.00000000      1.00000000      1.00000000      1.00000000      1.00000000      1.00000000      1.00000000      1.00000000      1.00000000      1.00000000      1.00000000      1.00000000      1.00000000      1.00000000      1.00000000      1.00000000      1.00000000
      1.00000000      1.00000000      1.00000000      1.00000000      1.00000000      1.00000000      1.00000000      1.00000000      1.00000000      1.00000000      1.00000000      1.00000000      1.00000000      1.00000000      1.00000000      1.00000000      1.00000000      1.00000000      1.00000000      1.00000000
      1.00000000      1.00000000      1.00000000      1.00000000      1.00000000      1.00000000      1.00000000      1.00000000      1.00000000      1.00000000      1.00000000      1.00000000      1.00000000      1.00000000      1.00000000      1.00000000      1.00000000      1.00000000      1.00000000      1.00000000
      1.00000000      1.00000000      1.00000000      1.00000000      1.00000000      1.00000000      1.00000000      1.00000000      1.00000000      1.00000000      1.00000000      1.00000000      1.00000000      1.00000000      1.00000000      1.00000000      1.00000000      1.00000000      1.00000000      1.00000000
      1.00000000      1.00000000      1.00000000      1.00000000      1.00000000      1.00000000      1.00000000      1.00000000      1.00000000      1.00000000      1.00000000      1.00000000      1.00000000      1.00000000      1.00000000      1.00000000      1.00000000      1.00000000      1.00000000      1.00000000
      1.00000000      1.00000000      1.00000000      1.00000000      1.00000000      1.00000000      1.00000000      1.00000000      1.00000000      1.00000000      1.00000000      1.00000000      1.00000000      1.00000000      1.00000000      1.00000000      1.00000000      1.00000000      1.00000000      1.00000000
</v>
    <i name="NUPDOWN">     -1.00000000</i>
    <i type="logical" name="LSORBIT"> F  </i>
    <v name="SAXIS">      0.00000000      0.00000000      1.00000000</v>
    <i type="logical" name="LSPIRAL"> F  </i>
    <v name="QSPIRAL">      0.00000000      0.00000000      0.00000000</v>
    <i type="logical" name="LZEROZ"> F  </i>
   </separator>
   <separator name="electronic exchange-correlation" >
    <i type="logical" name="LASPH"> F  </i>
    <i type="logical" name="LMETAGGA"> F  </i>
   </separator>
   <separator name="electronic convergence" >
    <i type="int" name="NELM">    60</i>
    <i type="int" name="NELMDL">    -5</i>
    <i type="int" name="NELMIN">     2</i>
    <i name="ENINI">    450.00000000</i>
    <separator name="electronic convergence detail" >
     <i type="logical" name="LDIAG"> T  </i>
     <i type="logical" name="LSUBROT"> F  </i>
     <i name="WEIMIN">      0.00100000</i>
     <i name="EBREAK">      0.00000000</i>
     <i name="DEPER">      0.30000000</i>
     <i type="int" name="NRMM">     4</i>
     <i name="TIME">      0.40000000</i>
    </separator>
   </separator>
   <separator name="electronic mixer" >
    <i name="AMIX">      0.40000000</i>
    <i name="BMIX">      1.00000000</i>
    <i name="AMIN">      0.10000000</i>
    <i name="AMIX_MAG">      1.60000000</i>
    <i name="BMIX_MAG">      1.00000000</i>
    <separator name="electronic mixer details" >
     <i type="int" name="IMIX">     4</i>
     <i type="logical" name="MIXFIRST"> F  </i>
     <i type="int" name="MAXMIX">   -45</i>
     <i name="WC">    100.00000000</i>
     <i type="int" name="INIMIX">     1</i>
     <i type="int" name="MIXPRE">     1</i>
     <i type="int" name="MREMOVE">     5</i>
    </separator>
   </separator>
   <separator name="electronic dipolcorrection" >
    <i type="logical" name="LDIPOL"> F  </i>
    <i type="logical" name="LMONO"> F  </i>
    <i type="int" name="IDIPOL">     0</i>
    <i name="EPSILON">      1.00000000</i>
    <v name="DIPOL">   -100.00000000   -100.00000000   -100.00000000</v>
    <i name="EFIELD">      0.00000000</i>
   </separator>
  </separator>
  <separator name="grids" >
   <i type="int" name="NGX">    64</i>
   <i type="int" name="NGY">    48</i>
   <i type="int" name="NGZ">    60</i>
   <i type="int" name="NGXF">   128</i>
   <i type="int" name="NGYF">    96</i>
   <i type="int" name="NGZF">   120</i>
   <i type="logical" name="ADDGRID"> F  </i>
  </separator>
  <separator name="ionic" >
   <i type="int" name="NSW">   300</i>
   <i type="int" name="IBRION">     2</i>
   <i type="int" name="MDALGO">     0</i>
   <i type="int" name="ISIF">     2</i>
   <i name="PSTRESS">      0.00000000</i>
   <i name="EDIFFG">     -0.00500000</i>
   <i type="int" name="NFREE">     1</i>
   <i name="POTIM">      0.50000000</i>
   <i name="SMASS">     -3.00000000</i>
   <i name="SCALEE">      1.00000000</i>
  </separator>
  <separator name="ionic md" >
   <i name="TEBEG">      0.00010000</i>
   <i name="TEEND">      0.00010000</i>
   <i type="int" name="NBLOCK">     1</i>
   <i type="int" name="KBLOCK">   300</i>
   <i type="int" name="NPACO">   256</i>
   <i name="APACO">     10.00000000</i>
  </separator>
  <separator name="symmetry" >
   <i type="int" name="ISYM">     2</i>
   <i name="SYMPREC">      0.00001000</i>
  </separator>
  <separator name="dos" >
   <i type="int" name="LORBIT">     0</i>
   <v name="RWIGS">     -1.00000000     -1.00000000     -1.00000000</v>
   <i type="int" name="NEDOS">   301</i>
   <i name="EMIN">     10.00000000</i>
   <i name="EMAX">    -10.00000000</i>
   <i name="EFERMI">      0.00000000</i>
  </separator>
  <separator name="writing" >
   <i type="int" name="NWRITE">     2</i>
   <i type="logical" name="LWAVE"> F  </i>
   <i type="logical" name="LDOWNSAMPLE"> F  </i>
   <i type="logical" name="LCHARG"> F  </i>
   <i type="logical" name="LPARD"> F  </i>
   <i type="logical" name="LVTOT"> F  </i>
   <i type="logical" name="LVHAR"> F  </i>
   <i type="logical" name="LELF"> F  </i>
   <i type="logical" name="LOPTICS"> F  </i>
   <v name="STM">      0.00000000      0.00000000      0.00000000      0.00000000      0.00000000      0.00000000      0.00000000</v>
  </separator>
  <separator name="performance" >
   <i type="int" name="NPAR">     1</i>
   <i type="int" name="NSIM">     4</i>
   <i type="int" name="NBLK">    -1</i>
   <i type="logical" name="LPLANE"> T  </i>
   <i type="logical" name="LSCALAPACK"> T  </i>
   <i type="logical" name="LSCAAWARE"> F  </i>
   <i type="logical" name="LSCALU"> F  </i>
   <i type="logical" name="LASYNC"> F  </i>
   <i type="logical" name="LORBITALREAL"> F  </i>
  </separator>
  <separator name="miscellaneous" >
   <i type="int" name="IDIOT">     3</i>
   <i type="int" name="PHON_NSTRUCT">    -1</i>
   <i type="logical" name="LMUSIC"> F  </i>
   <v name="POMASS">     69.72300000     16.00000000     30.97400000</v>
   <v name="DARWINR">      0.00000000      0.00000000      0.00000000</v>
   <v name="DARWINV">      1.00000000      1.00000000      1.00000000</v>
   <i type="logical" name="LCORR"> T  </i>
  </separator>
  <i type="logical" name="GGA_COMPAT"> T  </i>
  <i type="logical" name="LBERRY"> F  </i>
  <i type="int" name="ICORELEVEL">     0</i>
  <i type="logical" name="LDAU"> F  </i>
  <i type="int" name="I_CONSTRAINED_M">     0</i>
  <separator name="electronic exchange-correlation" >
   <i type="string" name="GGA">--</i>
   <i type="int" name="VOSKOWN">     0</i>
   <i type="logical" name="LHFCALC"> F  </i>
   <i type="string" name="PRECFOCK"></i>
   <i type="logical" name="LSYMGRAD"> F  </i>
   <i type="logical" name="LHFONE"> F  </i>
   <i type="logical" name="LRHFCALC"> F  </i>
   <i type="logical" name="LTHOMAS"> F  </i>
   <i type="logical" name="LMODELHF"> F  </i>
   <i type="logical" name="LFOCKACE"> F  </i>
   <i name="ENCUT4O">     -1.00000000</i>
   <i type="int" name="EXXOEP">     0</i>
   <i type="int" name="FOURORBIT">     0</i>
   <i name="AEXX">      0.00000000</i>
   <i name="HFALPHA">      0.00000000</i>
   <i name="MCALPHA">      0.00000000</i>
   <i name="ALDAX">      1.00000000</i>
   <i name="AGGAX">      1.00000000</i>
   <i name="ALDAC">      1.00000000</i>
   <i name="AGGAC">      1.00000000</i>
   <i type="int" name="NKREDX">     1</i>
   <i type="int" name="NKREDY">     1</i>
   <i type="int" name="NKREDZ">     1</i>
   <i type="logical" name="SHIFTRED"> F  </i>
   <i type="logical" name="ODDONLY"> F  </i>
   <i type="logical" name="EVENONLY"> F  </i>
   <i type="int" name="LMAXFOCK">     0</i>
   <i type="int" name="NMAXFOCKAE">     0</i>
   <i type="logical" name="LFOCKAEDFT"> F  </i>
   <i name="HFSCREEN">      0.00000000</i>
   <i name="HFSCREENC">      0.00000000</i>
   <i type="int" name="NBANDSGWLOW">     0</i>
  </separator>
  <separator name="vdW DFT" >
   <i type="logical" name="LUSE_VDW"> F  </i>
   <i type="int" name="IVDW_NL">     1</i>
   <i type="logical" name="LSPIN_VDW"> F  </i>
   <i name="Zab_VDW">     -0.84910000</i>
   <i name="PARAM1">      0.12340000</i>
   <i name="PARAM2">      1.00000000</i>
   <i name="PARAM3">      0.00000000</i>
  </separator>
  <separator name="model GW" >
   <i type="int" name="MODEL_GW">     0</i>
   <i name="MODEL_EPS0">      6.34402578</i>
   <i name="MODEL_ALPHA">      1.00000000</i>
  </separator>
  <separator name="linear response parameters" >
   <i type="logical" name="LEPSILON"> F  </i>
   <i type="logical" name="LRPA"> F  </i>
   <i type="logical" name="LNABLA"> F  </i>
   <i type="logical" name="LVEL"> F  </i>
   <i name="CSHIFT">      0.10000000</i>
   <i name="OMEGAMAX">     -1.00000000</i>
   <i name="DEG_THRESHOLD">      0.00200000</i>
   <i name="RTIME">     -0.10000000</i>
   <i name="WPLASMAI">      0.00000000</i>
   <v name="DFIELD">      0.00000000      0.00000000      0.00000000</v>
   <v name="WPLASMA">      0.00000000      0.00000000      0.00000000      0.00000000      0.00000000      0.00000000      0.00000000      0.00000000      0.00000000</v>
  </separator>
  <separator name="orbital magnetization" >
   <i type="logical" name="NUCIND"> F  </i>
   <v name="MAGPOS">      0.00000000      0.00000000      0.00000000</v>
   <i type="logical" name="LNICSALL"> T  </i>
   <i type="logical" name="ORBITALMAG"> F  </i>
   <i type="logical" name="LMAGBLOCH"> F  </i>
   <i type="logical" name="LCHIMAG"> F  </i>
   <i type="logical" name="LGAUGE"> T  </i>
   <i type="int" name="MAGATOM">     0</i>
   <v name="MAGDIPOL">      0.00000000      0.00000000      0.00000000</v>
   <v name="AVECCONST">      0.00000000      0.00000000      0.00000000</v>
  </separator>
  <separator name="response functions" >
   <i type="logical" name="LALL_IN_ONE"> F  </i>
   <i type="int" name="IALL_IN_ONE">    -1</i>
   <i type="int" name="NBANDS_WAVE">    -1</i>
   <i type="logical" name="LFINITE_TEMPERATURE"> F  </i>
   <i type="logical" name="LADDER"> F  </i>
   <i type="logical" name="LRPAFORCE"> F  </i>
   <i type="logical" name="LFXC"> F  </i>
   <i type="logical" name="LHARTREE"> T  </i>
   <i type="int" name="IBSE">     0</i>
   <v type="int" name="KPOINT">    -1     0     0     0</v>
   <i type="logical" name="LTCTC"> F  </i>
   <i type="logical" name="LTCTE"> F  </i>
   <i type="logical" name="LTETE"> F  </i>
   <i type="logical" name="LTRIPLET"> F  </i>
   <i type="logical" name="LFXCEPS"> F  </i>
   <i type="logical" name="LFXHEG"> F  </i>
   <i type="int" name="NATURALO">     2</i>
   <i type="logical" name="LHOLEGF"> F  </i>
   <i type="logical" name="L2ORDER"> F  </i>
   <i type="logical" name="LDMP1"> F  </i>
   <i type="logical" name="LMP2LT"> F  </i>
   <i type="logical" name="LSMP2LT"> F  </i>
   <i type="logical" name="LGWLF"> F  </i>
   <i name="ENCUTGW">     -1.60000002</i>
   <i name="ENCUTGWSOFT">     -1.60000002</i>
   <i name="ENCUTLF">     -1.00000000</i>
   <i type="logical" name="LESF_SPLINES"> F  </i>
   <i type="int" name="LMAXMP2">    -1</i>
   <i name="SCISSOR">      0.00000000</i>
   <i type="int" name="NOMEGA">     0</i>
   <i type="int" name="NOMEGAR">     0</i>
   <i type="int" name="NBANDSGW">    -1</i>
   <i type="int" name="NBANDSO">    -1</i>
   <i type="int" name="NBANDSV">    -1</i>
   <i type="int" name="NELMGW">     1</i>
   <i type="int" name="NELMHF">     1</i>
   <i type="int" name="DIM">     3</i>
   <i type="int" name="IESPILON">     4</i>
   <i type="int" name="ANTIRES">     0</i>
   <i name="OMEGAMAX">    -30.00000000</i>
   <i name="OMEGAMIN">    -30.00000000</i>
   <i name="OMEGATL">   -200.00000000</i>
   <i type="int" name="OMEGAGRID">     0</i>
   <i name="CSHIFT">     -0.10000000</i>
   <i type="logical" name="LSELFENERGY"> F  </i>
   <i type="logical" name="LSPECTRAL"> F  </i>
   <i type="logical" name="LSPECTRALGW"> F  </i>
   <i type="logical" name="LSINGLES"> F  </i>
   <i type="logical" name="LFERMIGW"> F  </i>
   <i type="logical" name="ODDONLYGW"> F  </i>
   <i type="logical" name="EVENONLYGW"> F  </i>
   <i type="int" name="NKREDLFX">     1</i>
   <i type="int" name="NKREDLFY">     1</i>
   <i type="int" name="NKREDLFZ">     1</i>
   <i type="int" name="MAXMEM">  2800</i>
   <i type="int" name="TELESCOPE">     0</i>
   <i type="int" name="NTAUPAR">    -1</i>
   <i type="int" name="NOMEGAPAR">    -1</i>
   <i name="DAMP_NEWTON">      0.80000001</i>
   <i name="LAMBDA">      1.00000000</i>
  </separator>
  <separator name="External order field" >
   <i name="OFIELD_KAPPA">      0.00000000</i>
   <v name="OFIELD_K">      0.00000000      0.00000000      0.00000000</v>
   <i name="OFIELD_Q6_NEAR">      0.00000000</i>
   <i name="OFIELD_Q6_FAR">      0.00000000</i>
   <i name="OFIELD_A">      0.00000000</i>
  </separator>
  <separator name="optional k-points parameters" >
   <i type="int" name="KPOINTS_OPT_MODE">     1</i>
   <i type="logical" name="LKPOINTS_OPT"> F  </i>
  </separator>
 </parameters>
 <atominfo>
  <atoms>     120 </atoms>
  <types>       3 </types>
  <array name="atoms" >
   <dimension dim="1">ion</dimension>
   <field type="string">element</field>
   <field type="int">atomtype</field>
   <set>
    <rc><c>Ga</c><c>   1</c></rc>
    <rc><c>Ga</c><c>   1</c></rc>
    <rc><c>Ga</c><c>   1</c></rc>
    <rc><c>Ga</c><c>   1</c></rc>
    <rc><c>Ga</c><c>   1</c></rc>
    <rc><c>Ga</c><c>   1</c></rc>
    <rc><c>Ga</c><c>   1</c></rc>
    <rc><c>Ga</c><c>   1</c></rc>
    <rc><c>Ga</c><c>   1</c></rc>
    <rc><c>Ga</c><c>   1</c></rc>
    <rc><c>Ga</c><c>   1</c></rc>
    <rc><c>Ga</c><c>   1</c></rc>
    <rc><c>Ga</c><c>   1</c></rc>
    <rc><c>Ga</c><c>   1</c></rc>
    <rc><c>Ga</c><c>   1</c></rc>
    <rc><c>Ga</c><c>   1</c></rc>
    <rc><c>Ga</c><c>   1</c></rc>
    <rc><c>Ga</c><c>   1</c></rc>
    <rc><c>Ga</c><c>   1</c></rc>
    <rc><c>Ga</c><c>   1</c></rc>
    <rc><c>Ga</c><c>   1</c></rc>
    <rc><c>Ga</c><c>   1</c></rc>
    <rc><c>Ga</c><c>   1</c></rc>
    <rc><c>Ga</c><c>   1</c></rc>
    <rc><c>Ga</c><c>   1</c></rc>
    <rc><c>Ga</c><c>   1</c></rc>
    <rc><c>Ga</c><c>   1</c></rc>
    <rc><c>Ga</c><c>   1</c></rc>
    <rc><c>Ga</c><c>   1</c></rc>
    <rc><c>Ga</c><c>   1</c></rc>
    <rc><c>Ga</c><c>   1</c></rc>
    <rc><c>Ga</c><c>   1</c></rc>
    <rc><c>Ga</c><c>   1</c></rc>
    <rc><c>Ga</c><c>   1</c></rc>
    <rc><c>Ga</c><c>   1</c></rc>
    <rc><c>Ga</c><c>   1</c></rc>
    <rc><c>Ga</c><c>   1</c></rc>
    <rc><c>Ga</c><c>   1</c></rc>
    <rc><c>Ga</c><c>   1</c></rc>
    <rc><c>Ga</c><c>   1</c></rc>
    <rc><c>Ga</c><c>   1</c></rc>
    <rc><c>Ga</c><c>   1</c></rc>
    <rc><c>Ga</c><c>   1</c></rc>
    <rc><c>Ga</c><c>   1</c></rc>
    <rc><c>Ga</c><c>   1</c></rc>
    <rc><c>Ga</c><c>   1</c></rc>
    <rc><c>Ga</c><c>   1</c></rc>
    <rc><c>Ga</c><c>   1</c></rc>
    <rc><c>O </c><c>   2</c></rc>
    <rc><c>O </c><c>   2</c></rc>
    <rc><c>O </c><c>   2</c></rc>
    <rc><c>O </c><c>   2</c></rc>
    <rc><c>O </c><c>   2</c></rc>
    <rc><c>O </c><c>   2</c></rc>
    <rc><c>O </c><c>   2</c></rc>
    <rc><c>O </c><c>   2</c></rc>
    <rc><c>O </c><c>   2</c></rc>
    <rc><c>O </c><c>   2</c></rc>
    <rc><c>O </c><c>   2</c></rc>
    <rc><c>O </c><c>   2</c></rc>
    <rc><c>O </c><c>   2</c></rc>
    <rc><c>O </c><c>   2</c></rc>
    <rc><c>O </c><c>   2</c></rc>
    <rc><c>O </c><c>   2</c></rc>
    <rc><c>O </c><c>   2</c></rc>
    <rc><c>O </c><c>   2</c></rc>
    <rc><c>O </c><c>   2</c></rc>
    <rc><c>O </c><c>   2</c></rc>
    <rc><c>O </c><c>   2</c></rc>
    <rc><c>O </c><c>   2</c></rc>
    <rc><c>O </c><c>   2</c></rc>
    <rc><c>O </c><c>   2</c></rc>
    <rc><c>O </c><c>   2</c></rc>
    <rc><c>O </c><c>   2</c></rc>
    <rc><c>O </c><c>   2</c></rc>
    <rc><c>O </c><c>   2</c></rc>
    <rc><c>O </c><c>   2</c></rc>
    <rc><c>O </c><c>   2</c></rc>
    <rc><c>O </c><c>   2</c></rc>
    <rc><c>O </c><c>   2</c></rc>
    <rc><c>O </c><c>   2</c></rc>
    <rc><c>O </c><c>   2</c></rc>
    <rc><c>O </c><c>   2</c></rc>
    <rc><c>O </c><c>   2</c></rc>
    <rc><c>O </c><c>   2</c></rc>
    <rc><c>O </c><c>   2</c></rc>
    <rc><c>O </c><c>   2</c></rc>
    <rc><c>O </c><c>   2</c></rc>
    <rc><c>O </c><c>   2</c></rc>
    <rc><c>O </c><c>   2</c></rc>
    <rc><c>O </c><c>   2</c></rc>
    <rc><c>O </c><c>   2</c></rc>
    <rc><c>O </c><c>   2</c></rc>
    <rc><c>O </c><c>   2</c></rc>
    <rc><c>O </c><c>   2</c></rc>
    <rc><c>O </c><c>   2</c></rc>
    <rc><c>O </c><c>   2</c></rc>
    <rc><c>O </c><c>   2</c></rc>
    <rc><c>O </c><c>   2</c></rc>
    <rc><c>O </c><c>   2</c></rc>
    <rc><c>O </c><c>   2</c></rc>
    <rc><c>O </c><c>   2</c></rc>
    <rc><c>O </c><c>   2</c></rc>
    <rc><c>O </c><c>   2</c></rc>
    <rc><c>O </c><c>   2</c></rc>
    <rc><c>O </c><c>   2</c></rc>
    <rc><c>O </c><c>   2</c></rc>
    <rc><c>O </c><c>   2</c></rc>
    <rc><c>O </c><c>   2</c></rc>
    <rc><c>O </c><c>   2</c></rc>
    <rc><c>O </c><c>   2</c></rc>
    <rc><c>O </c><c>   2</c></rc>
    <rc><c>O </c><c>   2</c></rc>
    <rc><c>O </c><c>   2</c></rc>
    <rc><c>O </c><c>   2</c></rc>
    <rc><c>O </c><c>   2</c></rc>
    <rc><c>O </c><c>   2</c></rc>
    <rc><c>O </c><c>   2</c></rc>
    <rc><c>O </c><c>   2</c></rc>
    <rc><c>P </c><c>   3</c></rc>
   </set>
  </array>
  <array name="atomtypes" >
   <dimension dim="1">type</dimension>
   <field type="int">atomspertype</field>
   <field type="string">element</field>
   <field>mass</field>
   <field>valence</field>
   <field type="string">pseudopotential</field>
   <set>
    <rc><c>  48</c><c>Ga</c><c>     69.72300000</c><c>     13.00000000</c><c>  PAW_PBE Ga_d 06Jul2010                </c></rc>
    <rc><c>  71</c><c>O </c><c>     16.00000000</c><c>      6.00000000</c><c>   PAW_PBE O 08Apr2002                  </c></rc>
    <rc><c>   1</c><c>P </c><c>     30.97400000</c><c>      5.00000000</c><c>  PAW_PBE P 06Sep2000                   </c></rc>
   </set>
  </array>
 </atominfo>
 <structure name="initialpos" >
  <crystal>
   <varray name="basis" >
    <v>       0.00000000      12.28047342       0.00000000 </v>
    <v>       9.14270205       0.00000000       0.00000000 </v>
    <v>       0.00000000      -2.76826177     -11.30069772 </v>
   </varray>
   <i name="volume">   1268.80515525 </i>
   <varray name="rec_basis" >
    <v>       0.00000000       0.08143009      -0.01994742 </v>
    <v>       0.10937686      -0.00000000       0.00000000 </v>
    <v>       0.00000000       0.00000000      -0.08849011 </v>
   </varray>
  </crystal>
  <varray name="positions" >
   <v>       0.65883830       0.00000000       0.15736517 </v>
   <v>       0.65883830       0.00000000       0.65736517 </v>
   <v>       0.65883830       0.33333333       0.15736517 </v>
   <v>       0.65883830       0.33333333       0.65736517 </v>
   <v>       0.65883830       0.66666667       0.15736517 </v>
   <v>       0.65883830       0.66666667       0.65736517 </v>
   <v>       0.84116170       0.16666667       0.34263483 </v>
   <v>       0.84116170       0.16666667       0.84263483 </v>
   <v>       0.84116170       0.50000000       0.34263483 </v>
   <v>       0.84116170       0.50000000       0.84263483 </v>
   <v>       0.84116170       0.83333333       0.34263483 </v>
   <v>       0.84116170       0.83333333       0.84263483 </v>
   <v>       0.59047440       0.16666667       0.39739300 </v>
   <v>       0.59047440       0.16666667       0.89739300 </v>
   <v>       0.59047440       0.50000000       0.39739300 </v>
   <v>       0.59047440       0.50000000       0.89739300 </v>
   <v>       0.59047440       0.83333333       0.39739300 </v>
   <v>       0.59047440       0.83333333       0.89739300 </v>
   <v>       0.90952560       0.00000000       0.10260700 </v>
   <v>       0.90952560       0.00000000       0.60260700 </v>
   <v>       0.90952560       0.33333333       0.10260700 </v>
   <v>       0.90952560       0.33333333       0.60260700 </v>
   <v>       0.90952560       0.66666667       0.10260700 </v>
   <v>       0.90952560       0.66666667       0.60260700 </v>
   <v>       0.15883830       0.16666667       0.15736517 </v>
   <v>       0.15883830       0.16666667       0.65736517 </v>
   <v>       0.15883830       0.50000000       0.15736517 </v>
   <v>       0.15883830       0.50000000       0.65736517 </v>
   <v>       0.15883830       0.83333333       0.15736517 </v>
   <v>       0.15883830       0.83333333       0.65736517 </v>
   <v>       0.34116170       0.00000000       0.34263483 </v>
   <v>       0.34116170       0.00000000       0.84263483 </v>
   <v>       0.34116170       0.33333333       0.34263483 </v>
   <v>       0.34116170       0.33333333       0.84263483 </v>
   <v>       0.34116170       0.66666667       0.34263483 </v>
   <v>       0.34116170       0.66666667       0.84263483 </v>
   <v>       0.09047440       0.00000000       0.39739300 </v>
   <v>       0.09047440       0.00000000       0.89739300 </v>
   <v>       0.09047440       0.33333333       0.39739300 </v>
   <v>       0.09047440       0.33333333       0.89739300 </v>
   <v>       0.09047440       0.66666667       0.39739300 </v>
   <v>       0.09047440       0.66666667       0.89739300 </v>
   <v>       0.40952560       0.16666667       0.10260700 </v>
   <v>       0.40952560       0.16666667       0.60260700 </v>
   <v>       0.40952560       0.50000000       0.10260700 </v>
   <v>       0.40952560       0.50000000       0.60260700 </v>
   <v>       0.40952560       0.83333333       0.10260700 </v>
   <v>       0.40952560       0.83333333       0.60260700 </v>
   <v>       0.99646913       0.16666667       0.12833205 </v>
   <v>       0.99646913       0.16666667       0.62833205 </v>
   <v>       0.99646913       0.50000000       0.12833205 </v>
   <v>       0.99646913       0.50000000       0.62833205 </v>
   <v>       0.99646913       0.83333333       0.12833205 </v>
   <v>       0.99646913       0.83333333       0.62833205 </v>
   <v>       0.50353087       0.00000000       0.37166795 </v>
   <v>       0.50353087       0.00000000       0.87166795 </v>
   <v>       0.50353087       0.33333333       0.37166795 </v>
   <v>       0.50353087       0.33333333       0.87166795 </v>
   <v>       0.50353087       0.66666667       0.37166795 </v>
   <v>       0.50353087       0.66666667       0.87166795 </v>
   <v>       0.67337106       0.16666667       0.28161508 </v>
   <v>       0.67337106       0.16666667       0.78161508 </v>
   <v>       0.67337106       0.50000000       0.28161508 </v>
   <v>       0.67337106       0.50000000       0.78161508 </v>
   <v>       0.67337106       0.83333333       0.28161508 </v>
   <v>       0.67337106       0.83333333       0.78161508 </v>
   <v>       0.82662894       0.00000000       0.21838492 </v>
   <v>       0.82662894       0.00000000       0.71838492 </v>
   <v>       0.82662894       0.33333333       0.21838492 </v>
   <v>       0.82662894       0.33333333       0.71838492 </v>
   <v>       0.82662894       0.66666667       0.21838492 </v>
   <v>       0.82662894       0.66666667       0.71838492 </v>
   <v>       0.83549502       0.00000000       0.44542296 </v>
   <v>       0.83549502       0.00000000       0.94542296 </v>
   <v>       0.83549502       0.33333333       0.44542296 </v>
   <v>       0.83549502       0.33333333       0.94542296 </v>
   <v>       0.83549502       0.66666667       0.44542296 </v>
   <v>       0.83549502       0.66666667       0.94542296 </v>
   <v>       0.66450498       0.16666667       0.05457704 </v>
   <v>       0.66450498       0.16666667       0.55457704 </v>
   <v>       0.66450498       0.50000000       0.05457704 </v>
   <v>       0.66450498       0.50000000       0.55457704 </v>
   <v>       0.66450498       0.83333333       0.05457704 </v>
   <v>       0.66450498       0.83333333       0.55457704 </v>
   <v>       0.49646913       0.00000000       0.12833205 </v>
   <v>       0.49646913       0.00000000       0.62833205 </v>
   <v>       0.49646913       0.33333333       0.12833205 </v>
   <v>       0.49646913       0.33333333       0.62833205 </v>
   <v>       0.49646913       0.66666667       0.12833205 </v>
   <v>       0.49646913       0.66666667       0.62833205 </v>
   <v>       0.00353087       0.16666667       0.37166795 </v>
   <v>       0.00353087       0.16666667       0.87166795 </v>
   <v>       0.00353087       0.50000000       0.37166795 </v>
   <v>       0.00353087       0.50000000       0.87166795 </v>
   <v>       0.00353087       0.83333333       0.37166795 </v>
   <v>       0.00353087       0.83333333       0.87166795 </v>
   <v>       0.17337106       0.00000000       0.78161508 </v>
   <v>       0.17337106       0.33333333       0.28161508 </v>
   <v>       0.17337106       0.33333333       0.78161508 </v>
   <v>       0.17337106       0.66666667       0.28161508 </v>
   <v>       0.17337106       0.66666667       0.78161508 </v>
   <v>       0.32662894       0.16666667       0.21838492 </v>
   <v>       0.32662894       0.16666667       0.71838492 </v>
   <v>       0.32662894       0.50000000       0.21838492 </v>
   <v>       0.32662894       0.50000000       0.71838492 </v>
   <v>       0.32662894       0.83333333       0.21838492 </v>
   <v>       0.32662894       0.83333333       0.71838492 </v>
   <v>       0.33549502       0.16666667       0.44542296 </v>
   <v>       0.33549502       0.16666667       0.94542296 </v>
   <v>       0.33549502       0.50000000       0.44542296 </v>
   <v>       0.33549502       0.50000000       0.94542296 </v>
   <v>       0.33549502       0.83333333       0.44542296 </v>
   <v>       0.33549502       0.83333333       0.94542296 </v>
   <v>       0.16450498       0.00000000       0.05457704 </v>
   <v>       0.16450498       0.00000000       0.55457704 </v>
   <v>       0.16450498       0.33333333       0.05457704 </v>
   <v>       0.16450498       0.33333333       0.55457704 </v>
   <v>       0.16450498       0.66666667       0.05457704 </v>
   <v>       0.16450498       0.66666667       0.55457704 </v>
   <v>       0.17337106       0.00000000       0.28161508 </v>
  </varray>
 </structure>
 <calculation>
  <scstep>
   <time name="dav">    1.82    1.83</time>
   <time name="total">    1.95    1.96</time>
   <energy>
    <i name="alphaZ">   5529.70323211 </i>
    <i name="ewald"> -88613.97284171 </i>
    <i name="hartreedc"> -33357.61279048 </i>
    <i name="XCdc">   4126.66573044 </i>
    <i name="pawpsdc"> 101696.24768859 </i>
    <i name="pawaedc">-117826.33756962 </i>
    <i name="eentropy">     -0.01794049 </i>
    <i name="bandstr">  16361.40518560 </i>
    <i name="atom"> 134015.81877255 </i>
    <i name="e_fr_energy">  21931.89946699 </i>
    <i name="e_wo_entrp">  21931.91740748 </i>
    <i name="e_0_energy">  21931.90843723 </i>
   </energy>
  </scstep>
  <scstep>
   <time name="dav">    2.19    2.19</time>
   <time name="total">    2.19    2.19</time>
   <energy>
    <i name="e_fr_energy">   4855.24327958 </i>
    <i name="e_wo_entrp">   4855.26325918 </i>
    <i name="e_0_energy">   4855.25326938 </i>
   </energy>
  </scstep>
  <scstep>
   <time name="dav">    2.11    2.11</time>
   <time name="total">    2.11    2.11</time>
   <energy>
    <i name="e_fr_energy">   -144.34227603 </i>
    <i name="e_wo_entrp">   -144.32982462 </i>
    <i name="e_0_energy">   -144.33605033 </i>
   </energy>
  </scstep>
  <scstep>
   <time name="dav">    2.04    2.04</time>
   <time name="total">    2.05    2.05</time>
   <energy>
    <i name="e_fr_energy">   -770.16117110 </i>
    <i name="e_wo_entrp">   -770.14052964 </i>
    <i name="e_0_energy">   -770.15085037 </i>
   </energy>
  </scstep>
  <scstep>
   <time name="dav">    2.31    2.31</time>
   <time name="total">    2.58    2.59</time>
   <energy>
    <i name="e_fr_energy">   -813.51358474 </i>
    <i name="e_wo_entrp">   -813.49244591 </i>
    <i name="e_0_energy">   -813.50301532 </i>
   </energy>
  </scstep>
  <scstep>
   <time name="diag">    0.24    0.24</time>
   <time name="diis">    2.47    2.47</time>
   <time name="orth">    0.03    0.03</time>
   <time name="total">    3.13    3.13</time>
   <energy>
    <i name="e_fr_energy">   -702.02034038 </i>
    <i name="e_wo_entrp">   -701.99874429 </i>
    <i name="e_0_energy">   -702.00954234 </i>
   </energy>
  </scstep>
  <scstep>
   <time name="diag">    0.24    0.24</time>
   <time name="diis">    2.64    2.64</time>
   <time name="orth">    0.03    0.03</time>
   <time name="total">    3.30    3.30</time>
   <energy>
    <i name="e_fr_energy">   -705.57636566 </i>
    <i name="e_wo_entrp">   -705.56235457 </i>
    <i name="e_0_energy">   -705.56936011 </i>
   </energy>
  </scstep>
  <scstep>
   <time name="diag">    0.24    0.24</time>
   <time name="diis">    2.49    2.49</time>
   <time name="orth">    0.03    0.03</time>
   <time name="total">    3.15    3.15</time>
   <energy>
    <i name="e_fr_energy">   -705.20025154 </i>
    <i name="e_wo_entrp">   -705.17972818 </i>
    <i name="e_0_energy">   -705.18998986 </i>
   </energy>
  </scstep>
  <scstep>
   <time name="diag">    0.24    0.24</time>
   <time name="diis">    2.92    2.92</time>
   <time name="orth">    0.03    0.03</time>
   <time name="total">    3.59    3.59</time>
   <energy>
    <i name="e_fr_energy">   -705.18773835 </i>
    <i name="e_wo_entrp">   -705.16416411 </i>
    <i name="e_0_energy">   -705.17595123 </i>
   </energy>
  </scstep>
  <scstep>
   <time name="diag">    0.24    0.24</time>
   <time name="diis">    2.55    2.55</time>
   <time name="orth">    0.03    0.03</time>
   <time name="total">    3.22    3.22</time>
   <energy>
    <i name="e_fr_energy">   -705.01109873 </i>
    <i name="e_wo_entrp">   -704.99243893 </i>
    <i name="e_0_energy">   -705.00176883 </i>
   </energy>
  </scstep>
  <scstep>
   <time name="diag">    0.24    0.24</time>
   <time name="diis">    2.99    2.99</time>
   <time name="orth">    0.03    0.03</time>
   <time name="total">    3.66    3.66</time>
   <energy>
    <i name="e_fr_energy">   -705.02557759 </i>
    <i name="e_wo_entrp">   -704.99235396 </i>
    <i name="e_0_energy">   -705.00896578 </i>
   </energy>
  </scstep>
  <scstep>
   <time name="diag">    0.24    0.24</time>
   <time name="diis">    2.56    2.56</time>
   <time name="orth">    0.03    0.03</time>
   <time name="total">    3.22    3.23</time>
   <energy>
    <i name="e_fr_energy">   -705.02432135 </i>
    <i name="e_wo_entrp">   -704.99095401 </i>
    <i name="e_0_energy">   -705.00763768 </i>
   </energy>
  </scstep>
  <scstep>
   <time name="diag">    0.24    0.24</time>
   <time name="diis">    3.03    3.02</time>
   <time name="orth">    0.03    0.03</time>
   <time name="total">    3.70    3.70</time>
   <energy>
    <i name="e_fr_energy">   -705.02635801 </i>
    <i name="e_wo_entrp">   -704.99353408 </i>
    <i name="e_0_energy">   -705.00994604 </i>
   </energy>
  </scstep>
  <scstep>
   <time name="diag">    0.24    0.24</time>
   <time name="diis">    2.58    2.58</time>
   <time name="orth">    0.03    0.03</time>
   <time name="total">    3.25    3.25</time>
   <energy>
    <i name="e_fr_energy">   -705.02636166 </i>
    <i name="e_wo_entrp">   -704.99335982 </i>
    <i name="e_0_energy">   -705.00986074 </i>
   </energy>
  </scstep>
  <scstep>
   <time name="diag">    0.24    0.24</time>
   <time name="diis">    2.71    2.71</time>
   <time name="orth">    0.03    0.03</time>
   <time name="total">    3.39    3.39</time>
   <energy>
    <i name="e_fr_energy">   -705.02667108 </i>
    <i name="e_wo_entrp">   -704.99367153 </i>
    <i name="e_0_energy">   -705.01017131 </i>
   </energy>
  </scstep>
  <scstep>
   <time name="diag">    0.24    0.24</time>
   <time name="diis">    2.35    2.35</time>
   <time name="orth">    0.03    0.03</time>
   <time name="total">    3.02    3.02</time>
   <energy>
    <i name="e_fr_energy">   -705.02675987 </i>
    <i name="e_wo_entrp">   -704.99380581 </i>
    <i name="e_0_energy">   -705.01028284 </i>
   </energy>
  </scstep>
  <scstep>
   <time name="diag">    0.24    0.24</time>
   <time name="diis">    2.06    2.06</time>
   <time name="orth">    0.03    0.03</time>
   <time name="total">    2.74    2.74</time>
   <energy>
    <i name="e_fr_energy">   -705.02678052 </i>
    <i name="e_wo_entrp">   -704.99378460 </i>
    <i name="e_0_energy">   -705.01028256 </i>
   </energy>
  </scstep>
  <scstep>
   <time name="diag">    0.24    0.24</time>
   <time name="diis">    1.91    1.91</time>
   <time name="orth">    0.03    0.03</time>
   <time name="total">    2.59    2.59</time>
   <energy>
    <i name="e_fr_energy">   -705.02679233 </i>
    <i name="e_wo_entrp">   -704.99379980 </i>
    <i name="e_0_energy">   -705.01029607 </i>
   </energy>
  </scstep>
  <scstep>
   <time name="diag">    0.24    0.24</time>
   <time name="diis">    1.65    1.65</time>
   <time name="orth">    0.03    0.03</time>
   <time name="total">    2.04    2.04</time>
   <energy>
    <i name="alphaZ">   5529.70323211 </i>
    <i name="ewald"> -88613.97284171 </i>
    <i name="hartreedc"> -33817.99964034 </i>
    <i name="XCdc">   4186.27283385 </i>
    <i name="pawpsdc"> 120960.32402243 </i>
    <i name="pawaedc">-137349.50028229 </i>
    <i name="eentropy">     -0.03298262 </i>
    <i name="bandstr">  -5615.63990949 </i>
    <i name="atom"> 134015.81877255 </i>
    <i name="e_fr_energy">   -705.02679551 </i>
    <i name="e_wo_entrp">   -704.99381289 </i>
    <i name="e_0_energy">   -705.01030420 </i>
   </energy>
  </scstep>
  <structure>
   <crystal>
    <varray name="basis" >
     <v>       0.00000000      12.28047342       0.00000000 </v>
     <v>       9.14270205       0.00000000       0.00000000 </v>
     <v>       0.00000000      -2.76826177     -11.30069772 </v>
    </varray>
    <i name="volume">   1268.80515525 </i>
    <varray name="rec_basis" >
     <v>       0.00000000       0.08143009      -0.01994742 </v>
     <v>       0.10937686      -0.00000000       0.00000000 </v>
     <v>       0.00000000       0.00000000      -0.08849011 </v>
    </varray>
   </crystal>
   <varray name="positions" >
    <v>       0.65883830       0.00000000       0.15736517 </v>
    <v>       0.65883830       0.00000000       0.65736517 </v>
    <v>       0.65883830       0.33333333       0.15736517 </v>
    <v>       0.65883830       0.33333333       0.65736517 </v>
    <v>       0.65883830       0.66666667       0.15736517 </v>
    <v>       0.65883830       0.66666667       0.65736517 </v>
    <v>       0.84116170       0.16666667       0.34263483 </v>
    <v>       0.84116170       0.16666667       0.84263483 </v>
    <v>       0.84116170       0.50000000       0.34263483 </v>
    <v>       0.84116170       0.50000000       0.84263483 </v>
    <v>       0.84116170       0.83333333       0.34263483 </v>
    <v>       0.84116170       0.83333333       0.84263483 </v>
    <v>       0.59047440       0.16666667       0.39739300 </v>
    <v>       0.59047440       0.16666667       0.89739300 </v>
    <v>       0.59047440       0.50000000       0.39739300 </v>
    <v>       0.59047440       0.50000000       0.89739300 </v>
    <v>       0.59047440       0.83333333       0.39739300 </v>
    <v>       0.59047440       0.83333333       0.89739300 </v>
    <v>       0.90952560       0.00000000       0.10260700 </v>
    <v>       0.90952560       0.00000000       0.60260700 </v>
    <v>       0.90952560       0.33333333       0.10260700 </v>
    <v>       0.90952560       0.33333333       0.60260700 </v>
    <v>       0.90952560       0.66666667       0.10260700 </v>
    <v>       0.90952560       0.66666667       0.60260700 </v>
    <v>       0.15883830       0.16666667       0.15736517 </v>
    <v>       0.15883830       0.16666667       0.65736517 </v>
    <v>       0.15883830       0.50000000       0.15736517 </v>
    <v>       0.15883830       0.50000000       0.65736517 </v>
    <v>       0.15883830       0.83333333       0.15736517 </v>
    <v>       0.15883830       0.83333333       0.65736517 </v>
    <v>       0.34116170       0.00000000       0.34263483 </v>
    <v>       0.34116170       0.00000000       0.84263483 </v>
    <v>       0.34116170       0.33333333       0.34263483 </v>
    <v>       0.34116170       0.33333333       0.84263483 </v>
    <v>       0.34116170       0.66666667       0.34263483 </v>
    <v>       0.34116170       0.66666667       0.84263483 </v>
    <v>       0.09047440       0.00000000       0.39739300 </v>
    <v>       0.09047440       0.00000000       0.89739300 </v>
    <v>       0.09047440       0.33333333       0.39739300 </v>
    <v>       0.09047440       0.33333333       0.89739300 </v>
    <v>       0.09047440       0.66666667       0.39739300 </v>
    <v>       0.09047440       0.66666667       0.89739300 </v>
    <v>       0.40952560       0.16666667       0.10260700 </v>
    <v>       0.40952560       0.16666667       0.60260700 </v>
    <v>       0.40952560       0.50000000       0.10260700 </v>
    <v>       0.40952560       0.50000000       0.60260700 </v>
    <v>       0.40952560       0.83333333       0.10260700 </v>
    <v>       0.40952560       0.83333333       0.60260700 </v>
    <v>       0.99646913       0.16666667       0.12833205 </v>
    <v>       0.99646913       0.16666667       0.62833205 </v>
    <v>       0.99646913       0.50000000       0.12833205 </v>
    <v>       0.99646913       0.50000000       0.62833205 </v>
    <v>       0.99646913       0.83333333       0.12833205 </v>
    <v>       0.99646913       0.83333333       0.62833205 </v>
    <v>       0.50353087       0.00000000       0.37166795 </v>
    <v>       0.50353087       0.00000000       0.87166795 </v>
    <v>       0.50353087       0.33333333       0.37166795 </v>
    <v>       0.50353087       0.33333333       0.87166795 </v>
    <v>       0.50353087       0.66666667       0.37166795 </v>
    <v>       0.50353087       0.66666667       0.87166795 </v>
    <v>       0.67337106       0.16666667       0.28161508 </v>
    <v>       0.67337106       0.16666667       0.78161508 </v>
    <v>       0.67337106       0.50000000       0.28161508 </v>
    <v>       0.67337106       0.50000000       0.78161508 </v>
    <v>       0.67337106       0.83333333       0.28161508 </v>
    <v>       0.67337106       0.83333333       0.78161508 </v>
    <v>       0.82662894       0.00000000       0.21838492 </v>
    <v>       0.82662894       0.00000000       0.71838492 </v>
    <v>       0.82662894       0.33333333       0.21838492 </v>
    <v>       0.82662894       0.33333333       0.71838492 </v>
    <v>       0.82662894       0.66666667       0.21838492 </v>
    <v>       0.82662894       0.66666667       0.71838492 </v>
    <v>       0.83549502       0.00000000       0.44542296 </v>
    <v>       0.83549502       0.00000000       0.94542296 </v>
    <v>       0.83549502       0.33333333       0.44542296 </v>
    <v>       0.83549502       0.33333333       0.94542296 </v>
    <v>       0.83549502       0.66666667       0.44542296 </v>
    <v>       0.83549502       0.66666667       0.94542296 </v>
    <v>       0.66450498       0.16666667       0.05457704 </v>
    <v>       0.66450498       0.16666667       0.55457704 </v>
    <v>       0.66450498       0.50000000       0.05457704 </v>
    <v>       0.66450498       0.50000000       0.55457704 </v>
    <v>       0.66450498       0.83333333       0.05457704 </v>
    <v>       0.66450498       0.83333333       0.55457704 </v>
    <v>       0.49646913       0.00000000       0.12833205 </v>
    <v>       0.49646913       0.00000000       0.62833205 </v>
    <v>       0.49646913       0.33333333       0.12833205 </v>
    <v>       0.49646913       0.33333333       0.62833205 </v>
    <v>       0.49646913       0.66666667       0.12833205 </v>
    <v>       0.49646913       0.66666667       0.62833205 </v>
    <v>       0.00353087       0.16666667       0.37166795 </v>
    <v>       0.00353087       0.16666667       0.87166795 </v>
    <v>       0.00353087       0.50000000       0.37166795 </v>
    <v>       0.00353087       0.50000000       0.87166795 </v>
    <v>       0.00353087       0.83333333       0.37166795 </v>
    <v>       0.00353087       0.83333333       0.87166795 </v>
    <v>       0.17337106       0.00000000       0.78161508 </v>
    <v>       0.17337106       0.33333333       0.28161508 </v>
    <v>       0.17337106       0.33333333       0.78161508 </v>
    <v>       0.17337106       0.66666667       0.28161508 </v>
    <v>       0.17337106       0.66666667       0.78161508 </v>
    <v>       0.32662894       0.16666667       0.21838492 </v>
    <v>       0.32662894       0.16666667       0.71838492 </v>
    <v>       0.32662894       0.50000000       0.21838492 </v>
    <v>       0.32662894       0.50000000       0.71838492 </v>
    <v>       0.32662894       0.83333333       0.21838492 </v>
    <v>       0.32662894       0.83333333       0.71838492 </v>
    <v>       0.33549502       0.16666667       0.44542296 </v>
    <v>       0.33549502       0.16666667       0.94542296 </v>
    <v>       0.33549502       0.50000000       0.44542296 </v>
    <v>       0.33549502       0.50000000       0.94542296 </v>
    <v>       0.33549502       0.83333333       0.44542296 </v>
    <v>       0.33549502       0.83333333       0.94542296 </v>
    <v>       0.16450498       0.00000000       0.05457704 </v>
    <v>       0.16450498       0.00000000       0.55457704 </v>
    <v>       0.16450498       0.33333333       0.05457704 </v>
    <v>       0.16450498       0.33333333       0.55457704 </v>
    <v>       0.16450498       0.66666667       0.05457704 </v>
    <v>       0.16450498       0.66666667       0.55457704 </v>
    <v>       0.17337106       0.00000000       0.28161508 </v>
   </varray>
  </structure>
  <varray name="forces" >
   <v>      -0.00000000      -0.03519452       0.04847230 </v>
   <v>      -0.00000000      -0.01213764       0.03454703 </v>
   <v>       0.00479034      -0.03975743       0.04540020 </v>
   <v>       0.00444322      -0.01620518       0.04338153 </v>
   <v>      -0.00479034      -0.03975743       0.04540020 </v>
   <v>      -0.00444322      -0.01620518       0.04338153 </v>
   <v>       0.01474936       0.16552057      -0.10637380 </v>
   <v>      -0.00258383       0.05022984      -0.02726850 </v>
   <v>      -0.00000000       0.06063937      -0.07627344 </v>
   <v>      -0.00000000       0.04252840      -0.02255446 </v>
   <v>      -0.01474936       0.16552057      -0.10637380 </v>
   <v>       0.00258383       0.05022984      -0.02726850 </v>
   <v>       0.03704507       0.03238802      -0.01459203 </v>
   <v>      -0.00153090      -0.02684812      -0.04201131 </v>
   <v>      -0.00000000       0.01931464      -0.02455788 </v>
   <v>      -0.00000000      -0.02619475      -0.04368607 </v>
   <v>      -0.03704507       0.03238802      -0.01459203 </v>
   <v>       0.00153090      -0.02684812      -0.04201131 </v>
   <v>      -0.00000000      -0.12574521       0.05964315 </v>
   <v>      -0.00000000       0.06951298       0.06527584 </v>
   <v>       0.01974240      -0.06912808       0.00001251 </v>
   <v>      -0.01664803       0.04784272       0.06402755 </v>
   <v>      -0.01974240      -0.06912808       0.00001251 </v>
   <v>       0.01664803       0.04784272       0.06402755 </v>
   <v>       3.21054091       0.25254528       2.80402189 </v>
   <v>      -0.12000987      -0.05660825       0.13066692 </v>
   <v>      -0.00000000      -0.05836024      -0.01459725 </v>
   <v>      -0.00000000      -0.05389694       0.08627410 </v>
   <v>      -3.21054091       0.25254528       2.80402189 </v>
   <v>       0.12000987      -0.05660825       0.13066692 </v>
   <v>      -0.00000000       5.41292519      -1.92242952 </v>
   <v>      -0.00000000       0.01200246      -0.03019874 </v>
   <v>       0.07652513       0.09309377       0.01885735 </v>
   <v>      -0.01249309       0.04675766      -0.03812964 </v>
   <v>      -0.07652513       0.09309377       0.01885735 </v>
   <v>       0.01249309       0.04675766      -0.03812964 </v>
   <v>      -0.00000000      -6.35175813      -6.58439782 </v>
   <v>      -0.00000000       0.04096034       0.08683524 </v>
   <v>      -0.08296694      -0.13850270      -0.06304905 </v>
   <v>      -0.02463670      -0.02259334       0.05750200 </v>
   <v>       0.08296694      -0.13850270      -0.06304905 </v>
   <v>       0.02463670      -0.02259334       0.05750200 </v>
   <v>       0.03270241       0.04244413       0.00684599 </v>
   <v>       0.01022253      -0.02487646      -0.10353786 </v>
   <v>      -0.00000000       0.05467286       0.02487429 </v>
   <v>      -0.00000000      -0.01335882       0.01408563 </v>
   <v>      -0.03270241       0.04244413       0.00684599 </v>
   <v>      -0.01022253      -0.02487646      -0.10353786 </v>
   <v>       0.18921284      -0.48646332       0.32131884 </v>
   <v>       0.01945028      -0.04353195      -0.05017417 </v>
   <v>      -0.00000000       0.02985083      -0.02297525 </v>
   <v>      -0.00000000      -0.00965621      -0.04528775 </v>
   <v>      -0.18921284      -0.48646332       0.32131884 </v>
   <v>      -0.01945028      -0.04353195      -0.05017417 </v>
   <v>      -0.00000000      -0.21918501       0.05103239 </v>
   <v>      -0.00000000       0.01479345       0.03829815 </v>
   <v>      -0.01539801      -0.01889867       0.02010702 </v>
   <v>       0.00307766       0.01175161       0.03832628 </v>
   <v>       0.01539801      -0.01889867       0.02010702 </v>
   <v>      -0.00307766       0.01175161       0.03832628 </v>
   <v>      -0.00697787      -0.04161315       0.00991717 </v>
   <v>       0.00011907      -0.02058531       0.02433195 </v>
   <v>      -0.00000000      -0.03550498       0.01626873 </v>
   <v>      -0.00000000      -0.02263322       0.02223723 </v>
   <v>       0.00697787      -0.04161315       0.00991717 </v>
   <v>      -0.00011907      -0.02058531       0.02433195 </v>
   <v>      -0.00000000       0.00739932       0.01747938 </v>
   <v>      -0.00000000      -0.00341418      -0.03492074 </v>
   <v>       0.02126638       0.00413329       0.01187893 </v>
   <v>       0.00474653      -0.00155673      -0.03581547 </v>
   <v>      -0.02126638       0.00413329       0.01187893 </v>
   <v>      -0.00474653      -0.00155673      -0.03581547 </v>
   <v>      -0.00000000      -0.20432735      -0.03299090 </v>
   <v>      -0.00000000      -0.16031874      -0.02719475 </v>
   <v>       0.04080875      -0.21766507      -0.04325184 </v>
   <v>       0.00865482      -0.16807821      -0.01255422 </v>
   <v>      -0.04080875      -0.21766507      -0.04325184 </v>
   <v>      -0.00865482      -0.16807821      -0.01255422 </v>
   <v>       0.00072089       0.17180494       0.03337900 </v>
   <v>      -0.00846705       0.15185499       0.03052708 </v>
   <v>      -0.00000000       0.17739993       0.03863946 </v>
   <v>      -0.00000000       0.15590688       0.01672342 </v>
   <v>      -0.00072089       0.17180494       0.03337900 </v>
   <v>       0.00846705       0.15185499       0.03052708 </v>
   <v>      -0.00000000       0.00818256      -0.03152555 </v>
   <v>      -0.00000000      -0.02361573      -0.00126978 </v>
   <v>       0.03701559       0.03572949      -0.02593710 </v>
   <v>      -0.00612621      -0.00499495      -0.02140822 </v>
   <v>      -0.03701559       0.03572949      -0.02593710 </v>
   <v>       0.00612621      -0.00499495      -0.02140822 </v>
   <v>       0.46541845      -0.74664289      -0.14218623 </v>
   <v>       0.01838265      -0.01236359       0.01201252 </v>
   <v>      -0.00000000       0.01969812       0.04525225 </v>
   <v>      -0.00000000       0.02914992       0.00260469 </v>
   <v>      -0.46541845      -0.74664289      -0.14218623 </v>
   <v>      -0.01838265      -0.01236359       0.01201252 </v>
   <v>      -0.00000000      -0.01306496      -0.03052404 </v>
   <v>       0.49442707       0.01162327      -0.10166066 </v>
   <v>       0.00906067      -0.02159319      -0.01070885 </v>
   <v>      -0.49442707       0.01162327      -0.10166066 </v>
   <v>      -0.00906067      -0.02159319      -0.01070885 </v>
   <v>       0.77432583       1.11760751       0.41670224 </v>
   <v>       0.01366228       0.05842740      -0.02412845 </v>
   <v>      -0.00000000      -0.00589829      -0.01110301 </v>
   <v>      -0.00000000       0.03449604      -0.02156517 </v>
   <v>      -0.77432583       1.11760751       0.41670224 </v>
   <v>      -0.01366228       0.05842740      -0.02412845 </v>
   <v>       0.42351065       0.03142237      -0.38212473 </v>
   <v>       0.00542025      -0.17207592      -0.01999715 </v>
   <v>      -0.00000000      -0.15968296      -0.02124835 </v>
   <v>      -0.00000000      -0.18689127      -0.02804119 </v>
   <v>      -0.42351065       0.03142237      -0.38212473 </v>
   <v>      -0.00542025      -0.17207592      -0.01999715 </v>
   <v>      -0.00000000       0.48583951       1.31848270 </v>
   <v>      -0.00000000      -0.04911129      -0.57867343 </v>
   <v>      -0.12339637       0.14126230      -0.09764871 </v>
   <v>       0.03081600       0.19369204       0.00314742 </v>
   <v>       0.12339637       0.14126230      -0.09764871 </v>
   <v>      -0.03081600       0.19369204       0.00314742 </v>
   <v>      -0.00000000       0.47558032       2.15937628 </v>
  </varray>
  <varray name="stress" >
   <v>      87.31647959       0.00000000       0.00000000 </v>
   <v>       0.00000000      96.74724948       8.32285274 </v>
   <v>       0.00000000       8.32285327      92.89552384 </v>
  </varray>
  <energy>
   <i name="e_fr_energy">   -705.02679551 </i>
   <i name="e_wo_entrp">   -704.99381289 </i>
   <i name="e_0_energy">   -705.01030420 </i>
  </energy>
  <time name="totalsc">   64.62   64.63</time>
 </calculation>
 <calculation>
  <scstep>
   <time name="dav">    2.01    2.01</time>
   <time name="total">    2.40    2.40</time>
   <energy>
    <i name="alphaZ">   5529.70323211 </i>
    <i name="ewald"> -88444.12797643 </i>
    <i name="hartreedc"> -33980.06956569 </i>
    <i name="XCdc">   4186.12680038 </i>
    <i name="pawpsdc"> 120960.37851650 </i>
    <i name="pawaedc">-137349.55025023 </i>
    <i name="eentropy">     -0.01622547 </i>
    <i name="bandstr">  -5592.29905858 </i>
    <i name="atom"> 134015.81877255 </i>
    <i name="e_fr_energy">   -674.03575485 </i>
    <i name="e_wo_entrp">   -674.01952939 </i>
    <i name="e_0_energy">   -674.02764212 </i>
   </energy>
  </scstep>
  <scstep>
   <time name="diag">    0.24    0.24</time>
   <time name="diis">    2.55    2.55</time>
   <time name="orth">    0.03    0.03</time>
   <time name="total">    3.21    3.21</time>
   <energy>
    <i name="e_fr_energy">   -700.13821984 </i>
    <i name="e_wo_entrp">   -700.10023352 </i>
    <i name="e_0_energy">   -700.11922668 </i>
   </energy>
  </scstep>
  <scstep>
   <time name="diag">    0.24    0.24</time>
   <time name="diis">    2.77    2.77</time>
   <time name="orth">    0.03    0.03</time>
   <time name="total">    3.43    3.43</time>
   <energy>
    <i name="e_fr_energy">   -704.92974165 </i>
    <i name="e_wo_entrp">   -704.90655781 </i>
    <i name="e_0_energy">   -704.91814973 </i>
   </energy>
  </scstep>
  <scstep>
   <time name="diag">    0.24    0.24</time>
   <time name="diis">    3.03    3.03</time>
   <time name="orth">    0.03    0.03</time>
   <time name="total">    3.70    3.70</time>
   <energy>
    <i name="e_fr_energy">   -705.99284154 </i>
    <i name="e_wo_entrp">   -705.95730035 </i>
    <i name="e_0_energy">   -705.97507094 </i>
   </energy>
  </scstep>
  <scstep>
   <time name="diag">    0.24    0.24</time>
   <time name="diis">    3.01    3.01</time>
   <time name="orth">    0.03    0.03</time>
   <time name="total">    3.68    3.68</time>
   <energy>
    <i name="e_fr_energy">   -706.10022793 </i>
    <i name="e_wo_entrp">   -706.06975523 </i>
    <i name="e_0_energy">   -706.08499158 </i>
   </energy>
  </scstep>
  <scstep>
   <time name="diag">    0.24    0.24</time>
   <time name="diis">    2.68    2.68</time>
   <time name="orth">    0.03    0.03</time>
   <time name="total">    3.35    3.35</time>
   <energy>
    <i name="e_fr_energy">   -706.03738256 </i>
    <i name="e_wo_entrp">   -706.00303954 </i>
    <i name="e_0_energy">   -706.02021105 </i>
   </energy>
  </scstep>
  <scstep>
   <time name="diag">    0.24    0.24</time>
   <time name="diis">    2.57    2.57</time>
   <time name="orth">    0.03    0.03</time>
   <time name="total">    3.23    3.23</time>
   <energy>
    <i name="e_fr_energy">   -706.09249520 </i>
    <i name="e_wo_entrp">   -706.05713182 </i>
    <i name="e_0_energy">   -706.07481351 </i>
   </energy>
  </scstep>
  <scstep>
   <time name="diag">    0.24    0.24</time>
   <time name="diis">    2.50    2.50</time>
   <time name="orth">    0.03    0.03</time>
   <time name="total">    3.17    3.17</time>
   <energy>
    <i name="e_fr_energy">   -706.01962767 </i>
    <i name="e_wo_entrp">   -705.98508937 </i>
    <i name="e_0_energy">   -706.00235852 </i>
   </energy>
  </scstep>
  <scstep>
   <time name="diag">    0.24    0.24</time>
   <time name="diis">    2.46    2.46</time>
   <time name="orth">    0.03    0.03</time>
   <time name="total">    3.13    3.13</time>
   <energy>
    <i name="e_fr_energy">   -705.97107332 </i>
    <i name="e_wo_entrp">   -705.93683508 </i>
    <i name="e_0_energy">   -705.95395420 </i>
   </energy>
  </scstep>
  <scstep>
   <time name="diag">    0.24    0.24</time>
   <time name="diis">    2.49    2.48</time>
   <time name="orth">    0.03    0.03</time>
   <time name="total">    3.16    3.16</time>
   <energy>
    <i name="e_fr_energy">   -705.96049797 </i>
    <i name="e_wo_entrp">   -705.92676194 </i>
    <i name="e_0_energy">   -705.94362996 </i>
   </energy>
  </scstep>
  <scstep>
   <time name="diag">    0.24    0.24</time>
   <time name="diis">    2.70    2.70</time>
   <time name="orth">    0.03    0.03</time>
   <time name="total">    3.37    3.37</time>
   <energy>
    <i name="e_fr_energy">   -705.96212408 </i>
    <i name="e_wo_entrp">   -705.92832790 </i>
    <i name="e_0_energy">   -705.94522599 </i>
   </energy>
  </scstep>
  <scstep>
   <time name="diag">    0.24    0.24</time>
   <time name="diis">    2.48    2.48</time>
   <time name="orth">    0.03    0.03</time>
   <time name="total">    3.16    3.16</time>
   <energy>
    <i name="e_fr_energy">   -705.96112919 </i>
    <i name="e_wo_entrp">   -705.92748094 </i>
    <i name="e_0_energy">   -705.94430507 </i>
   </energy>
  </scstep>
  <scstep>
   <time name="diag">    0.24    0.24</time>
   <time name="diis">    2.58    2.58</time>
   <time name="orth">    0.03    0.03</time>
   <time name="total">    3.26    3.26</time>
   <energy>
    <i name="e_fr_energy">   -705.96117113 </i>
    <i name="e_wo_entrp">   -705.92755888 </i>
    <i name="e_0_energy">   -705.94436500 </i>
   </energy>
  </scstep>
  <scstep>
   <time name="diag">    0.24    0.24</time>
   <time name="diis">    2.49    2.49</time>
   <time name="orth">    0.03    0.03</time>
   <time name="total">    3.17    3.17</time>
   <energy>
    <i name="e_fr_energy">   -705.96119412 </i>
    <i name="e_wo_entrp">   -705.92755849 </i>
    <i name="e_0_energy">   -705.94437630 </i>
   </energy>
  </scstep>
  <scstep>
   <time name="diag">    0.24    0.24</time>
   <time name="diis">    2.11    2.11</time>
   <time name="orth">    0.03    0.03</time>
   <time name="total">    2.79    2.79</time>
   <energy>
    <i name="e_fr_energy">   -705.96120373 </i>
    <i name="e_wo_entrp">   -705.92757933 </i>
    <i name="e_0_energy">   -705.94439153 </i>
   </energy>
  </scstep>
  <scstep>
   <time name="diag">    0.24    0.24</time>
   <time name="diis">    1.39    1.39</time>
   <time name="orth">    0.03    0.03</time>
   <time name="total">    1.78    1.78</time>
   <energy>
    <i name="alphaZ">   5529.70323211 </i>
    <i name="ewald"> -88444.12797643 </i>
    <i name="hartreedc"> -33992.40200129 </i>
    <i name="XCdc">   4186.71434480 </i>
    <i name="pawpsdc"> 120492.23732000 </i>
    <i name="pawaedc">-136884.46961008 </i>
    <i name="eentropy">     -0.03362929 </i>
    <i name="bandstr">  -5609.40165282 </i>
    <i name="atom"> 134015.81877255 </i>
    <i name="e_fr_energy">   -705.96120045 </i>
    <i name="e_wo_entrp">   -705.92757116 </i>
    <i name="e_0_energy">   -705.94438581 </i>
   </energy>
  </scstep>
  <structure>
   <crystal>
    <varray name="basis" >
     <v>       0.00000000      12.28047342       0.00000000 </v>
     <v>       9.14270205       0.00000000       0.00000000 </v>
     <v>       0.00000000      -2.76826177     -11.30069772 </v>
    </varray>
    <i name="volume">   1268.80515525 </i>
    <varray name="rec_basis" >
     <v>       0.00000000       0.08143009      -0.01994742 </v>
     <v>       0.10937686      -0.00000000       0.00000000 </v>
     <v>       0.00000000       0.00000000      -0.08849011 </v>
    </varray>
   </crystal>
   <varray name="positions" >
    <v>       0.65865340      -0.00000000       0.15715824 </v>
    <v>       0.65875737      -0.00000000       0.65721769 </v>
    <v>       0.65863843       0.33335861       0.15717136 </v>
    <v>       0.65873289       0.33335678       0.65717997 </v>
    <v>       0.65863843       0.66664139       0.15717136 </v>
    <v>       0.65873289       0.66664322       0.65717997 </v>
    <v>       0.84191430       0.16674449       0.34308894 </v>
    <v>       0.84138526       0.16665303       0.84275124 </v>
    <v>       0.84147332       0.50000000       0.34296044 </v>
    <v>       0.84135047       0.50000000       0.84273111 </v>
    <v>       0.84191430       0.83325551       0.34308894 </v>
    <v>       0.84138526       0.83334697       0.84275124 </v>
    <v>       0.59061568       0.16686214       0.39745529 </v>
    <v>       0.59040936       0.16665859       0.89757235 </v>
    <v>       0.59057391       0.50000000       0.39749784 </v>
    <v>       0.59041354       0.50000000       0.89757950 </v>
    <v>       0.59061568       0.83313786       0.39745529 </v>
    <v>       0.59040936       0.83334141       0.89757235 </v>
    <v>       0.90897423      -0.00000000       0.10235238 </v>
    <v>       0.90973586      -0.00000000       0.60232834 </v>
    <v>       0.90925402       0.33343751       0.10260695 </v>
    <v>       0.90965193       0.33324549       0.60233367 </v>
    <v>       0.90925402       0.66656249       0.10260695 </v>
    <v>       0.90965193       0.66675451       0.60233367 </v>
    <v>       0.15713204       0.18360750       0.14539481 </v>
    <v>       0.15849018       0.16603342       0.65680735 </v>
    <v>       0.15862308       0.50000000       0.15742749 </v>
    <v>       0.15854355       0.50000000       0.65699687 </v>
    <v>       0.15713204       0.81639250       0.14539481 </v>
    <v>       0.15849018       0.83396658       0.65680735 </v>
    <v>       0.36427584      -0.00000000       0.35084168 </v>
    <v>       0.34123791      -0.00000000       0.84276375 </v>
    <v>       0.34150926       0.33373713       0.34255433 </v>
    <v>       0.34138208       0.33326741       0.84279761 </v>
    <v>       0.34150926       0.66626287       0.34255433 </v>
    <v>       0.34138208       0.66673259       0.84279761 </v>
    <v>       0.07185841      -0.00000000       0.42550178 </v>
    <v>       0.09055175      -0.00000000       0.89702230 </v>
    <v>       0.08999098       0.33289555       0.39766216 </v>
    <v>       0.09033031       0.33320333       0.89714752 </v>
    <v>       0.08999098       0.66710445       0.39766216 </v>
    <v>       0.09033031       0.66679667       0.89714752 </v>
    <v>       0.40968575       0.16683923       0.10257777 </v>
    <v>       0.40952751       0.16672061       0.60304900 </v>
    <v>       0.40971644       0.50000000       0.10250081 </v>
    <v>       0.40945957       0.50000000       0.60254687 </v>
    <v>       0.40968575       0.83316077       0.10257777 </v>
    <v>       0.40952751       0.83327939       0.60304900 </v>
    <v>       0.99424890       0.16766507       0.12696034 </v>
    <v>       0.99634640       0.16676930       0.62854624 </v>
    <v>       0.99660851       0.50000000       0.12843013 </v>
    <v>       0.99647478       0.50000000       0.62852538 </v>
    <v>       0.99424890       0.83233493       0.12696034 </v>
    <v>       0.99634640       0.83323070       0.62854624 </v>
    <v>       0.50262071      -0.00000000       0.37145010 </v>
    <v>       0.50355213      -0.00000000       0.87150446 </v>
    <v>       0.50343728       0.33325208       0.37158212 </v>
    <v>       0.50354015       0.33334957       0.87150434 </v>
    <v>       0.50343728       0.66674792       0.37158212 </v>
    <v>       0.50354015       0.66665043       0.87150434 </v>
    <v>       0.67319805       0.16662985       0.28157274 </v>
    <v>       0.67326678       0.16666729       0.78151121 </v>
    <v>       0.67321593       0.50000000       0.28154563 </v>
    <v>       0.67326075       0.50000000       0.78152015 </v>
    <v>       0.67319805       0.83337015       0.28157274 </v>
    <v>       0.67326678       0.83333271       0.78151121 </v>
    <v>       0.82664118      -0.00000000       0.21831030 </v>
    <v>       0.82664913      -0.00000000       0.71853400 </v>
    <v>       0.82663374       0.33344555       0.21833421 </v>
    <v>       0.82665729       0.33335838       0.71853782 </v>
    <v>       0.82663374       0.66655445       0.21833421 </v>
    <v>       0.82665729       0.66664162       0.71853782 </v>
    <v>       0.83472409      -0.00000000       0.44556380 </v>
    <v>       0.83489139      -0.00000000       0.94553905 </v>
    <v>       0.83468157       0.33354867       0.44560760 </v>
    <v>       0.83484682       0.33337900       0.94547655 </v>
    <v>       0.83468157       0.66645133       0.44560760 </v>
    <v>       0.83484682       0.66662100       0.94547655 </v>
    <v>       0.66514778       0.16667047       0.05443455 </v>
    <v>       0.66507215       0.16662199       0.55444672 </v>
    <v>       0.66516470       0.50000000       0.05441209 </v>
    <v>       0.66510135       0.50000000       0.55450565 </v>
    <v>       0.66514778       0.83332953       0.05443455 </v>
    <v>       0.66507215       0.83337801       0.55444672 </v>
    <v>       0.49653161      -0.00000000       0.12846663 </v>
    <v>       0.49637758      -0.00000000       0.62833747 </v>
[...]
       <r>    -9.7111     0.0000   142.0000 </r>
       <r>    -9.6014     0.0000   142.0000 </r>
       <r>    -9.4917     0.0000   142.0000 </r>
       <r>    -9.3820     0.0000   142.0000 </r>
       <r>    -9.2723     0.0000   142.0000 </r>
       <r>    -9.1626     0.0194   142.0021 </r>
       <r>    -9.0529    21.1396   144.3210 </r>
       <r>    -8.9432   221.9333   168.6660 </r>
       <r>    -8.8335   559.8344   230.0769 </r>
       <r>    -8.7238   765.8112   314.0825 </r>
       <r>    -8.6141   732.3618   394.4188 </r>
       <r>    -8.5044   647.8532   465.4849 </r>
       <r>    -8.3947   591.8234   530.4049 </r>
       <r>    -8.2850   182.8748   550.4653 </r>
       <r>    -8.1754   130.3493   564.7639 </r>
       <r>    -8.0657   121.6497   578.1083 </r>
       <r>    -7.9560    96.7348   588.7196 </r>
       <r>    -7.8463   116.3284   601.4802 </r>
       <r>    -7.7366   128.3921   615.5642 </r>
       <r>    -7.6269    54.3393   621.5249 </r>
       <r>    -7.5172     4.3229   621.9991 </r>
       <r>    -7.4075     0.0081   622.0000 </r>
       <r>    -7.2978     0.0000   622.0000 </r>
       <r>    -7.1881     0.0000   622.0000 </r>
       <r>    -7.0784     0.0000   622.0000 </r>
       <r>    -6.9687     0.0000   622.0000 </r>
       <r>    -6.8590     0.0000   622.0000 </r>
       <r>    -6.7493     0.0000   622.0000 </r>
       <r>    -6.6396     0.0000   622.0000 </r>
       <r>    -6.5299     0.0000   622.0000 </r>
       <r>    -6.4202     0.0000   622.0000 </r>
       <r>    -6.3105     0.0000   622.0000 </r>
       <r>    -6.2008     0.0000   622.0000 </r>
       <r>    -6.0912     0.0000   622.0000 </r>
       <r>    -5.9815     0.0000   622.0000 </r>
       <r>    -5.8718     0.0000   622.0000 </r>
       <r>    -5.7621     0.0000   622.0000 </r>
       <r>    -5.6524     0.0000   622.0000 </r>
       <r>    -5.5427     0.0000   622.0000 </r>
       <r>    -5.4330     0.0000   622.0000 </r>
       <r>    -5.3233     0.0000   622.0000 </r>
       <r>    -5.2136     0.0000   622.0000 </r>
       <r>    -5.1039     0.3816   622.0419 </r>
       <r>    -4.9942    15.0829   623.6964 </r>
       <r>    -4.8845     2.7675   624.0000 </r>
       <r>    -4.7748     0.0004   624.0000 </r>
       <r>    -4.6651     0.0000   624.0000 </r>
       <r>    -4.5554     0.0000   624.0000 </r>
       <r>    -4.4457     0.0000   624.0000 </r>
       <r>    -4.3360     0.0000   624.0000 </r>
       <r>    -4.2263     0.0000   624.0000 </r>
       <r>    -4.1166     0.0000   624.0000 </r>
       <r>    -4.0069     0.0000   624.0000 </r>
       <r>    -3.8973     0.0000   624.0000 </r>
       <r>    -3.7876     0.0000   624.0000 </r>
       <r>    -3.6779     0.0000   624.0000 </r>
       <r>    -3.5682     0.0000   624.0000 </r>
       <r>    -3.4585     0.0000   624.0000 </r>
       <r>    -3.3488     0.0000   624.0000 </r>
       <r>    -3.2391     0.0010   624.0001 </r>
       <r>    -3.1294     2.4113   624.2646 </r>
       <r>    -3.0197     8.6906   625.2179 </r>
       <r>    -2.9100    19.8600   627.3965 </r>
       <r>    -2.8003    22.3210   629.8450 </r>
       <r>    -2.6906    37.5019   633.9587 </r>
       <r>    -2.5809    28.0352   637.0341 </r>
       <r>    -2.4712    46.0600   642.0866 </r>
       <r>    -2.3615    42.3081   646.7276 </r>
       <r>    -2.2518    47.2966   651.9158 </r>
       <r>    -2.1421    65.1261   659.0598 </r>
       <r>    -2.0324    52.0227   664.7664 </r>
       <r>    -1.9227    46.0948   669.8227 </r>
       <r>    -1.8131    46.7538   674.9514 </r>
       <r>    -1.7034    60.7395   681.6142 </r>
       <r>    -1.5937    32.9340   685.2269 </r>
       <r>    -1.4840    29.9546   688.5128 </r>
       <r>    -1.3743    27.7447   691.5562 </r>
       <r>    -1.2646    30.0818   694.8560 </r>
       <r>    -1.1549    36.0202   698.8073 </r>
       <r>    -1.0452    35.5379   702.7056 </r>
       <r>    -0.9355    39.1800   707.0034 </r>
       <r>    -0.8258    35.4379   710.8908 </r>
       <r>    -0.7161    38.7783   715.1446 </r>
       <r>    -0.6064    31.3555   718.5841 </r>
       <r>    -0.4967    40.0517   722.9776 </r>
       <r>    -0.3870    39.0997   727.2666 </r>
       <r>    -0.2773    47.8264   732.5129 </r>
       <r>    -0.1676    48.1103   737.7904 </r>
       <r>    -0.0579    31.3949   741.2342 </r>
       <r>     0.0518    54.9419   747.2611 </r>
       <r>     0.1615    61.2989   753.9852 </r>
       <r>     0.2712    85.3890   763.3520 </r>
       <r>     0.3808    61.5989   770.1090 </r>
       <r>     0.4905    66.6346   777.4185 </r>
       <r>     0.6002    71.9166   785.3074 </r>
       <r>     0.7099    52.6324   791.0809 </r>
       <r>     0.8196    59.2196   797.5770 </r>
       <r>     0.9293    65.7530   804.7897 </r>
       <r>     1.0390    85.6208   814.1819 </r>
       <r>     1.1487    74.3589   822.3387 </r>
       <r>     1.2584    81.0379   831.2281 </r>
       <r>     1.3681    81.4139   840.1588 </r>
       <r>     1.4778    62.7746   847.0449 </r>
       <r>     1.5875    70.4135   854.7689 </r>
       <r>     1.6972    72.8407   862.7591 </r>
       <r>     1.8069    73.7898   870.8535 </r>
       <r>     1.9166    96.2517   881.4118 </r>
       <r>     2.0263    77.6498   889.9296 </r>
       <r>     2.1360    63.4750   896.8925 </r>
       <r>     2.2457    41.1323   901.4045 </r>
       <r>     2.3554    70.5182   909.1399 </r>
       <r>     2.4650    99.9127   920.0999 </r>
       <r>     2.5747    94.9762   930.5182 </r>
       <r>     2.6844    99.4821   941.4309 </r>
       <r>     2.7941    99.8136   952.3800 </r>
       <r>     2.9038    99.9769   963.3469 </r>
       <r>     3.0135   109.2836   975.3348 </r>
       <r>     3.1232   109.9578   987.3966 </r>
       <r>     3.2329   137.1789  1002.4444 </r>
       <r>     3.3426   119.6467  1015.5690 </r>
       <r>     3.4523    90.6900  1025.5172 </r>
       <r>     3.5620    69.8248  1033.1767 </r>
       <r>     3.6717    48.4571  1038.4921 </r>
       <r>     3.7814    58.6111  1044.9215 </r>
       <r>     3.8911    44.0198  1049.7502 </r>
       <r>     4.0008     2.2766  1050.0000 </r>
       <r>     4.1105     0.0004  1050.0000 </r>
       <r>     4.2202     0.0000  1050.0000 </r>
       <r>     4.3299     0.4906  1050.0538 </r>
       <r>     4.4396     8.5172  1050.9881 </r>
       <r>     4.5492     8.6471  1051.9367 </r>
       <r>     4.6589     0.5774  1052.0000 </r>
       <r>     4.7686     0.4830  1052.0530 </r>
       <r>     4.8783     7.9013  1052.9197 </r>
       <r>     4.9880     9.3644  1053.9469 </r>
       <r>     5.0977    18.2290  1055.9466 </r>
       <r>     5.2074     0.4871  1056.0000 </r>
       <r>     5.3171     0.0000  1056.0000 </r>
       <r>     5.4268     0.0000  1056.0000 </r>
       <r>     5.5365     0.0000  1056.0000 </r>
       <r>     5.6462     0.0000  1056.0000 </r>
       <r>     5.7559     0.0000  1056.0000 </r>
       <r>     5.8656     0.0000  1056.0000 </r>
       <r>     5.9753     0.0000  1056.0000 </r>
       <r>     6.0850     0.0000  1056.0000 </r>
       <r>     6.1947     0.0219  1056.0024 </r>
       <r>     6.3044     1.7480  1056.1941 </r>
       <r>     6.4141     0.5091  1056.2500 </r>
       <r>     6.5238     0.0001  1056.2500 </r>
       <r>     6.6335     0.0000  1056.2500 </r>
       <r>     6.7431     0.0000  1056.2500 </r>
       <r>     6.8528     0.0000  1056.2500 </r>
       <r>     6.9625     0.0000  1056.2500 </r>
       <r>     7.0722     0.2787  1056.2806 </r>
       <r>     7.1819     5.0787  1056.8377 </r>
       <r>     7.2916     3.4323  1057.2142 </r>
       <r>     7.4013     0.6005  1057.2801 </r>
       <r>     7.5110     3.3915  1057.6521 </r>
       <r>     7.6207     5.2639  1058.2295 </r>
       <r>     7.7304     0.1867  1058.2500 </r>
       <r>     7.8401     0.0300  1058.2533 </r>
       <r>     7.9498     4.6283  1058.7610 </r>
       <r>     8.0595     7.9306  1059.6309 </r>
       <r>     8.1692     5.7482  1060.2615 </r>
       <r>     8.2789     6.0462  1060.9247 </r>
       <r>     8.3886     6.5383  1061.6419 </r>
       <r>     8.4983     3.6695  1062.0445 </r>
       <r>     8.6080     5.9747  1062.6999 </r>
       <r>     8.7177    12.2165  1064.0400 </r>
       <r>     8.8273     7.8219  1064.8980 </r>
       <r>     8.9370     3.7393  1065.3082 </r>
       <r>     9.0467     9.6273  1066.3642 </r>
       <r>     9.1564    17.7138  1068.3074 </r>
       <r>     9.2661    15.6297  1070.0218 </r>
       <r>     9.3758    19.2639  1072.1350 </r>
       <r>     9.4855    19.0324  1074.2227 </r>
       <r>     9.5952    22.4223  1076.6824 </r>
       <r>     9.7049    31.0973  1080.0936 </r>
       <r>     9.8146    30.7162  1083.4630 </r>
       <r>     9.9243    37.9443  1087.6253 </r>
       <r>    10.0340    43.6354  1092.4119 </r>
       <r>    10.1437    46.4268  1097.5046 </r>
       <r>    10.2534    31.3791  1100.9468 </r>
       <r>    10.3631    38.8464  1105.2080 </r>
       <r>    10.4728    33.1736  1108.8470 </r>
       <r>    10.5825    26.3409  1111.7364 </r>
       <r>    10.6922    36.8609  1115.7799 </r>
       <r>    10.8019    47.4214  1120.9818 </r>
       <r>    10.9115    35.1986  1124.8429 </r>
       <r>    11.0212    35.2019  1128.7043 </r>
       <r>    11.1309    32.7906  1132.3013 </r>
       <r>    11.2406    34.9230  1136.1322 </r>
       <r>    11.3503    35.0678  1139.9789 </r>
       <r>    11.4600    40.2849  1144.3980 </r>
       <r>    11.5697    32.6428  1147.9787 </r>
       <r>    11.6794    34.9198  1151.8092 </r>
       <r>    11.7891    42.3153  1156.4510 </r>
       <r>    11.8988    30.4780  1159.7943 </r>
       <r>    12.0085    20.2529  1162.0159 </r>
       <r>    12.1182    16.2156  1163.7947 </r>
       <r>    12.2279    25.8179  1166.6268 </r>
       <r>    12.3376    31.8588  1170.1215 </r>
       <r>    12.4473    34.0630  1173.8581 </r>
       <r>    12.5570    39.6437  1178.2068 </r>
       <r>    12.6667    47.6061  1183.4289 </r>
       <r>    12.7764    37.9973  1187.5970 </r>
       <r>    12.8861    39.7241  1191.9545 </r>
       <r>    12.9958    37.6891  1196.0888 </r>
       <r>    13.1054    38.2111  1200.2804 </r>
       <r>    13.2151    35.9727  1204.2264 </r>
       <r>    13.3248    36.5619  1208.2371 </r>
       <r>    13.4345    43.5348  1213.0126 </r>
       <r>    13.5442    43.2257  1217.7543 </r>
       <r>    13.6539    39.1398  1222.0477 </r>
       <r>    13.7636    43.5646  1226.8265 </r>
       <r>    13.8733    36.3681  1230.8159 </r>
       <r>    13.9830    42.5930  1235.4881 </r>
       <r>    14.0927    31.6628  1238.9614 </r>
       <r>    14.2024    43.3527  1243.7170 </r>
       <r>    14.3121    31.6385  1247.1875 </r>
       <r>    14.4218    42.3148  1251.8292 </r>
       <r>    14.5315    22.1412  1254.2580 </r>
       <r>    14.6412    37.8500  1258.4100 </r>
       <r>    14.7509    34.9982  1262.2491 </r>
       <r>    14.8606    27.1212  1265.2242 </r>
       <r>    14.9703     6.9863  1265.9905 </r>
       <r>    15.0800     0.0865  1266.0000 </r>
       <r>    15.1896     0.0000  1266.0000 </r>
       <r>    15.2993     0.0000  1266.0000 </r>
       <r>    15.4090     0.0000  1266.0000 </r>
       <r>    15.5187     0.0000  1266.0000 </r>
       <r>    15.6284     0.0000  1266.0000 </r>
       <r>    15.7381     0.0000  1266.0000 </r>
       <r>    15.8478     0.0000  1266.0000 </r>
       <r>    15.9575     0.0000  1266.0000 </r>
       <r>    16.0672     0.0000  1266.0000 </r>
       <r>    16.1769     0.0000  1266.0000 </r>
       <r>    16.2866     0.0000  1266.0000 </r>
       <r>    16.3963     0.0000  1266.0000 </r>
      </set>
     </set>
    </array>
   </total>
  </dos>
 </calculation>
 <structure name="finalpos" >
  <crystal>
   <varray name="basis" >
    <v>       0.00000000      12.28047342       0.00000000 </v>
    <v>       9.14270205       0.00000000       0.00000000 </v>
    <v>       0.00000000      -2.76826177     -11.30069772 </v>
   </varray>
   <i name="volume">   1268.80515525 </i>
   <varray name="rec_basis" >
    <v>       0.00000000       0.08143009      -0.01994742 </v>
    <v>       0.10937686      -0.00000000       0.00000000 </v>
    <v>       0.00000000       0.00000000      -0.08849011 </v>
   </varray>
  </crystal>
  <varray name="positions" >
   <v>       0.66083139       0.00000000       0.15524547 </v>
   <v>       0.65825204       0.00000000       0.65773333 </v>
   <v>       0.66010245       0.33504531       0.15489247 </v>
   <v>       0.65971479       0.33369566       0.65687947 </v>
   <v>       0.66010245       0.66495469       0.15489247 </v>
   <v>       0.65971479       0.66630434       0.65687947 </v>
   <v>       0.83476433       0.16989279       0.34344191 </v>
   <v>       0.83951640       0.16689841       0.84449828 </v>
   <v>       0.84071308       0.50000000       0.34377078 </v>
   <v>       0.83944645       0.50000000       0.84213498 </v>
   <v>       0.83476433       0.83010721       0.34344191 </v>
   <v>       0.83951640       0.83310159       0.84449828 </v>
   <v>       0.59369434       0.16970775       0.39901489 </v>
   <v>       0.59116164       0.16677272       0.89781409 </v>
   <v>       0.59478420       0.50000000       0.39778181 </v>
   <v>       0.59186877       0.50000000       0.89695292 </v>
   <v>       0.59369434       0.83029225       0.39901489 </v>
   <v>       0.59116164       0.83322728       0.89781409 </v>
   <v>       0.90986953       0.00000000       0.10344591 </v>
   <v>       0.90642097       0.00000000       0.60520948 </v>
   <v>       0.90659440       0.33429415       0.10123668 </v>
   <v>       0.90728013       0.33374239       0.60092436 </v>
   <v>       0.90659440       0.66570585       0.10123668 </v>
   <v>       0.90728013       0.66625761       0.60092436 </v>
   <v>       0.16154293       0.17231326       0.14552121 </v>
   <v>       0.15886275       0.16878625       0.66112773 </v>
   <v>       0.15798995       0.50000000       0.15809674 </v>
   <v>       0.15907431       0.50000000       0.65368392 </v>
   <v>       0.16154293       0.82768674       0.14552121 </v>
   <v>       0.15886275       0.83121375       0.66112773 </v>
   <v>       0.35465135       0.00000000       0.34852984 </v>
   <v>       0.34119877       0.00000000       0.84499101 </v>
   <v>       0.34313270       0.33448234       0.34143791 </v>
   <v>       0.34203718       0.33403620       0.84303281 </v>
   <v>       0.34313270       0.66551766       0.34143791 </v>
   <v>       0.34203718       0.66596380       0.84303281 </v>
   <v>       0.06389199       0.00000000       0.42122382 </v>
   <v>       0.08799610       0.00000000       0.89436763 </v>
   <v>       0.09141285       0.33328592       0.39660562 </v>
   <v>       0.08863309       0.33419736       0.89438527 </v>
   <v>       0.09141285       0.66671408       0.39660562 </v>
   <v>       0.08863309       0.66580264       0.89438527 </v>
   <v>       0.41348280       0.16798758       0.10092919 </v>
   <v>       0.41063206       0.16828828       0.60548373 </v>
   <v>       0.40960158       0.50000000       0.10141923 </v>
   <v>       0.40994575       0.50000000       0.60146813 </v>
   <v>       0.41348280       0.83201242       0.10092919 </v>
   <v>       0.41063206       0.83171172       0.60548373 </v>
   <v>       0.99468742       0.16919867       0.12170716 </v>
   <v>       0.99481279       0.16676269       0.62858600 </v>
   <v>       0.99514727       0.50000000       0.12603802 </v>
   <v>       0.99594886       0.50000000       0.62559763 </v>
   <v>       0.99468742       0.83080133       0.12170716 </v>
   <v>       0.99481279       0.83323731       0.62858600 </v>
   <v>       0.51032488       0.00000000       0.37200892 </v>
   <v>       0.50390797       0.00000000       0.87282850 </v>
   <v>       0.50633408       0.33490173       0.37215352 </v>
   <v>       0.50433108       0.33369816       0.87275351 </v>
   <v>       0.50633408       0.66509827       0.37215352 </v>
   <v>       0.50433108       0.66630184       0.87275351 </v>
   <v>       0.67151736       0.16666869       0.27909513 </v>
   <v>       0.67195677       0.16659814       0.78048427 </v>
   <v>       0.67278773       0.50000000       0.27825494 </v>
   <v>       0.67255136       0.50000000       0.77981382 </v>
   <v>       0.67151736       0.83333131       0.27909513 </v>
   <v>       0.67195677       0.83340186       0.78048427 </v>
   <v>       0.82814946       0.00000000       0.22070152 </v>
   <v>       0.82622824       0.00000000       0.72148453 </v>
   <v>       0.82684801       0.33439593       0.21953477 </v>
   <v>       0.82730780       0.33309749       0.71955135 </v>
   <v>       0.82684801       0.66560407       0.21953477 </v>
   <v>       0.82730780       0.66690251       0.71955135 </v>
   <v>       0.83301981       0.00000000       0.44699996 </v>
   <v>       0.83162708       0.00000000       0.94652248 </v>
   <v>       0.82424664       0.33626427       0.44656121 </v>
   <v>       0.83002330       0.33430477       0.94470750 </v>
   <v>       0.82424664       0.66373573       0.44656121 </v>
   <v>       0.83002330       0.66569523       0.94470750 </v>
   <v>       0.66936262       0.16708235       0.05381880 </v>
   <v>       0.66879483       0.16611661       0.55541623 </v>
   <v>       0.67119035       0.50000000       0.05234982 </v>
   <v>       0.66815969       0.50000000       0.55503852 </v>
   <v>       0.66936262       0.83291765       0.05381880 </v>
   <v>       0.66879483       0.83388339       0.55541623 </v>
   <v>       0.49894328       0.00000000       0.12582628 </v>
   <v>       0.49634334       0.00000000       0.62784167 </v>
   <v>       0.49920893       0.33558519       0.12465565 </v>
   <v>       0.49804500       0.33439630       0.62966749 </v>
   <v>       0.49920893       0.66441481       0.12465565 </v>
   <v>       0.49804500       0.66560370       0.62966749 </v>
   <v>      -0.00639055       0.17695262       0.38135793 </v>
   <v>       0.00203829       0.16736338       0.87191482 </v>
   <v>       0.00305074       0.50000000       0.37371470 </v>
   <v>       0.00158990       0.50000000       0.87073301 </v>
   <v>      -0.00639055       0.82304738       0.38135793 </v>
   <v>       0.00203829       0.83263662       0.87191482 </v>
   <v>       0.17365580       0.00000000       0.78330575 </v>
   <v>       0.17323186       0.33805271       0.28040266 </v>
   <v>       0.17237169       0.33428067       0.77995023 </v>
   <v>       0.17323186       0.66194729       0.28040266 </v>
   <v>       0.17237169       0.66571933       0.77995023 </v>
   <v>       0.33276839       0.17448015       0.21666978 </v>
   <v>       0.32778150       0.16706341       0.72063206 </v>
   <v>       0.32810153       0.50000000       0.21772843 </v>
   <v>       0.32724168       0.50000000       0.71819616 </v>
   <v>       0.33276839       0.82551985       0.21666978 </v>
   <v>       0.32778150       0.83293659       0.72063206 </v>
   <v>       0.34119091       0.17098175       0.44756866 </v>
   <v>       0.33413305       0.16813677       0.94557312 </v>
   <v>       0.33451748       0.50000000       0.44497515 </v>
   <v>       0.33255033       0.50000000       0.94481509 </v>
   <v>       0.34119091       0.82901825       0.44756866 </v>
   <v>       0.33413305       0.83186323       0.94557312 </v>
   <v>       0.17310360       0.00000000       0.04625006 </v>
   <v>       0.16437827       0.00000000       0.56391210 </v>
   <v>       0.16747631       0.33792373       0.05036416 </v>
   <v>       0.16812183       0.33169692       0.55376465 </v>
   <v>       0.16747631       0.66207627       0.05036416 </v>
   <v>       0.16812183       0.66830308       0.55376465 </v>
   <v>       0.16541565       0.00000000       0.29077534 </v>
  </varray>
 </structure>
</modeling>
