 running    4 mpi-ranks, on    1 nodes
 distrk:  each k-point on    1 cores,    4 groups
 distr:  one band on    1 cores,    1 groups
 OpenACC runtime initialized ...    4 GPUs detected
 vasp.6.4.2 20Jul23 (build Nov 12 2023 22:16:35) complex                         
 POSCAR found type information on POSCAR O 
 POSCAR found :  1 types and       2 ions
 -----------------------------------------------------------------------------
|                                                                             |
|           W    W    AA    RRRRR   N    N  II  N    N   GGGG   !!!           |
|           W    W   A  A   R    R  NN   N  II  NN   N  G    G  !!!           |
|           W    W  A    A  R    R  N N  N  II  N N  N  G       !!!           |
|           W WW W  AAAAAA  RRRRR   N  N N  II  N  N N  G  GGG   !            |
|           WW  WW  A    A  R   R   N   NN  II  N   NN  G    G                |
|           W    W  A    A  R    R  N    N  II  N    N   GGGG   !!!           |
|                                                                             |
|     You use a magnetic or noncollinear calculation, but did not specify     |
|     the initial magnetic moment with the MAGMOM tag. Note that a            |
|     default of 1 will be used for all atoms. This ferromagnetic setup       |
|     may break the symmetry of the crystal, in particular it may rule        |
|     out finding an antiferromagnetic solution. Thence, we recommend         |
|     setting the initial magnetic moment manually or verifying carefully     |
|     that this magnetic setup is desired.                                    |
|                                                                             |
 -----------------------------------------------------------------------------

 scaLAPACK will be used selectively (only on CPU)
 WARNING: type information on POSCAR and POTCAR are incompatible
 POTCAR overwrites the type information in POSCAR
 typ   1 type information:  O  N 
 -----------------------------------------------------------------------------
|                                                                             |
|               ----> ADVICE to this user running VASP <----                  |
|                                                                             |
|     You have a (more or less) 'small supercell' and for smaller cells       |
|     it is recommended to use the reciprocal-space projection scheme!        |
|     The real-space optimization is not efficient for small cells and it     |
|     is also less accurate ...                                               |
|     Therefore, set LREAL=.FALSE. in the INCAR file.                         |
|                                                                             |
 -----------------------------------------------------------------------------

 LDA part: xc-table for Pade appr. of Perdew
 POSCAR, INCAR and KPOINTS ok, starting setup
 FFT: planning ... GRIDC
 FFT: planning ... GRID_SOFT
 FFT: planning ... GRID
 WAVECAR not read
 initial charge from wavefunction
 entering main loop
       N       E                     dE             d eps       ncg     rms          ort
DAV:   1    -0.517126107139E+03   -0.51713E+03   -0.95267E+03    80   0.622E+02
DAV:   2    -0.615543379775E+03   -0.98417E+02   -0.98104E+02    80   0.330E+02
DAV:   3    -0.618675862530E+03   -0.31325E+01   -0.31283E+01    80   0.718E+01
DAV:   4    -0.618784719188E+03   -0.10886E+00   -0.10885E+00    80   0.131E+01
DAV:   5    -0.557420742452E+03    0.61364E+02   -0.45505E+00    80   0.227E+01
 gam= 0.000 g(H,U,f)=  0.416E+03 0.130E+03 0.504-164 ort(H,U,f) = 0.000E+00 0.000E+00 0.000E+00
SDA:   6     0.107126387939E+03    0.66455E+03   -0.45505E+00    80   0.546E+03 0.000E+00
 gam= 0.000 trial= 0.400  step= 0.419 mean= 0.400
 gam= 0.066 g(H,U,f)=  0.288E+02 0.709E+01 0.000E+00 ort(H,U,f) =-0.730E+02 0.194E+02 0.000E+00
CGA:   7    -0.621966811754E+01   -0.11335E+03   -0.11435E+03    80   0.359E+02-0.536E+02
 gam= 0.066 trial= 0.401  step= 0.538 mean= 0.401
 gam= 0.301 g(H,U,f)=  0.807E+01 0.273E+01 0.206E-92 ort(H,U,f) =-0.505E+00 0.476E+01 0.292E-92
CGA:   8    -0.151977183935E+02   -0.89781E+01   -0.87083E+01    80   0.108E+02 0.425E+01
 gam= 0.301 trial= 0.408  step= 0.443 mean= 0.408
 gam= 0.417 g(H,U,f)=  0.286E+01 0.164E+01 0.327E-31 ort(H,U,f) =-0.864E+00 0.339E+01 0.619E-31
CGA:   9    -0.179049703382E+02   -0.27073E+01   -0.26764E+01    80   0.450E+01 0.253E+01
 gam= 0.417 trial= 0.410  step= 0.559 mean= 0.410
 gam= 0.000 g(H,U,f)=  0.127E+01 0.108E+01 0.256E-70 ort(H,U,f) =-0.724E+00 0.302E+01 0.770E-70
CGA:  10    -0.196177540900E+02   -0.17128E+01   -0.15541E+01    80   0.235E+01 0.229E+01
 gam= 0.000 trial= 0.417  step= 0.613 mean= 0.417
 gam= 0.970 g(H,U,f)=  0.145E+01 0.826E+00 0.202E-49 ort(H,U,f) =-0.921E+00 0.109E+01 0.271E-49
CGA:  11    -0.203398012431E+02   -0.72205E+00   -0.71933E+00    80   0.228E+01 0.167E+00
 gam= 0.970 trial= 0.427  step= 1.001 mean= 0.427
 gam= 0.936 g(H,U,f)=  0.209E+01 0.462E-01 0.131E-21 ort(H,U,f) =-0.104E+01 0.721E+00 0.401E-20
CGA:  12    -0.216236267330E+02   -0.12838E+01   -0.12210E+01    80   0.213E+01-0.323E+00
 gam= 0.936 trial= 0.456  step= 0.200 mean= 0.456
 gam= 0.487 g(H,U,f)=  0.102E+01 0.210E-01 0.230E-16 ort(H,U,f) = 0.673E+00-0.521E+00-0.498E-15
CGA:  13    -0.218323898277E+02   -0.20876E+00   -0.18297E+00    80   0.104E+01 0.152E+00
 gam= 0.487 trial= 0.443  step= 0.173 mean= 0.443
 gam= 0.369 g(H,U,f)=  0.299E+00 0.837E-01 0.242E-66 ort(H,U,f) = 0.571E+00-0.532E+00-0.140E-65
CGA:  14    -0.219213403417E+02   -0.88951E-01   -0.96098E-01    80   0.383E+00 0.394E-01
 gam= 0.369 trial= 0.429  step= 0.217 mean= 0.429
 gam= 0.630 g(H,U,f)=  0.134E+00 0.108E+00 0.135E-85 ort(H,U,f) = 0.143E+00-0.132E+00-0.141E-85
CGA:  15    -0.219629242196E+02   -0.41584E-01   -0.43136E-01    80   0.241E+00 0.108E-01
 gam= 0.630 trial= 0.419  step= 0.266 mean= 0.419
 gam= 0.784 g(H,U,f)=  0.869E-01 0.102E+00 0.159E-46 ort(H,U,f) =-0.138E-01 0.232E-01 0.571E-47
CGA:  16    -0.219954485063E+02   -0.32524E-01   -0.32983E-01    80   0.189E+00 0.934E-02
 gam= 0.784 trial= 0.411  step= 0.279 mean= 0.411
 gam= 0.902 g(H,U,f)=  0.945E-01 0.761E-01 0.114E-15 ort(H,U,f) =-0.939E-01 0.103E+00 0.176E-15
CGA:  17    -0.220226010293E+02   -0.27153E-01   -0.27398E-01    80   0.171E+00 0.874E-02
 gam= 0.902 trial= 0.404  step= 0.322 mean= 0.404
 gam= 1.124 g(H,U,f)=  0.153E+00 0.392E-01 0.715E-65 ort(H,U,f) =-0.109E+00 0.117E+00 0.259E-64
CGA:  18    -0.220511181249E+02   -0.28517E-01   -0.28753E-01    80   0.192E+00 0.798E-02
 gam= 1.124 trial= 0.400  step= 0.313 mean= 0.400
 gam= 0.914 g(H,U,f)=  0.166E+00 0.948E-02 0.408E-40 ort(H,U,f) =-0.688E-01 0.709E-01 0.594E-39
CGA:  19    -0.220824499427E+02   -0.31332E-01   -0.31429E-01    80   0.175E+00 0.208E-02
 gam= 0.914 trial= 0.396  step= 0.247 mean= 0.396
 gam= 0.655 g(H,U,f)=  0.112E+00 0.320E-02 0.293E-17 ort(H,U,f) = 0.828E-02-0.720E-02-0.122E-15
CGA:  20    -0.221042508443E+02   -0.21801E-01   -0.21844E-01    80   0.115E+00 0.109E-02
 gam= 0.655 trial= 0.388  step= 0.217 mean= 0.388
 gam= 0.607 g(H,U,f)=  0.630E-01 0.662E-02 0.131E-13 ort(H,U,f) = 0.348E-01-0.314E-01-0.115E-12
CGA:  21    -0.221164543232E+02   -0.12203E-01   -0.12508E-01    80   0.696E-01 0.340E-02
 gam= 0.607 trial= 0.380  step= 0.224 mean= 0.380
 gam= 0.667 g(H,U,f)=  0.364E-01 0.100E-01 0.218E-14 ort(H,U,f) = 0.232E-01-0.204E-01-0.723E-14
CGA:  22    -0.221242442674E+02   -0.77899E-02   -0.80133E-02    80   0.464E-01 0.282E-02
 gam= 0.667 trial= 0.372  step= 0.242 mean= 0.372
 gam= 0.731 g(H,U,f)=  0.228E-01 0.111E-01 0.102E-29 ort(H,U,f) = 0.745E-02-0.562E-02-0.114E-29
CGA:  23    -0.221299685384E+02   -0.57243E-02   -0.58460E-02    80   0.339E-01 0.184E-02
 gam= 0.731 trial= 0.366  step= 0.264 mean= 0.366
 gam= 0.787 g(H,U,f)=  0.170E-01 0.975E-02 0.303E-16 ort(H,U,f) =-0.431E-02 0.531E-02 0.563E-17
CGA:  24    -0.221345717492E+02   -0.46032E-02   -0.46527E-02    80   0.267E-01 0.992E-03
 gam= 0.787 trial= 0.360  step= 0.281 mean= 0.360
 gam= 0.856 g(H,U,f)=  0.160E-01 0.690E-02 0.324E-32 ort(H,U,f) =-0.101E-01 0.106E-01 0.411E-32
CGA:  25    -0.221384226522E+02   -0.38509E-02   -0.38659E-02    80   0.229E-01 0.467E-03
 gam= 0.856 trial= 0.357  step= 0.299 mean= 0.357
 gam= 0.894 g(H,U,f)=  0.167E-01 0.377E-02 0.282E-17 ort(H,U,f) =-0.103E-01 0.106E-01 0.744E-17
CGA:  26    -0.221418984059E+02   -0.34758E-02   -0.34822E-02    80   0.204E-01 0.278E-03
 gam= 0.894 trial= 0.354  step= 0.297 mean= 0.354
 gam= 0.813 g(H,U,f)=  0.151E-01 0.154E-02 0.467E-31 ort(H,U,f) =-0.661E-02 0.681E-02 0.248E-30
CGA:  27    -0.221449653406E+02   -0.30669E-02   -0.30723E-02    80   0.166E-01 0.197E-03
 gam= 0.813 trial= 0.351  step= 0.283 mean= 0.351
 gam= 0.760 g(H,U,f)=  0.120E-01 0.632E-03 0.170E-65 ort(H,U,f) =-0.163E-02 0.182E-02 0.238E-64
CGA:  28    -0.221473365067E+02   -0.23712E-02   -0.23761E-02    80   0.126E-01 0.196E-03
 gam= 0.760 trial= 0.347  step= 0.267 mean= 0.347
 gam= 0.749 g(H,U,f)=  0.887E-02 0.603E-03 0.523E-33 ort(H,U,f) = 0.148E-02-0.122E-02-0.153E-31
CGA:  29    -0.221490378080E+02   -0.17013E-02   -0.17090E-02    80   0.947E-02 0.264E-03
 gam= 0.749 trial= 0.343  step= 0.254 mean= 0.343
 gam= 0.691 g(H,U,f)=  0.566E-02 0.884E-03 0.465E-58 ort(H,U,f) = 0.225E-02-0.196E-02-0.278E-57
CGA:  30    -0.221502527686E+02   -0.12150E-02   -0.12262E-02    80   0.655E-02 0.292E-03
 gam= 0.691 trial= 0.339  step= 0.268 mean= 0.339
 gam= 0.704 g(H,U,f)=  0.351E-02 0.110E-02 0.148E-37 ort(H,U,f) = 0.137E-02-0.112E-02-0.334E-37
CGA:  31    -0.221511474243E+02   -0.89466E-03   -0.90304E-03    80   0.461E-02 0.249E-03
 gam= 0.704 trial= 0.335  step= 0.283 mean= 0.335
 gam= 0.732 g(H,U,f)=  0.227E-02 0.110E-02 0.221E-14 ort(H,U,f) = 0.140E-03 0.349E-04-0.123E-14
CGA:  32    -0.221518199184E+02   -0.67249E-03   -0.67710E-03    80   0.337E-02 0.175E-03
 gam= 0.732 trial= 0.333  step= 0.305 mean= 0.333
 gam= 0.797 g(H,U,f)=  0.179E-02 0.894E-03 0.189E-25 ort(H,U,f) =-0.734E-03 0.840E-03 0.123E-25
CGA:  33    -0.221523513117E+02   -0.53139E-03   -0.53293E-03    80   0.269E-02 0.106E-03
 gam= 0.797 trial= 0.331  step= 0.323 mean= 0.331
 gam= 0.900 g(H,U,f)=  0.184E-02 0.574E-03 0.172E-16 ort(H,U,f) =-0.104E-02 0.109E-02-0.900E-16
CGA:  34    -0.221527982220E+02   -0.44691E-03   -0.44714E-03    80   0.242E-02 0.536E-04
 gam= 0.900 trial= 0.331  step= 0.310 mean= 0.331
 gam= 0.891 g(H,U,f)=  0.187E-02 0.282E-03 0.253E-73 ort(H,U,f) =-0.855E-03 0.871E-03 0.112E-72
CGA:  35    -0.221531800454E+02   -0.38182E-03   -0.38196E-03    80   0.215E-02 0.164E-04
 gam= 0.891 trial= 0.330  step= 0.279 mean= 0.330
 gam= 0.813 g(H,U,f)=  0.162E-02 0.126E-03 0.154E-84 ort(H,U,f) =-0.343E-03 0.342E-03 0.175E-83
CGA:  36    -0.221534825808E+02   -0.30254E-03   -0.30235E-03    80   0.175E-02-0.209E-06
 gam= 0.813 trial= 0.327  step= 0.254 mean= 0.327
 gam= 0.751 g(H,U,f)=  0.122E-02 0.935E-04 0.647E-17 ort(H,U,f) = 0.111E-03-0.111E-03-0.830E-18
CGA:  37    -0.221537049839E+02   -0.22240E-03   -0.22223E-03    80   0.131E-02 0.105E-06
 gam= 0.751 trial= 0.324  step= 0.248 mean= 0.324
 gam= 0.722 g(H,U,f)=  0.831E-03 0.118E-03 0.168E-15 ort(H,U,f) = 0.275E-03-0.271E-03-0.173E-14
CGA:  38    -0.221538679681E+02   -0.16298E-03   -0.16305E-03    80   0.949E-03 0.384E-05
 gam= 0.722 trial= 0.320  step= 0.261 mean= 0.320
 gam= 0.732 g(H,U,f)=  0.547E-03 0.148E-03 0.241E-17 ort(H,U,f) = 0.210E-03-0.204E-03-0.927E-17
CGA:  39    -0.221539921260E+02   -0.12416E-03   -0.12429E-03    80   0.695E-03 0.598E-05
 gam= 0.732 trial= 0.317  step= 0.280 mean= 0.317
 gam= 0.770 g(H,U,f)=  0.379E-03 0.157E-03 0.829E-19 ort(H,U,f) = 0.620E-04-0.556E-04-0.123E-18
CGA:  40    -0.221540897866E+02   -0.97661E-04   -0.97760E-04    80   0.535E-03 0.640E-05
 gam= 0.770 trial= 0.315  step= 0.300 mean= 0.315
 gam= 0.000 g(H,U,f)=  0.324E-03 0.137E-03 0.108E-19 ort(H,U,f) =-0.660E-04 0.718E-04-0.143E-20
SDA:  41    -0.221541707465E+02   -0.80960E-04   -0.81000E-04    80   0.461E-03 0.577E-05
 gam= 0.000 trial= 0.314  step= 1.057 mean= 0.314
 gam= 0.484 g(H,U,f)=  0.177E-03 0.464E-04 0.576E-18 ort(H,U,f) =-0.774E-04 0.792E-04 0.104E-17
CGA:  42    -0.221544148090E+02   -0.24406E-03   -0.24345E-03    80   0.223E-03 0.173E-05
 gam= 0.484 trial= 0.351  step= 0.778 mean= 0.351
 gam= 0.302 g(H,U,f)=  0.584E-04 0.904E-05 0.425E-17 ort(H,U,f) =-0.361E-04 0.369E-04 0.199E-16
CGA:  43    -0.221545020179E+02   -0.87209E-04   -0.87057E-04    80   0.674E-04 0.742E-06
 gam= 0.302 trial= 0.373  step= 0.819 mean= 0.373
 gam= 0.258 g(H,U,f)=  0.167E-04 0.765E-06 0.880E-18 ort(H,U,f) =-0.521E-05 0.549E-05 0.140E-16
CGA:  44    -0.221545297967E+02   -0.27779E-04   -0.27717E-04    80   0.174E-04 0.278E-06
 gam= 0.258 trial= 0.395  step= 0.711 mean= 0.395
 gam= 0.324 g(H,U,f)=  0.560E-05 0.390E-07 0.449E-18 ort(H,U,f) =-0.354E-06 0.322E-06-0.429E-17
CGA:  45    -0.221545360159E+02   -0.62192E-05   -0.62245E-05    80   0.564E-05-0.322E-07
 gam= 0.324 trial= 0.411  step= 0.786 mean= 0.411
 final diagonalization
   1 F= -.22154536E+02 E0= -.22154536E+02  d E =-.199357E-16  mag=    -0.0000
 writing wavefunctions
Warning: ieee_invalid is signaling
Warning: ieee_divide_by_zero is signaling
Warning: ieee_underflow is signaling
Warning: ieee_inexact is signaling
FORTRAN STOP
Warning: ieee_invalid is signaling
Warning: ieee_divide_by_zero is signaling
Warning: ieee_underflow is signaling
Warning: ieee_inexact is signaling
FORTRAN STOP
Warning: ieee_invalid is signaling
Warning: ieee_divide_by_zero is signaling
Warning: ieee_underflow is signaling
Warning: ieee_inexact is signaling
FORTRAN STOP
Warning: ieee_invalid is signaling
Warning: ieee_divide_by_zero is signaling
Warning: ieee_underflow is signaling
Warning: ieee_inexact is signaling
FORTRAN STOP
