       N       E                     dE             d eps       ncg     rms          ort
DAV:   1    -0.517126107139E+03   -0.51713E+03   -0.95267E+03    80   0.622E+02
DAV:   2    -0.615543379775E+03   -0.98417E+02   -0.98104E+02    80   0.330E+02
DAV:   3    -0.618675862530E+03   -0.31325E+01   -0.31283E+01    80   0.718E+01
DAV:   4    -0.618784719188E+03   -0.10886E+00   -0.10885E+00    80   0.131E+01
DAV:   5    -0.557420742452E+03    0.61364E+02   -0.45505E+00    80   0.227E+01
SDA:   6     0.107126387939E+03    0.66455E+03   -0.45505E+00    80   0.546E+03 0.000E+00
CGA:   7    -0.621966811754E+01   -0.11335E+03   -0.11435E+03    80   0.359E+02-0.536E+02
CGA:   8    -0.151977183935E+02   -0.89781E+01   -0.87083E+01    80   0.108E+02 0.425E+01
CGA:   9    -0.179049703382E+02   -0.27073E+01   -0.26764E+01    80   0.450E+01 0.253E+01
CGA:  10    -0.196177540900E+02   -0.17128E+01   -0.15541E+01    80   0.235E+01 0.229E+01
CGA:  11    -0.203398012431E+02   -0.72205E+00   -0.71933E+00    80   0.228E+01 0.167E+00
CGA:  12    -0.216236267330E+02   -0.12838E+01   -0.12210E+01    80   0.213E+01-0.323E+00
CGA:  13    -0.218323898277E+02   -0.20876E+00   -0.18297E+00    80   0.104E+01 0.152E+00
CGA:  14    -0.219213403417E+02   -0.88951E-01   -0.96098E-01    80   0.383E+00 0.394E-01
CGA:  15    -0.219629242196E+02   -0.41584E-01   -0.43136E-01    80   0.241E+00 0.108E-01
CGA:  16    -0.219954485063E+02   -0.32524E-01   -0.32983E-01    80   0.189E+00 0.934E-02
CGA:  17    -0.220226010293E+02   -0.27153E-01   -0.27398E-01    80   0.171E+00 0.874E-02
CGA:  18    -0.220511181249E+02   -0.28517E-01   -0.28753E-01    80   0.192E+00 0.798E-02
CGA:  19    -0.220824499427E+02   -0.31332E-01   -0.31429E-01    80   0.175E+00 0.208E-02
CGA:  20    -0.221042508443E+02   -0.21801E-01   -0.21844E-01    80   0.115E+00 0.109E-02
CGA:  21    -0.221164543232E+02   -0.12203E-01   -0.12508E-01    80   0.696E-01 0.340E-02
CGA:  22    -0.221242442674E+02   -0.77899E-02   -0.80133E-02    80   0.464E-01 0.282E-02
CGA:  23    -0.221299685384E+02   -0.57243E-02   -0.58460E-02    80   0.339E-01 0.184E-02
CGA:  24    -0.221345717492E+02   -0.46032E-02   -0.46527E-02    80   0.267E-01 0.992E-03
CGA:  25    -0.221384226522E+02   -0.38509E-02   -0.38659E-02    80   0.229E-01 0.467E-03
CGA:  26    -0.221418984059E+02   -0.34758E-02   -0.34822E-02    80   0.204E-01 0.278E-03
CGA:  27    -0.221449653406E+02   -0.30669E-02   -0.30723E-02    80   0.166E-01 0.197E-03
CGA:  28    -0.221473365067E+02   -0.23712E-02   -0.23761E-02    80   0.126E-01 0.196E-03
CGA:  29    -0.221490378080E+02   -0.17013E-02   -0.17090E-02    80   0.947E-02 0.264E-03
CGA:  30    -0.221502527686E+02   -0.12150E-02   -0.12262E-02    80   0.655E-02 0.292E-03
CGA:  31    -0.221511474243E+02   -0.89466E-03   -0.90304E-03    80   0.461E-02 0.249E-03
CGA:  32    -0.221518199184E+02   -0.67249E-03   -0.67710E-03    80   0.337E-02 0.175E-03
CGA:  33    -0.221523513117E+02   -0.53139E-03   -0.53293E-03    80   0.269E-02 0.106E-03
CGA:  34    -0.221527982220E+02   -0.44691E-03   -0.44714E-03    80   0.242E-02 0.536E-04
CGA:  35    -0.221531800454E+02   -0.38182E-03   -0.38196E-03    80   0.215E-02 0.164E-04
CGA:  36    -0.221534825808E+02   -0.30254E-03   -0.30235E-03    80   0.175E-02-0.209E-06
CGA:  37    -0.221537049839E+02   -0.22240E-03   -0.22223E-03    80   0.131E-02 0.105E-06
CGA:  38    -0.221538679681E+02   -0.16298E-03   -0.16305E-03    80   0.949E-03 0.384E-05
CGA:  39    -0.221539921260E+02   -0.12416E-03   -0.12429E-03    80   0.695E-03 0.598E-05
CGA:  40    -0.221540897866E+02   -0.97661E-04   -0.97760E-04    80   0.535E-03 0.640E-05
SDA:  41    -0.221541707465E+02   -0.80960E-04   -0.81000E-04    80   0.461E-03 0.577E-05
CGA:  42    -0.221544148090E+02   -0.24406E-03   -0.24345E-03    80   0.223E-03 0.173E-05
CGA:  43    -0.221545020179E+02   -0.87209E-04   -0.87057E-04    80   0.674E-04 0.742E-06
CGA:  44    -0.221545297967E+02   -0.27779E-04   -0.27717E-04    80   0.174E-04 0.278E-06
CGA:  45    -0.221545360159E+02   -0.62192E-05   -0.62245E-05    80   0.564E-05-0.322E-07
   1 F= -.22154536E+02 E0= -.22154536E+02  d E =-.199357E-16  mag=    -0.0000
