 running    4 mpi-ranks, on    1 nodes
 distrk:  each k-point on    1 cores,    4 groups
 distr:  one band on    1 cores,    1 groups
 OpenACC runtime initialized ...    4 GPUs detected
 vasp.6.4.2 20Jul23 (build Nov 12 2023 22:16:35) complex                         
 POSCAR found type information on POSCAR Ga
 POSCAR found :  1 types and       8 ions
 scaLAPACK will be used selectively (only on CPU)
 -----------------------------------------------------------------------------
|                                                                             |
|               ----> ADVICE to this user running VASP <----                  |
|                                                                             |
|     You have a (more or less) 'small supercell' and for smaller cells       |
|     it is recommended to use the reciprocal-space projection scheme!        |
|     The real-space optimization is not efficient for small cells and it     |
|     is also less accurate ...                                               |
|     Therefore, set LREAL=.FALSE. in the INCAR file.                         |
|                                                                             |
 -----------------------------------------------------------------------------

 LDA part: xc-table for Pade appr. of Perdew
 POSCAR, INCAR and KPOINTS ok, starting setup
 FFT: planning ... GRIDC
 FFT: planning ... GRID_SOFT
 FFT: planning ... GRID
 WAVECAR not read
 entering main loop
       N       E                     dE             d eps       ncg     rms          rms(c)
DAV:   1     0.929473337519E+03    0.92947E+03   -0.44612E+04  1020   0.297E+03
DAV:   2     0.131638672558E+03   -0.79783E+03   -0.78084E+03   992   0.682E+02
DAV:   3    -0.131383223564E+02   -0.14478E+03   -0.14121E+03  1140   0.200E+02
DAV:   4    -0.214074535014E+02   -0.82691E+01   -0.81294E+01  1100   0.503E+01
DAV:   5    -0.217136178524E+02   -0.30616E+00   -0.30197E+00  1208   0.104E+01    0.357E+00
RMM:   6    -0.215060840166E+02    0.20753E+00   -0.55979E-01  1109   0.542E+00    0.194E+00
RMM:   7    -0.214758832857E+02    0.30201E-01   -0.18705E-01  1144   0.269E+00    0.578E-01
RMM:   8    -0.214725960680E+02    0.32872E-02   -0.25672E-02  1239   0.112E+00    0.583E-02
RMM:   9    -0.214734693140E+02   -0.87325E-03   -0.76722E-03  1439   0.491E-01    0.484E-02
RMM:  10    -0.214736284894E+02   -0.15918E-03   -0.89952E-04  1261   0.189E-01    0.164E-02
RMM:  11    -0.214736479814E+02   -0.19492E-04   -0.34467E-04  1299   0.110E-01    0.372E-03
RMM:  12    -0.214736540752E+02   -0.60938E-05   -0.80778E-05   896   0.503E-02
   1 F= -.21473654E+02 E0= -.21456687E+02  d E =-.214737E+02
 curvature:   0.00 expect dE= 0.000E+00 dE for cont linesearch  0.000E+00
 trial: gam= 0.00000 g(F)=  0.169E+00 g(S)=  0.000E+00 ort = 0.000E+00 (trialstep = 0.100E+01)
 search vector abs. value=  0.169E+00
 bond charge predicted
       N       E                     dE             d eps       ncg     rms          rms(c)
DAV:   1    -0.215169796974E+02   -0.43332E-01   -0.31216E+01  1080   0.250E+01    0.425E-01
RMM:   2    -0.215819137348E+02   -0.64934E-01   -0.74863E-01  1161   0.658E+00    0.233E-01
RMM:   3    -0.216189185278E+02   -0.37005E-01   -0.39642E-01  1468   0.328E+00    0.134E-01
RMM:   4    -0.216228882202E+02   -0.39697E-02   -0.46739E-02  1435   0.117E+00    0.887E-02
RMM:   5    -0.216235989495E+02   -0.71073E-03   -0.93590E-03  1466   0.509E-01    0.475E-02
RMM:   6    -0.216236354290E+02   -0.36479E-04   -0.12543E-03  1412   0.200E-01    0.931E-03
RMM:   7    -0.216236571538E+02   -0.21725E-04   -0.24875E-04  1155   0.886E-02    0.643E-03
RMM:   8    -0.216236597428E+02   -0.25890E-05   -0.48192E-05   733   0.430E-02
   2 F= -.21623660E+02 E0= -.21614354E+02  d E =-.150006E+00
 trial-energy change:   -0.150006  1 .order   -0.141100   -0.169429   -0.112770
 step:   1.7507(harm=  2.9903)  dis= 0.05230  next Energy=   -21.669758 (dE=-0.196E+00)
 bond charge predicted
       N       E                     dE             d eps       ncg     rms          rms(c)
DAV:   1    -0.216206407233E+02    0.30164E-02   -0.17415E+01  1078   0.186E+01    0.181E-01
RMM:   2    -0.216585918157E+02   -0.37951E-01   -0.38670E-01  1194   0.451E+00    0.909E-02
RMM:   3    -0.216761396698E+02   -0.17548E-01   -0.17585E-01  1448   0.216E+00    0.764E-02
RMM:   4    -0.216779076329E+02   -0.17680E-02   -0.18958E-02  1489   0.708E-01    0.598E-02
RMM:   5    -0.216781428652E+02   -0.23523E-03   -0.29314E-03  1468   0.284E-01    0.451E-02
RMM:   6    -0.216781196591E+02    0.23206E-04   -0.47835E-04  1186   0.149E-01    0.128E-02
RMM:   7    -0.216781355328E+02   -0.15874E-04   -0.19746E-04  1031   0.728E-02    0.927E-03
RMM:   8    -0.216781322009E+02    0.33318E-05   -0.29170E-05   664   0.360E-02
   3 F= -.21678132E+02 E0= -.21664760E+02  d E =-.204478E+00
 curvature:  -0.92 expect dE=-0.974E-02 dE for cont linesearch -0.511E-02
 ZBRENT: extrapolating
 opt :   2.0323  next Energy=   -21.682464 (dE=-0.209E+00)
 bond charge predicted
       N       E                     dE             d eps       ncg     rms          rms(c)
DAV:   1    -0.216771897426E+02    0.94579E-03   -0.24553E+00  1112   0.688E+00    0.543E-02
RMM:   2    -0.216810513155E+02   -0.38616E-02   -0.38767E-02  1150   0.147E+00    0.308E-02
RMM:   3    -0.216831186850E+02   -0.20674E-02   -0.20606E-02  1429   0.747E-01    0.238E-02
RMM:   4    -0.216833180548E+02   -0.19937E-03   -0.20320E-03  1457   0.233E-01    0.213E-02
RMM:   5    -0.216833349367E+02   -0.16882E-04   -0.29249E-04  1229   0.950E-02    0.101E-02
RMM:   6    -0.216833384640E+02   -0.35273E-05   -0.47581E-05   739   0.437E-02
   4 F= -.21683338E+02 E0= -.21669748E+02  d E =-.209684E+00
 curvature:  -0.78 expect dE=-0.547E-02 dE for cont linesearch -0.541E-04
 ZBRENT: extrapolating
 opt :   2.0689  next Energy=   -21.683399 (dE=-0.210E+00)
 bond charge predicted
       N       E                     dE             d eps       ncg     rms          rms(c)
DAV:   1    -0.216833764534E+02   -0.41517E-04   -0.41987E-02  1096   0.897E-01    0.728E-03
RMM:   2    -0.216834383326E+02   -0.61879E-04   -0.62760E-04  1158   0.194E-01    0.438E-03
RMM:   3    -0.216834737298E+02   -0.35397E-04   -0.35379E-04  1124   0.100E-01    0.272E-03
RMM:   4    -0.216834783197E+02   -0.45899E-05   -0.49243E-05   733   0.480E-02
   5 F= -.21683478E+02 E0= -.21669851E+02  d E =-.209824E+00
 curvature:  -0.87 expect dE=-0.634E-02 dE for cont linesearch -0.305E-06
 trial: gam= 0.04144 g(F)=  0.727E-02 g(S)=  0.000E+00 ort = 0.243E-03 (trialstep = 0.121E+01)
 search vector abs. value=  0.758E-02
 bond charge predicted
       N       E                     dE             d eps       ncg     rms          rms(c)
DAV:   1    -0.216867877625E+02   -0.33140E-02   -0.19931E+00  1068   0.620E+00    0.487E-02
RMM:   2    -0.216896343110E+02   -0.28465E-02   -0.28726E-02  1157   0.131E+00    0.282E-02
RMM:   3    -0.216914205274E+02   -0.17862E-02   -0.17794E-02  1409   0.682E-01    0.230E-02
RMM:   4    -0.216915892071E+02   -0.16868E-03   -0.17319E-03  1437   0.219E-01    0.208E-02
RMM:   5    -0.216916021955E+02   -0.12988E-04   -0.25464E-04  1222   0.882E-02    0.138E-02
RMM:   6    -0.216916020081E+02    0.18737E-06   -0.40190E-05   733   0.427E-02
   6 F= -.21691602E+02 E0= -.21677847E+02  d E =-.812369E-02
 ZBRENT: can't locate minimum, use default step
 trial-energy change:   -0.008124  1 .order   -0.007806   -0.008830   -0.006781
 step:   4.8551(harm=  5.2299)  dis= 0.03240  next Energy=   -21.702502 (dE=-0.190E-01)
 bond charge predicted
       N       E                     dE             d eps       ncg     rms          rms(c)
DAV:   1    -0.216459152215E+02    0.45687E-01   -0.17889E+01  1044   0.189E+01    0.197E-01
RMM:   2    -0.216823379392E+02   -0.36423E-01   -0.37521E-01  1168   0.460E+00    0.996E-02
RMM:   3    -0.217034018567E+02   -0.21064E-01   -0.21114E-01  1416   0.235E+00    0.938E-02
RMM:   4    -0.217055964717E+02   -0.21946E-02   -0.24787E-02  1470   0.813E-01    0.639E-02
RMM:   5    -0.217059264438E+02   -0.32997E-03   -0.38220E-03  1463   0.322E-01    0.570E-02
RMM:   6    -0.217058545340E+02    0.71910E-04   -0.63695E-04  1156   0.176E-01    0.150E-02
RMM:   7    -0.217058822675E+02   -0.27733E-04   -0.24330E-04  1140   0.919E-02    0.157E-02
RMM:   8    -0.217058831965E+02   -0.92901E-06   -0.99155E-05   984   0.583E-02
   7 F= -.21705883E+02 E0= -.21692340E+02  d E =-.224049E-01
 curvature:  -2.70 expect dE=-0.683E-03 dE for cont linesearch -0.569E-03
 ZBRENT: extrapolating
 opt :   5.9199  next Energy=   -21.706556 (dE=-0.231E-01)
 bond charge predicted
       N       E                     dE             d eps       ncg     rms          rms(c)
DAV:   1    -0.217036001818E+02    0.22821E-02   -0.15401E+00  1148   0.545E+00    0.412E-02
RMM:   2    -0.217057123413E+02   -0.21122E-02   -0.21262E-02  1147   0.113E+00    0.248E-02
RMM:   3    -0.217070460020E+02   -0.13337E-02   -0.13281E-02  1429   0.593E-01    0.207E-02
RMM:   4    -0.217071728920E+02   -0.12689E-03   -0.13050E-03  1397   0.191E-01    0.188E-02
RMM:   5    -0.217071817530E+02   -0.88610E-05   -0.20155E-04  1143   0.784E-02    0.112E-02
RMM:   6    -0.217071820738E+02   -0.32085E-06   -0.28695E-05   631   0.375E-02
   8 F= -.21707182E+02 E0= -.21693929E+02  d E =-.237038E-01
 curvature:  -3.19 expect dE=-0.173E-03 dE for cont linesearch -0.125E-04
 ZBRENT: extrapolating
 opt :   6.0932  next Energy=   -21.707197 (dE=-0.237E-01)
 bond charge predicted
       N       E                     dE             d eps       ncg     rms          rms(c)
DAV:   1    -0.217071646026E+02    0.17150E-04   -0.41286E-02  1108   0.890E-01    0.813E-03
RMM:   2    -0.217072228418E+02   -0.58239E-04   -0.59828E-04  1179   0.188E-01    0.449E-03
RMM:   3    -0.217072543790E+02   -0.31537E-04   -0.31861E-04  1042   0.964E-02    0.296E-03
RMM:   4    -0.217072597640E+02   -0.53850E-05   -0.56542E-05   731   0.544E-02
   9 F= -.21707260E+02 E0= -.21694041E+02  d E =-.237814E-01
 curvature:  -3.69 expect dE=-0.176E-03 dE for cont linesearch -0.426E-05
 ZBRENT: bracketing found
 ZBRENT: interpolating
 opt :   6.0322  next Energy=   -21.707263 (dE=-0.238E-01)
 bond charge predicted
       N       E                     dE             d eps       ncg     rms          rms(c)
DAV:   1    -0.217072259267E+02    0.28452E-04   -0.47760E-03  1086   0.306E-01    0.264E-03
RMM:   2    -0.217072334205E+02   -0.74938E-05   -0.76066E-05   972   0.629E-02
  10 F= -.21707233E+02 E0= -.21694003E+02  d E =-.237551E-01
 curvature:  -2.47 expect dE=-0.349E-03 dE for cont linesearch -0.229E-03
 ZBRENT: interpolating
 opt :   6.0871  next Energy=   -21.707260 (dE=-0.238E-01)
 bond charge predicted
       N       E                     dE             d eps       ncg     rms          rms(c)
DAV:   1    -0.217072498077E+02   -0.23881E-04   -0.38917E-03  1120   0.276E-01    0.261E-03
RMM:   2    -0.217072553973E+02   -0.55896E-05   -0.57926E-05   908   0.587E-02
  11 F= -.21707255E+02 E0= -.21694037E+02  d E =-.237771E-01
 curvature:  -0.00 expect dE=-0.151E-06 dE for cont linesearch -0.286E-08
 ZBRENT: bisectioning
 opt :   6.0596  next Energy=   -21.707257 (dE=-0.238E-01)
 bond charge predicted
       N       E                     dE             d eps       ncg     rms          rms(c)
DAV:   1    -0.217072462751E+02    0.35326E-05   -0.93766E-04  1056   0.136E-01    0.173E-03
RMM:   2    -0.217072476798E+02   -0.14048E-05   -0.14811E-05   515   0.290E-02
  12 F= -.21707248E+02 E0= -.21694023E+02  d E =-.237694E-01
 curvature:  -1.84 expect dE=-0.204E-03 dE for cont linesearch -0.117E-03
 ZBRENT: interpolating
 opt :   6.0841  next Energy=   -21.707256 (dE=-0.238E-01)
 bond charge predicted
       N       E                     dE             d eps       ncg     rms          rms(c)
DAV:   1    -0.217072554360E+02   -0.91610E-05   -0.74219E-04  1016   0.120E-01    0.122E-03
RMM:   2    -0.217072570537E+02   -0.16176E-05   -0.16704E-05   521   0.285E-02
  13 F= -.21707257E+02 E0= -.21694038E+02  d E =-.237787E-01
 curvature:  -0.00 expect dE=-0.956E-07 dE for cont linesearch -0.190E-08
 ZBRENT: interpolating
 opt :   6.0856  next Energy=   -21.707255 (dE=-0.238E-01)
 bond charge predicted
       N       E                     dE             d eps       ncg     rms          rms(c)
DAV:   1    -0.217072575835E+02   -0.21475E-05   -0.86921E-06   564   0.240E-02    0.351E-04
RMM:   2    -0.217072580264E+02   -0.44288E-06   -0.44643E-06   471   0.165E-02
  14 F= -.21707258E+02 E0= -.21694040E+02  d E =-.237797E-01
 curvature:  -0.06 expect dE=-0.302E-05 dE for cont linesearch -0.135E-10
 trial: gam=-0.00949 g(F)=  0.480E-04 g(S)=  0.000E+00 ort = 0.127E-05 (trialstep = 0.219E+01)
 search vector abs. value=  0.486E-04
 bond charge predicted
       N       E                     dE             d eps       ncg     rms          rms(c)
DAV:   1    -0.217072472087E+02    0.10375E-04   -0.42476E-02  1042   0.903E-01    0.652E-03
RMM:   2    -0.217073086123E+02   -0.61404E-04   -0.62261E-04  1170   0.189E-01    0.413E-03
RMM:   3    -0.217073382464E+02   -0.29634E-04   -0.30052E-04  1110   0.949E-02    0.270E-03
RMM:   4    -0.217073426617E+02   -0.44153E-05   -0.46331E-05   689   0.475E-02
  15 F= -.21707343E+02 E0= -.21694121E+02  d E =-.846353E-04
 trial-energy change:   -0.000085  1 .order   -0.000004   -0.000105    0.000096
 step:   1.8412(harm=  1.1419)  dis= 0.00096  next Energy=   -21.707350 (dE=-0.919E-04)
 bond charge predicted
       N       E                     dE             d eps       ncg     rms          rms(c)
DAV:   1    -0.217072940111E+02    0.44235E-04   -0.96949E-04  1024   0.140E-01    0.153E-03
RMM:   2    -0.217072957275E+02   -0.17165E-05   -0.17353E-05   547   0.298E-02
  16 F= -.21707296E+02 E0= -.21694073E+02  d E =-.377011E-04
 curvature:  -0.32 expect dE=-0.839E-05 dE for cont linesearch -0.191E-05
 ZBRENT: interpolating
 opt :   1.9380  next Energy=   -21.707297 (dE=-0.385E-04)
 bond charge predicted
       N       E                     dE             d eps       ncg     rms          rms(c)
DAV:   1    -0.217073457483E+02   -0.51737E-04   -0.75865E-05  1024   0.408E-02    0.476E-04
RMM:   2    -0.217073459314E+02   -0.18316E-06   -0.19278E-06   493   0.861E-03
  17 F= -.21707346E+02 E0= -.21694123E+02  d E =-.879050E-04
 curvature:  -0.14 expect dE=-0.326E-05 dE for cont linesearch -0.454E-06
 ZBRENT: interpolating
 opt :   1.8967  next Energy=   -21.707346 (dE=-0.882E-04)
 bond charge predicted
       N       E                     dE             d eps       ncg     rms          rms(c)
DAV:   1    -0.217072962570E+02    0.49491E-04   -0.10767E-05   538   0.159E-02    0.246E-04
RMM:   2    -0.217072963963E+02   -0.13931E-06   -0.13858E-06   422   0.956E-03
  18 F= -.21707296E+02 E0= -.21694074E+02  d E =-.383698E-04
 curvature:  -0.08 expect dE=-0.176E-05 dE for cont linesearch -0.130E-06
 ZBRENT: interpolating
 opt :   1.9138  next Energy=   -21.707296 (dE=-0.384E-04)
 bond charge predicted
       N       E                     dE             d eps       ncg     rms          rms(c)
DAV:   1    -0.217072963834E+02   -0.12642E-06   -0.10549E-06   532   0.520E-03    0.178E-04
RMM:   2    -0.217072963927E+02   -0.92914E-08   -0.11529E-07   239   0.312E-03
  19 F= -.21707296E+02 E0= -.21694074E+02  d E =-.383663E-04
 curvature:  -0.05 expect dE=-0.102E-05 dE for cont linesearch -0.726E-07
 ZBRENT: interpolating
 opt :   1.9054  next Energy=   -21.707296 (dE=-0.384E-04)
 bond charge predicted
       N       E                     dE             d eps       ncg     rms          rms(c)
DAV:   1    -0.217072964274E+02   -0.44020E-07   -0.24054E-07   532   0.282E-03    0.900E-05
RMM:   2    -0.217072964278E+02   -0.41655E-09    0.24134-128    13   0.180E-03
  20 F= -.21707296E+02 E0= -.21694074E+02  d E =-.384014E-04
 curvature:  -0.02 expect dE=-0.482E-06 dE for cont linesearch -0.204E-09
 trial: gam= 0.33593 g(F)=  0.205E-04 g(S)=  0.000E+00 ort = 0.649E-06 (trialstep = 0.213E+01)
 search vector abs. value=  0.264E-04
 bond charge predicted
       N       E                     dE             d eps       ncg     rms          rms(c)
DAV:   1    -0.217073226399E+02   -0.26213E-04   -0.21640E-02  1048   0.647E-01    0.450E-03
RMM:   2    -0.217073527492E+02   -0.30109E-04   -0.30632E-04  1138   0.130E-01    0.255E-03
RMM:   3    -0.217073665867E+02   -0.13837E-04   -0.13823E-04   936   0.660E-02    0.183E-03
RMM:   4    -0.217073689163E+02   -0.23297E-05   -0.23891E-05   638   0.388E-02
  21 F= -.21707369E+02 E0= -.21694172E+02  d E =-.724885E-04
 trial-energy change:   -0.000072  1 .order   -0.000004   -0.000044    0.000037
 step:   1.9620(harm=  1.1641)  dis= 0.00056  next Energy=   -21.707370 (dE=-0.739E-04)
 bond charge predicted
       N       E                     dE             d eps       ncg     rms          rms(c)
DAV:   1    -0.217073690134E+02   -0.24267E-05   -0.11428E-04   976   0.510E-02    0.104E-03
RMM:   2    -0.217073692094E+02   -0.19598E-06   -0.22086E-06   520   0.104E-02
  22 F= -.21707369E+02 E0= -.21694172E+02  d E =-.727815E-04
 curvature:  -0.24 expect dE=-0.562E-05 dE for cont linesearch -0.103E-05
 ZBRENT: interpolating
 opt :   2.0272  next Energy=   -21.707370 (dE=-0.731E-04)
 bond charge predicted
       N       E                     dE             d eps       ncg     rms          rms(c)
DAV:   1    -0.217073692974E+02   -0.28400E-06   -0.15061E-05   622   0.190E-02    0.255E-04
RMM:   2    -0.217073695025E+02   -0.20507E-06   -0.21178E-06   465   0.118E-02
  23 F= -.21707370E+02 E0= -.21694173E+02  d E =-.730746E-04
 curvature:  -0.08 expect dE=-0.170E-05 dE for cont linesearch -0.129E-06
 ZBRENT: interpolating
 opt :   2.0025  next Energy=   -21.707370 (dE=-0.732E-04)
 bond charge predicted
       N       E                     dE             d eps       ncg     rms          rms(c)
DAV:   1    -0.217073694637E+02   -0.16636E-06   -0.10027E-06   532   0.533E-03    0.181E-04
RMM:   2    -0.217073694784E+02   -0.14632E-07   -0.15336E-07   296   0.348E-03
  24 F= -.21707369E+02 E0= -.21694172E+02  d E =-.730506E-04
 curvature:  -0.05 expect dE=-0.111E-05 dE for cont linesearch -0.150E-06
 ZBRENT: interpolating
 opt :   2.0168  next Energy=   -21.707370 (dE=-0.731E-04)
 bond charge predicted
       N       E                     dE             d eps       ncg     rms          rms(c)
DAV:   1    -0.217073695438E+02   -0.80090E-07   -0.39170E-07   532   0.358E-03    0.966E-05
RMM:   2    -0.217073695439E+02   -0.11005E-09   -0.10496E-08    40   0.243E-03
  25 F= -.21707370E+02 E0= -.21694173E+02  d E =-.731161E-04
 curvature:  -0.01 expect dE=-0.219E-06 dE for cont linesearch -0.834E-09
 trial: gam= 0.45769 g(F)=  0.196E-04 g(S)=  0.000E+00 ort = 0.140E-05 (trialstep = 0.211E+01)
 search vector abs. value=  0.264E-04
 bond charge predicted
       N       E                     dE             d eps       ncg     rms          rms(c)
DAV:   1    -0.217073593309E+02    0.10213E-04   -0.21060E-02  1036   0.636E-01    0.467E-03
RMM:   2    -0.217073866255E+02   -0.27295E-04   -0.27488E-04  1153   0.127E-01    0.303E-03
RMM:   3    -0.217073999605E+02   -0.13335E-04   -0.13342E-04   915   0.650E-02    0.203E-03
RMM:   4    -0.217074021851E+02   -0.22246E-05   -0.23069E-05   640   0.380E-02
  26 F= -.21707402E+02 E0= -.21694237E+02  d E =-.326412E-04
 trial-energy change:   -0.000033  1 .order   -0.000010   -0.000043    0.000023
 step:   1.3684(harm=  1.3684)  dis= 0.00053  next Energy=   -21.707383 (dE=-0.138E-04)
 reached required accuracy - stopping structural energy minimisation
Warning: ieee_invalid is signaling
Warning: ieee_divide_by_zero is signaling
Warning: ieee_underflow is signaling
Warning: ieee_inexact is signaling
FORTRAN STOP
Warning: ieee_invalid is signaling
Warning: ieee_divide_by_zero is signaling
Warning: ieee_underflow is signaling
Warning: ieee_inexact is signaling
FORTRAN STOP
Warning: ieee_invalid is signaling
Warning: ieee_divide_by_zero is signaling
Warning: ieee_underflow is signaling
Warning: ieee_inexact is signaling
FORTRAN STOP
Warning: ieee_invalid is signaling
Warning: ieee_divide_by_zero is signaling
Warning: ieee_underflow is signaling
Warning: ieee_inexact is signaling
FORTRAN STOP
