 vasp.6.4.2 20Jul23 (build Nov 12 2023 22:16:35) complex                         
 executed on              LinuxNV date 2025.03.09  14:06:52
 running    4 mpi-ranks, on    1 nodes
 distrk:  each k-point on    1 cores,    4 groups
 distr:  one band on NCORE=   1 cores,    1 groups
 OpenACC runtime initialized ...    4 GPUs detected


--------------------------------------------------------------------------------------------------------


 INCAR:
   PREC = Normal
   ENCUT = 450
   IBRION = 2
   ISPIN = 1
   NSW = 300
   ISIF = 2
   EDIFF = 1E-5
   EDIFFG = -5E-3
   ALGO = Fast
   ISTART = 0
   ICHARG = 2
   ISMEAR = 1
   SIGMA = 0.2
   LWAVE = .F.
   LCHARG = .F.
   LREAL = Auto
   LPLANE = .TRUE.
   NPAR = 4
   KPAR = 4
   NCORE = 1

 POTCAR:    PAW_PBE Ga_d 06Jul2010                
 POTCAR:    PAW_PBE Ga_d 06Jul2010                
   SHA256 =  a60ddf36e14f00ea098d9e3914b3745f1b7105e68786148f49ae384e44b4226c Ga_d/POTCAR           
   COPYR  = (c) Copyright 06Jul2010 Georg Kresse                                                    
   COPYR  = This file is part of the software VASP. Any use, copying, and all other rights are regul
   COPYR  = If you do not have a valid VASP license, you may not use, copy or distribute this file. 
   VRHFIN =Ga: s2p1                                                                                 
   LEXCH  = PE                                                                                      
   EATOM  =  2148.8298 eV,  157.9345 Ry                                                             
                                                                                                    
   TITEL  = PAW_PBE Ga_d 06Jul2010                                                                  
   LULTRA =        F    use ultrasoft PP ?                                                          
   IUNSCR =        1    unscreen: 0-lin 1-nonlin 2-no                                               
   RPACOR =    1.700    partial core radius                                                         
   POMASS =   69.723; ZVAL   =   13.000    mass and valenz                                          
   RCORE  =    2.300    outmost cutoff radius                                                       
   RWIGS  =    2.300; RWIGS  =    1.217    wigner-seitz radius (au A)                               
   ENMAX  =  282.691; ENMIN  =  212.018 eV                                                          
   ICORE  =        3    local potential                                                             
   LCOR   =        T    correct aug charges                                                         
   LPAW   =        T    paw PP                                                                      
   EAUG   =  490.690                                                                                
   DEXC   =    0.000                                                                                
   RMAX   =    2.341    core radius for proj-oper                                                   
   RAUG   =    1.300    factor for augmentation sphere                                              
   RDEP   =    2.413    radius for radial grids                                                     
   RDEPT  =    1.856    core radius for aug-charge                                                  
                                                                                                    
   Atomic configuration                                                                             
    9 entries                                                                                       
     n  l   j            E        occ.                                                              
     1  0  0.50    -10228.7831   2.0000                                                             
     2  0  0.50     -1262.1604   2.0000                                                             
     2  1  1.50     -1098.6333   6.0000                                                             
     3  0  0.50      -148.1110   2.0000                                                             
     3  1  1.50       -98.8436   6.0000                                                             
     3  2  2.50       -19.1549  10.0000                                                             
     4  0  0.50        -8.9483   2.0000                                                             
     4  1  0.50        -2.5791   1.0000                                                             
     4  3  2.50        -2.7416   0.0000                                                             
   Description                                                                                      
     l       E           TYP  RCUT    TYP  RCUT                                                     
     2    -19.1549037     23  2.300                                                                 
     2     -5.4423304     23  2.300                                                                 
     0     -8.9483111     23  2.300                                                                 
     0     68.0291300     23  2.300                                                                 
     1     -2.5790802     23  2.100                                                                 
     1     81.6349560     23  2.300                                                                 
     3      6.8029130     23  2.300                                                                 
  local pseudopotential read in
  partial core-charges read in
  partial kinetic energy density read in
  atomic valenz-charges read in
  non local Contribution for L=            2  read in
    real space projection operators read in
  non local Contribution for L=            2  read in
    real space projection operators read in
  non local Contribution for L=            0  read in
    real space projection operators read in
  non local Contribution for L=            0  read in
    real space projection operators read in
  non local Contribution for L=            1  read in
    real space projection operators read in
  non local Contribution for L=            1  read in
    real space projection operators read in
    PAW grid and wavefunctions read in
 
   number of l-projection  operators is LMAX  =            6
   number of lm-projection operators is LMMAX =           18
 
 -----------------------------------------------------------------------------
|                                                                             |
|               ----> ADVICE to this user running VASP <----                  |
|                                                                             |
|     You have a (more or less) 'small supercell' and for smaller cells       |
|     it is recommended to use the reciprocal-space projection scheme!        |
|     The real-space optimization is not efficient for small cells and it     |
|     is also less accurate ...                                               |
|     Therefore, set LREAL=.FALSE. in the INCAR file.                         |
|                                                                             |
 -----------------------------------------------------------------------------

 Optimization of the real space projectors (new method)

 maximal supplied QI-value         = 16.25
 optimisation between [QCUT,QGAM] = [ 10.73, 21.61] = [ 32.22,130.83] Ry 
 Optimized for a Real-space Cutoff    1.42 Angstroem

   l    n(q)    QCUT    max X(q) W(low)/X(q) W(high)/X(q)  e(spline) 
   2      8    10.726     7.143    0.22E-03    0.16E-03    0.73E-07
   2      8    10.726     5.586    0.40E-03    0.26E-03    0.10E-06
   0      9    10.726    12.382    0.25E-04    0.21E-05    0.37E-07
   0      9    10.726     6.622    0.42E-04    0.48E-05    0.77E-07
   1      9    10.726     7.935    0.27E-03    0.13E-04    0.16E-06
   1      9    10.726     2.425    0.23E-03    0.15E-04    0.14E-06
  PAW_PBE Ga_d 06Jul2010                :
 energy of atom  1       EATOM=-2148.8298
 kinetic energy error for atom=    0.0038 (will be added to EATOM!!)
 
 
 POSCAR: Ga8
  positions in direct lattice
  No initial velocities read in
 exchange correlation table for  LEXCH =        8
   RHO(1)=    0.500       N(1)  =     2000
   RHO(2)=  100.500       N(2)  =     4000
 


--------------------------------------------------------------------------------------------------------


 ion  position               nearest neighbor table
   1  0.000  0.344  0.415-   3 2.49   8 2.68   8 2.68   2 2.69   2 2.69   7 2.75   7 2.75
   2  0.000  0.156  0.915-   4 2.49   7 2.68   7 2.68   1 2.69   1 2.69   8 2.75   8 2.75
   3  0.000  0.656  0.585-   1 2.49   6 2.68   6 2.68   4 2.69   4 2.69   5 2.75   5 2.75
   4  0.000  0.844  0.085-   2 2.49   5 2.68   5 2.68   3 2.69   3 2.69   6 2.75   6 2.75
   5  0.500  0.844  0.415-   7 2.49   4 2.68   4 2.68   6 2.69   6 2.69   3 2.75   3 2.75
   6  0.500  0.656  0.915-   8 2.49   3 2.68   3 2.68   5 2.69   5 2.69   4 2.75   4 2.75
   7  0.500  0.156  0.585-   5 2.49   2 2.68   2 2.68   8 2.69   8 2.69   1 2.75   1 2.75
   8  0.500  0.344  0.085-   6 2.49   1 2.68   1 2.68   7 2.69   7 2.69   2 2.75   2 2.75
 
  LATTYP: Found a simple orthorhombic cell.
 ALAT       =     4.4320466607
 B/A-ratio  =     1.0278554985
 C/A-ratio  =     1.7143284496
  
  Lattice vectors:
  
 A1 = (  -4.4320466607,   0.0000000000,  -0.0000000000)
 A2 = (   0.0000000000,   0.0000000000,   4.5555035300)
 A3 = (  -0.0000000000,   7.5979836803,   0.0000000000)


Analysis of symmetry for initial positions (statically):
=====================================================================
 Subroutine PRICEL returns following result:
 
  LATTYP: Found a base centered orthorhombic cell.
 ALAT       =     4.4320466607
 B/A-ratio  =     1.7143284496
 C/A-ratio  =     1.0278554985
  
  Lattice vectors:
  
 A1 = (   2.2160233304,  -3.7989918401,   0.0000000000)
 A2 = (   2.2160233304,   3.7989918401,   0.0000000000)
 A3 = (   0.0000000000,   0.0000000000,   4.5555035300)
 
   2 primitive cells build up your supercell.
 

 Routine SETGRP: Setting up the symmetry group for a 
 simple orthorhombic supercell.


 Subroutine GETGRP returns: Found  8 space group operations
 (whereof  4 operations were pure point group operations)
 out of a pool of  8 trial point group operations.


The static configuration has the point symmetry C_2h.
 The point group associated with its full space group is D_2h.


Analysis of symmetry for dynamics (positions and initial velocities):
=====================================================================
 Subroutine PRICEL returns following result:
 
  LATTYP: Found a base centered orthorhombic cell.
 ALAT       =     4.4320466607
 B/A-ratio  =     1.7143284496
 C/A-ratio  =     1.0278554985
  
  Lattice vectors:
  
 A1 = (   2.2160233304,  -3.7989918401,   0.0000000000)
 A2 = (   2.2160233304,   3.7989918401,   0.0000000000)
 A3 = (   0.0000000000,   0.0000000000,   4.5555035300)
 
   2 primitive cells build up your supercell.
 

 Routine SETGRP: Setting up the symmetry group for a 
 simple orthorhombic supercell.


 Subroutine GETGRP returns: Found  8 space group operations
 (whereof  4 operations were pure point group operations)
 out of a pool of  8 trial point group operations.


The dynamic configuration has the point symmetry C_2h.
 The point group associated with its full space group is D_2h.


 Subroutine INISYM returns: Found  8 space group operations
 (whereof  4 operations are pure point group operations),
 and found     2 'primitive' translations


----------------------------------------------------------------------------------------

                                     Primitive cell                                     

  volume of cell :      76.7024

  direct lattice vectors                    reciprocal lattice vectors
     2.216023330 -3.798991840  0.000000000     0.225629393 -0.131613865  0.000000000
     2.216023330  3.798991840  0.000000000     0.225629393  0.131613865 -0.000000000
     0.000000000  0.000000000  4.555503530    -0.000000000 -0.000000000  0.219514702

  length of vectors
     4.398078945  4.398078945  4.555503530     0.261210323  0.261210323  0.219514702

  position of ions in fractional coordinates (direct lattice)
     0.655695720  0.344304280  0.415401390
     0.844304280  0.155695720  0.915401390
     0.344304280  0.655695720  0.584598610
     0.155695720  0.844304280  0.084598610

  ion indices of the primitive-cell ions
   primitive index   ion index
                 1           1
                 2           2
                 3           3
                 4           4

----------------------------------------------------------------------------------------

 
 
 KPOINTS: Automatic mesh                          

Automatic generation of k-mesh.
 Grid dimensions read from file:
 generate k-points for:    2    2    2

 Generating k-lattice:

  Cartesian coordinates                     Fractional coordinates (reciprocal lattice)
     0.112814697  0.000000000 -0.000000000     0.500000000 -0.000000000  0.000000000
     0.000000000  0.065806933  0.000000000     0.000000000  0.500000000  0.000000000
    -0.000000000 -0.000000000  0.109757351     0.000000000 -0.000000000  0.500000000

  Length of vectors
     0.112814697  0.065806933  0.109757351

  Shift w.r.t. Gamma in fractional coordinates (k-lattice)
     0.000000000  0.000000000  0.000000000

 
 Subroutine IBZKPT returns following result:
 ===========================================
 
 Found      8 irreducible k-points:
 
 Following reciprocal coordinates:
            Coordinates               Weight
  0.000000  0.000000  0.000000      1.000000
  0.500000  0.000000  0.000000      1.000000
  0.000000  0.500000  0.000000      1.000000
  0.500000  0.500000  0.000000      1.000000
  0.000000  0.000000  0.500000      1.000000
  0.500000  0.000000  0.500000      1.000000
  0.000000  0.500000  0.500000      1.000000
  0.500000  0.500000  0.500000      1.000000
 
 Following cartesian coordinates:
            Coordinates               Weight
  0.000000  0.000000  0.000000      1.000000
  0.112815  0.000000  0.000000      1.000000
  0.000000  0.065807  0.000000      1.000000
  0.112815  0.065807  0.000000      1.000000
  0.000000  0.000000  0.109757      1.000000
  0.112815  0.000000  0.109757      1.000000
  0.000000  0.065807  0.109757      1.000000
  0.112815  0.065807  0.109757      1.000000
 


--------------------------------------------------------------------------------------------------------




 Dimension of arrays:
   k-points           NKPTS =      8   k-points in BZ     NKDIM =      8   number of bands    NBANDS=     62
   number of dos      NEDOS =    301   number of ions     NIONS =      8
   non local maximal  LDIM  =      6   non local SUM 2l+1 LMDIM =     18
   total plane-waves  NPLWV =  23040
   max r-space proj   IRMAX =   1860   max aug-charges    IRDMAX=   5891
   dimension x,y,z NGX =    24 NGY =   40 NGZ =   24
   dimension x,y,z NGXF=    48 NGYF=   80 NGZF=   48
   support grid    NGXF=    48 NGYF=   80 NGZF=   48
   ions per type =               8
   NGX,Y,Z   is equivalent  to a cutoff of   9.00,  8.75,  8.76 a.u.
   NGXF,Y,Z  is equivalent  to a cutoff of  18.00, 17.50, 17.52 a.u.

 SYSTEM =  unknown system                          
 POSCAR =  Ga8                                     

 Startparameter for this run:
   NWRITE =      2    write-flag & timer
   PREC   = normal    normal or accurate (medium, high low for compatibility)
   ISTART =      0    job   : 0-new  1-cont  2-samecut
   ICHARG =      2    charge: 1-file 2-atom 10-const
   ISPIN  =      1    spin polarized calculation?
   LNONCOLLINEAR =      F non collinear calculations
   LSORBIT =      F    spin-orbit coupling
   INIWAV =      1    electr: 0-lowe 1-rand  2-diag
   LASPH  =      F    aspherical Exc in radial PAW
 Electronic Relaxation 1
   ENCUT  =  450.0 eV  33.07 Ry    5.75 a.u.   7.67 13.14  7.88*2*pi/ulx,y,z
   ENINI  =  450.0     initial cutoff
   ENAUG  =  490.7 eV  augmentation charge cutoff
   NELM   =     60;   NELMIN=  2; NELMDL= -5     # of ELM steps 
   EDIFF  = 0.1E-04   stopping-criterion for ELM
   LREAL  =      T    real-space projection
   NLSPLINE    = F    spline interpolate recip. space projectors
   LCOMPAT=      F    compatible to vasp.4.4
   GGA_COMPAT  = T    GGA compatible to vasp.4.4-vasp.4.6
   LMAXPAW     = -100 max onsite density
   LMAXMIX     =    2 max onsite mixed and CHGCAR
   VOSKOWN=      0    Vosko Wilk Nusair interpolation
   ROPT   =   -0.00050
 Ionic relaxation
   EDIFFG = -.5E-02   stopping-criterion for IOM
   NSW    =    300    number of steps for IOM
   NBLOCK =      1;   KBLOCK =    300    inner block; outer block 
   IBRION =      2    ionic relax: 0-MD 1-quasi-New 2-CG
   NFREE  =      1    steps in history (QN), initial steepest desc. (CG)
   ISIF   =      2    stress and relaxation
   IWAVPR =     11    prediction:  0-non 1-charg 2-wave 3-comb
   ISYM   =      2    0-nonsym 1-usesym 2-fastsym
   LCORR  =      T    Harris-Foulkes like correction to forces

   POTIM  = 0.5000    time-step for ionic-motion
   TEIN   =    0.0    initial temperature
   TEBEG  =    0.0;   TEEND  =   0.0 temperature during run
   SMASS  =  -3.00    Nose mass-parameter (am)
   estimated Nose-frequenzy (Omega)   =  0.10E-29 period in steps = 0.13E+47 mass=  -0.449E-27a.u.
   SCALEE = 1.0000    scale energy and forces
   NPACO  =    256;   APACO  = 10.0  distance and # of slots for P.C.
   PSTRESS=    0.0 pullay stress

  Mass of Ions in am
   POMASS =  69.72
  Ionic Valenz
   ZVAL   =  13.00
  Atomic Wigner-Seitz radii
   RWIGS  =  -1.00
  virtual crystal weights 
   VCA    =   1.00
   NELECT =     104.0000    total number of electrons
   NUPDOWN=      -1.0000    fix difference up-down

 DOS related values:
   EMIN   =  10.00;   EMAX   =-10.00  energy-range for DOS
   EFERMI =   0.00;   METHOD = LEGACY      
   ISMEAR =     1;   SIGMA  =   0.20  broadening in eV -4-tet -1-fermi 0-gaus

 Electronic relaxation 2 (details)
   IALGO  =     68    algorithm
   LDIAG  =      T    sub-space diagonalisation (order eigenvalues)
   LSUBROT=      F    optimize rotation matrix (better conditioning)
   TURBO    =      0    0=normal 1=particle mesh
   IRESTART =      0    0=no restart 2=restart with 2 vectors
   NREBOOT  =      0    no. of reboots
   NMIN     =      0    reboot dimension
   EREF     =   0.00    reference energy to select bands
   IMIX   =      4    mixing-type and parameters
     AMIX     =   0.40;   BMIX     =  1.00
     AMIX_MAG =   1.60;   BMIX_MAG =  1.00
     AMIN     =   0.10
     WC   =   100.;   INIMIX=   1;  MIXPRE=   1;  MAXMIX= -45

 Intra band minimization:
   WEIMIN = 0.0010     energy-eigenvalue tresh-hold
   EBREAK =  0.40E-07  absolut break condition
   DEPER  =   0.30     relativ break condition  

   TIME   =   0.40     timestep for ELM

  volume/ion in A,a.u.               =      19.18       129.40
  Fermi-wavevector in a.u.,A,eV,Ry     =   1.438157  2.717722 28.140864  2.068295
  Thomas-Fermi vector in A             =   2.557155
 
 Write flags
   LWAVE        =      F    write WAVECAR
   LDOWNSAMPLE  =      F    k-point downsampling of WAVECAR
   LCHARG       =      F    write CHGCAR
   LVTOT        =      F    write LOCPOT, total local potential
   LVHAR        =      F    write LOCPOT, Hartree potential only
   LELF         =      F    write electronic localiz. function (ELF)
   LORBIT       =      0    0 simple, 1 ext, 2 COOP (PROOUT), +10 PAW based schemes


 Dipole corrections
   LMONO  =      F    monopole corrections only (constant potential shift)
   LDIPOL =      F    correct potential (dipole corrections)
   IDIPOL =      0    1-x, 2-y, 3-z, 4-all directions 
   EPSILON=  1.0000000 bulk dielectric constant

 Exchange correlation treatment:
   GGA     =    --    GGA type
   LEXCH   =     8    internal setting for exchange type
   LIBXC   =     F    Libxc                    
   VOSKOWN =     0    Vosko Wilk Nusair interpolation
   LHFCALC =     F    Hartree Fock is set to
   LHFONE  =     F    Hartree Fock one center treatment
   AEXX    =    0.0000 exact exchange contribution

 Linear response parameters
   LEPSILON=     F    determine dielectric tensor
   LRPA    =     F    only Hartree local field effects (RPA)
   LNABLA  =     F    use nabla operator in PAW spheres
   LVEL    =     F    velocity operator in full k-point grid
   CSHIFT  =0.1000    complex shift for real part using Kramers Kronig
   OMEGAMAX=  -1.0    maximum frequency
   DEG_THRESHOLD= 0.2000000E-02 threshold for treating states as degnerate
   RTIME   =   -0.100 relaxation time in fs
  (WPLASMAI=    0.000 imaginary part of plasma frequency in eV, 0.658/RTIME)
   DFIELD  = 0.0000000 0.0000000 0.0000000 field for delta impulse in time
 
  Optional k-point grid parameters
   LKPOINTS_OPT  =     F    use optional k-point grid
   KPOINTS_OPT_MODE=     1    mode for optional k-point grid
 
 Orbital magnetization related:
   ORBITALMAG=     F  switch on orbital magnetization
   LCHIMAG   =     F  perturbation theory with respect to B field
   DQ        =  0.001000  dq finite difference perturbation B field
   LLRAUG    =     F  two centre corrections for induced B field
   LBONE     =     F  B-component reconstruction in AE one-centre
   LVGVCALC  =     T  calculate vGv susceptibility
   LVGVAPPL  =     F  apply vGv susceptibility instead of pGv for G=0

 Random number generation:
   RANDOM_GENERATOR = DEFAULT
   PCG_SEED         = not used


--------------------------------------------------------------------------------------------------------


 conjugate gradient relaxation of ions
 charge density and potential will be updated during run
 non-spin polarized calculation
 RMM-DIIS sequential band-by-band and
  variant of blocked Davidson during initial phase
 perform sub-space diagonalisation
    before iterative eigenvector-optimisation
 modified Broyden-mixing scheme, WC =      100.0
 initial mixing is a Kerker type mixing with AMIX =  0.4000 and BMIX =      1.0000
 Hartree-type preconditioning will be used
 using additional bands            10
 real space projection scheme for non local part
 use partial core corrections
 calculate Harris-corrections to forces 
   (improved forces if not selfconsistent)
 use gradient corrections 
 use of overlap-Matrix (Vanderbilt PP)
 Methfessel and Paxton  Order N= 1 SIGMA  =   0.20


--------------------------------------------------------------------------------------------------------


  energy-cutoff  :      450.00
  volume of cell :      153.40
      direct lattice vectors                 reciprocal lattice vectors
     4.432046661  0.000000000  0.000000000     0.225629393  0.000000000 -0.000000000
    -0.000000000  7.597983680  0.000000000     0.000000000  0.131613865  0.000000000
     0.000000000  0.000000000  4.555503530    -0.000000000 -0.000000000  0.219514702

  length of vectors
     4.432046661  7.597983680  4.555503530     0.225629393  0.131613865  0.219514702


 
 k-points in units of 2pi/SCALE and weight: Automatic mesh                          
   0.00000000  0.00000000  0.00000000       0.125
   0.11281470  0.00000000  0.00000000       0.125
   0.00000000  0.06580693  0.00000000       0.125
   0.11281470  0.06580693  0.00000000       0.125
   0.00000000  0.00000000  0.10975735       0.125
   0.11281470  0.00000000  0.10975735       0.125
   0.00000000  0.06580693  0.10975735       0.125
   0.11281470  0.06580693  0.10975735       0.125
 
 k-points in reciprocal lattice and weights: Automatic mesh                          
   0.00000000  0.00000000  0.00000000       0.125
   0.50000000  0.00000000  0.00000000       0.125
   0.00000000  0.50000000  0.00000000       0.125
   0.50000000  0.50000000  0.00000000       0.125
   0.00000000  0.00000000  0.50000000       0.125
   0.50000000  0.00000000  0.50000000       0.125
   0.00000000  0.50000000  0.50000000       0.125
   0.50000000  0.50000000  0.50000000       0.125
 
 position of ions in fractional coordinates (direct lattice) 
   0.00000000  0.34430428  0.41540139
   0.00000000  0.15569572  0.91540139
   0.00000000  0.65569572  0.58459861
   0.00000000  0.84430428  0.08459861
   0.50000000  0.84430428  0.41540139
   0.50000000  0.65569572  0.91540139
   0.50000000  0.15569572  0.58459861
   0.50000000  0.34430428  0.08459861
 
 position of ions in cartesian coordinates  (Angst):
  -0.00000000  2.61601830  1.89236250
  -0.00000000  1.18297354  4.17011426
  -0.00000000  4.98196538  2.66314103
  -0.00000000  6.41501014  0.38538927
   2.21602333  6.41501014  1.89236250
   2.21602333  4.98196538  4.17011426
   2.21602333  1.18297354  2.66314103
   2.21602333  2.61601830  0.38538927
 


--------------------------------------------------------------------------------------------------------


 k-point   1 :   0.0000 0.0000 0.0000  plane waves:    3339
 k-point   2 :   0.5000 0.0000 0.0000  plane waves:    3348
 k-point   3 :   0.0000 0.5000 0.0000  plane waves:    3314
 k-point   4 :   0.5000 0.5000 0.0000  plane waves:    3320
 k-point   5 :   0.0000 0.0000 0.5000  plane waves:    3352
 k-point   6 :   0.5000 0.0000 0.5000  plane waves:    3308
 k-point   7 :   0.0000 0.5000 0.5000  plane waves:    3340
 k-point   8 :   0.5000 0.5000 0.5000  plane waves:    3304

 maximum and minimum number of plane-waves per node :      3352     3304

 maximum number of plane-waves:      3352
 maximum index in each direction: 
   IXMAX=    7   IYMAX=   13   IZMAX=    7
   IXMIN=   -8   IYMIN=  -13   IZMIN=   -8


 serial   3D FFT for wavefunctions
 parallel 3D FFT for charge:
    minimum data exchange during FFTs selected (reduces bandwidth)


 total amount of memory used by VASP MPI-rank0    76916. kBytes
=======================================================================

   base      :      30000. kBytes
   nonlr-proj:       2478. kBytes
   fftplans  :       6540. kBytes
   grid      :      10030. kBytes
   one-center:        124. kBytes
   wavefun   :      27744. kBytes
 
     INWAV:  cpu time      0.0000: real time      0.0001
 Broyden mixing: mesh for mixing (old mesh)
   NGX = 15   NGY = 27   NGZ = 15
  (NGX  = 48   NGY  = 80   NGZ  = 48)
  gives a total of   6075 points

 initial charge density was supplied:
 charge density of overlapping atoms calculated
 number of electron     104.0000000 magnetization 
 keeping initial charge density in first step


--------------------------------------------------------------------------------------------------------


 Maximum index for non-local projection operator          1761
 Maximum index for augmentation-charges          5530 (set IRDMAX)


--------------------------------------------------------------------------------------------------------


 First call to EWALD:  gamma=   0.331
 Maximum number of real-space cells 3x 2x 3
 Maximum number of reciprocal cells 2x 4x 2

    FEWALD:  cpu time      0.0012: real time      0.0012


--------------------------------------- Ionic step        1  -------------------------------------------




--------------------------------------- Iteration      1(   1)  ---------------------------------------


    POTLOK:  cpu time      0.0258: real time      0.0257
    SETDIJ:  cpu time      0.0120: real time      0.0120
     EDDAV:  cpu time      0.2153: real time      0.2153
       DOS:  cpu time      0.0007: real time      0.0007
    --------------------------------------------
      LOOP:  cpu time      0.2538: real time      0.2537

 eigenvalue-minimisations  :  1020
 total energy-change (2. order) : 0.9294733E+03  (-0.4461181E+04)
 number of electron     104.0000000 magnetization 
 augmentation part      104.0000000 magnetization 

 Free energy of the ion-electron system (eV)
  ---------------------------------------------------
  alpha Z        PSCENC =       563.37210189
  Ewald energy   TEWEN  =    -10128.03459849
  -Hartree energ DENC   =     -4621.05499607
  -exchange      EXHF   =         0.00000000
  -V(xc)+E(xc)   XCENC  =       352.92508859
  PAW double counting   =     12825.24579991   -15493.67008550
  entropy T*S    EENTRO =         0.00590914
  eigenvalues    EBANDS =       240.07616027
  atomic energy  EATOM  =     17190.60795778
  Solvation  Ediel_sol  =         0.00000000
  ---------------------------------------------------
  free energy    TOTEN  =       929.47333752 eV

  energy without entropy =      929.46742837  energy(sigma->0) =      929.47136780


--------------------------------------------------------------------------------------------------------




--------------------------------------- Iteration      1(   2)  ---------------------------------------


     EDDAV:  cpu time      0.1488: real time      0.1494
       DOS:  cpu time      0.0008: real time      0.0008
    --------------------------------------------
      LOOP:  cpu time      0.1496: real time      0.1503

 eigenvalue-minimisations  :   992
 total energy-change (2. order) :-0.7978347E+03  (-0.7808382E+03)
 number of electron     104.0000000 magnetization 
 augmentation part      104.0000000 magnetization 

 Free energy of the ion-electron system (eV)
  ---------------------------------------------------
  alpha Z        PSCENC =       563.37210189
  Ewald energy   TEWEN  =    -10128.03459849
  -Hartree energ DENC   =     -4621.05499607
  -exchange      EXHF   =         0.00000000
  -V(xc)+E(xc)   XCENC  =       352.92508859
  PAW double counting   =     12825.24579991   -15493.67008550
  entropy T*S    EENTRO =        -0.01462600
  eigenvalues    EBANDS =      -557.73796955
  atomic energy  EATOM  =     17190.60795778
  Solvation  Ediel_sol  =         0.00000000
  ---------------------------------------------------
  free energy    TOTEN  =       131.63867256 eV

  energy without entropy =      131.65329855  energy(sigma->0) =      131.64354789


--------------------------------------------------------------------------------------------------------




--------------------------------------- Iteration      1(   3)  ---------------------------------------


     EDDAV:  cpu time      0.1486: real time      0.1490
       DOS:  cpu time      0.0009: real time      0.0009
    --------------------------------------------
      LOOP:  cpu time      0.1495: real time      0.1499

 eigenvalue-minimisations  :  1140
 total energy-change (2. order) :-0.1447770E+03  (-0.1412148E+03)
 number of electron     104.0000000 magnetization 
 augmentation part      104.0000000 magnetization 

 Free energy of the ion-electron system (eV)
  ---------------------------------------------------
  alpha Z        PSCENC =       563.37210189
  Ewald energy   TEWEN  =    -10128.03459849
  -Hartree energ DENC   =     -4621.05499607
  -exchange      EXHF   =         0.00000000
  -V(xc)+E(xc)   XCENC  =       352.92508859
  PAW double counting   =     12825.24579991   -15493.67008550
  entropy T*S    EENTRO =        -0.02021842
  eigenvalues    EBANDS =      -702.50937205
  atomic energy  EATOM  =     17190.60795778
  Solvation  Ediel_sol  =         0.00000000
  ---------------------------------------------------
  free energy    TOTEN  =       -13.13832236 eV

  energy without entropy =      -13.11810394  energy(sigma->0) =      -13.13158288


--------------------------------------------------------------------------------------------------------




--------------------------------------- Iteration      1(   4)  ---------------------------------------


     EDDAV:  cpu time      0.1411: real time      0.1415
       DOS:  cpu time      0.0009: real time      0.0009
    --------------------------------------------
      LOOP:  cpu time      0.1420: real time      0.1424

 eigenvalue-minimisations  :  1100
 total energy-change (2. order) :-0.8269131E+01  (-0.8129442E+01)
 number of electron     104.0000000 magnetization 
 augmentation part      104.0000000 magnetization 

 Free energy of the ion-electron system (eV)
  ---------------------------------------------------
  alpha Z        PSCENC =       563.37210189
  Ewald energy   TEWEN  =    -10128.03459849
  -Hartree energ DENC   =     -4621.05499607
  -exchange      EXHF   =         0.00000000
  -V(xc)+E(xc)   XCENC  =       352.92508859
  PAW double counting   =     12825.24579991   -15493.67008550
  entropy T*S    EENTRO =        -0.03409426
  eigenvalues    EBANDS =      -710.76462735
  atomic energy  EATOM  =     17190.60795778
  Solvation  Ediel_sol  =         0.00000000
  ---------------------------------------------------
  free energy    TOTEN  =       -21.40745350 eV

  energy without entropy =      -21.37335924  energy(sigma->0) =      -21.39608875


--------------------------------------------------------------------------------------------------------




--------------------------------------- Iteration      1(   5)  ---------------------------------------


     EDDAV:  cpu time      0.1562: real time      0.1566
       DOS:  cpu time      0.0009: real time      0.0009
    CHARGE:  cpu time      0.0290: real time      0.0290
    MIXING:  cpu time      0.0032: real time      0.0032
    --------------------------------------------
      LOOP:  cpu time      0.1893: real time      0.1897

 eigenvalue-minimisations  :  1208
 total energy-change (2. order) :-0.3061644E+00  (-0.3019688E+00)
 number of electron     104.0000198 magnetization 
 augmentation part       66.9606002 magnetization 

 Broyden mixing:
  rms(total) = 0.35702E+00    rms(broyden)= 0.35701E+00
  rms(prec ) = 0.53558E+00
  weight for this iteration     100.00

 Free energy of the ion-electron system (eV)
  ---------------------------------------------------
  alpha Z        PSCENC =       563.37210189
  Ewald energy   TEWEN  =    -10128.03459849
  -Hartree energ DENC   =     -4621.05499607
  -exchange      EXHF   =         0.00000000
  -V(xc)+E(xc)   XCENC  =       352.92508859
  PAW double counting   =     12825.24579991   -15493.67008550
  entropy T*S    EENTRO =        -0.03469465
  eigenvalues    EBANDS =      -711.07019131
  atomic energy  EATOM  =     17190.60795778
  Solvation  Ediel_sol  =         0.00000000
  ---------------------------------------------------
  free energy    TOTEN  =       -21.71361785 eV

  energy without entropy =      -21.67892320  energy(sigma->0) =      -21.70205297


--------------------------------------------------------------------------------------------------------




--------------------------------------- Iteration      1(   6)  ---------------------------------------


    POTLOK:  cpu time      0.0042: real time      0.0046
    SETDIJ:  cpu time      0.0112: real time      0.0112
    EDDIAG:  cpu time      0.0176: real time      0.0176
  RMM-DIIS:  cpu time      0.2013: real time      0.2012
    ORTHCH:  cpu time      0.0012: real time      0.0012
       DOS:  cpu time      0.0009: real time      0.0009
    CHARGE:  cpu time      0.0293: real time      0.0293
    MIXING:  cpu time      0.0035: real time      0.0035
    --------------------------------------------
      LOOP:  cpu time      0.2693: real time      0.2696

 eigenvalue-minimisations  :  1109
 total energy-change (2. order) : 0.2075338E+00  (-0.5597909E-01)
 number of electron     104.0000198 magnetization 
 augmentation part       67.1294362 magnetization 

 Broyden mixing:
  rms(total) = 0.19430E+00    rms(broyden)= 0.19430E+00
  rms(prec ) = 0.28379E+00
  weight for this iteration     100.00

 eigenvalues of (default mixing * dielectric matrix)
  average eigenvalue GAMMA=   1.9284
  1.9284

 Free energy of the ion-electron system (eV)
  ---------------------------------------------------
  alpha Z        PSCENC =       563.37210189
  Ewald energy   TEWEN  =    -10128.03459849
  -Hartree energ DENC   =     -4591.89988100
  -exchange      EXHF   =         0.00000000
  -V(xc)+E(xc)   XCENC  =       351.59286643
  PAW double counting   =     13237.82846405   -15897.83779791
  entropy T*S    EENTRO =        -0.04822248
  eigenvalues    EBANDS =      -747.08697428
  atomic energy  EATOM  =     17190.60795778
  Solvation  Ediel_sol  =         0.00000000
  ---------------------------------------------------
  free energy    TOTEN  =       -21.50608402 eV

  energy without entropy =      -21.45786153  energy(sigma->0) =      -21.49000986


--------------------------------------------------------------------------------------------------------




--------------------------------------- Iteration      1(   7)  ---------------------------------------


    POTLOK:  cpu time      0.0041: real time      0.0045
    SETDIJ:  cpu time      0.0112: real time      0.0112
    EDDIAG:  cpu time      0.0176: real time      0.0176
  RMM-DIIS:  cpu time      0.1945: real time      0.1945
    ORTHCH:  cpu time      0.0012: real time      0.0012
       DOS:  cpu time      0.0009: real time      0.0009
    CHARGE:  cpu time      0.0290: real time      0.0290
    MIXING:  cpu time      0.0034: real time      0.0034
    --------------------------------------------
      LOOP:  cpu time      0.2620: real time      0.2623

 eigenvalue-minimisations  :  1144
 total energy-change (2. order) : 0.3020073E-01  (-0.1870476E-01)
 number of electron     104.0000198 magnetization 
 augmentation part       67.1944404 magnetization 

 Broyden mixing:
  rms(total) = 0.57775E-01    rms(broyden)= 0.57774E-01
  rms(prec ) = 0.85051E-01
  weight for this iteration     100.00

 eigenvalues of (default mixing * dielectric matrix)
  average eigenvalue GAMMA=   1.9559
  1.2785  2.6334

 Free energy of the ion-electron system (eV)
  ---------------------------------------------------
  alpha Z        PSCENC =       563.37210189
  Ewald energy   TEWEN  =    -10128.03459849
  -Hartree energ DENC   =     -4571.51370803
  -exchange      EXHF   =         0.00000000
  -V(xc)+E(xc)   XCENC  =       350.63795261
  PAW double counting   =     13744.36015758   -16408.64442989
  entropy T*S    EENTRO =        -0.05397568
  eigenvalues    EBANDS =      -762.20734105
  atomic energy  EATOM  =     17190.60795778
  Solvation  Ediel_sol  =         0.00000000
  ---------------------------------------------------
  free energy    TOTEN  =       -21.47588329 eV

  energy without entropy =      -21.42190761  energy(sigma->0) =      -21.45789139


--------------------------------------------------------------------------------------------------------




--------------------------------------- Iteration      1(   8)  ---------------------------------------


    POTLOK:  cpu time      0.0041: real time      0.0045
    SETDIJ:  cpu time      0.0112: real time      0.0112
    EDDIAG:  cpu time      0.0175: real time      0.0175
  RMM-DIIS:  cpu time      0.2195: real time      0.2194
    ORTHCH:  cpu time      0.0012: real time      0.0012
       DOS:  cpu time      0.0009: real time      0.0009
    CHARGE:  cpu time      0.0297: real time      0.0297
    MIXING:  cpu time      0.0050: real time      0.0050
    --------------------------------------------
      LOOP:  cpu time      0.2891: real time      0.2895

 eigenvalue-minimisations  :  1239
 total energy-change (2. order) : 0.3287218E-02  (-0.2567248E-02)
 number of electron     104.0000198 magnetization 
 augmentation part       67.1746039 magnetization 

 Broyden mixing:
  rms(total) = 0.58265E-02    rms(broyden)= 0.58264E-02
  rms(prec ) = 0.89890E-02
  weight for this iteration     100.00

 eigenvalues of (default mixing * dielectric matrix)
  average eigenvalue GAMMA=   1.6479
  2.5844  1.0449  1.3143

 Free energy of the ion-electron system (eV)
  ---------------------------------------------------
  alpha Z        PSCENC =       563.37210189
  Ewald energy   TEWEN  =    -10128.03459849
  -Hartree energ DENC   =     -4568.88959003
  -exchange      EXHF   =         0.00000000
  -V(xc)+E(xc)   XCENC  =       350.50069370
  PAW double counting   =     13934.64185743   -16605.66376394
  entropy T*S    EENTRO =        -0.05060813
  eigenvalues    EBANDS =      -757.95664629
  atomic energy  EATOM  =     17190.60795778
  Solvation  Ediel_sol  =         0.00000000
  ---------------------------------------------------
  free energy    TOTEN  =       -21.47259607 eV

  energy without entropy =      -21.42198794  energy(sigma->0) =      -21.45572669


--------------------------------------------------------------------------------------------------------




--------------------------------------- Iteration      1(   9)  ---------------------------------------


    POTLOK:  cpu time      0.0041: real time      0.0046
    SETDIJ:  cpu time      0.0114: real time      0.0114
    EDDIAG:  cpu time      0.0181: real time      0.0181
  RMM-DIIS:  cpu time      0.2523: real time      0.2523
    ORTHCH:  cpu time      0.0012: real time      0.0012
       DOS:  cpu time      0.0009: real time      0.0009
    CHARGE:  cpu time      0.0290: real time      0.0290
    MIXING:  cpu time      0.0039: real time      0.0039
    --------------------------------------------
      LOOP:  cpu time      0.3210: real time      0.3214

 eigenvalue-minimisations  :  1439
 total energy-change (2. order) :-0.8732460E-03  (-0.7672237E-03)
 number of electron     104.0000198 magnetization 
 augmentation part       67.1725397 magnetization 

 Broyden mixing:
  rms(total) = 0.48364E-02    rms(broyden)= 0.48363E-02
  rms(prec ) = 0.66330E-02
  weight for this iteration     100.00

 eigenvalues of (default mixing * dielectric matrix)
  average eigenvalue GAMMA=   1.8541
  2.5660  2.5660  0.9197  1.3649

 Free energy of the ion-electron system (eV)
  ---------------------------------------------------
  alpha Z        PSCENC =       563.37210189
  Ewald energy   TEWEN  =    -10128.03459849
  -Hartree energ DENC   =     -4568.90868475
  -exchange      EXHF   =         0.00000000
  -V(xc)+E(xc)   XCENC  =       350.49745859
  PAW double counting   =     13935.58584563   -16606.79938383
  entropy T*S    EENTRO =        -0.05072219
  eigenvalues    EBANDS =      -757.74344393
  atomic energy  EATOM  =     17190.60795778
  Solvation  Ediel_sol  =         0.00000000
  ---------------------------------------------------
  free energy    TOTEN  =       -21.47346931 eV

  energy without entropy =      -21.42274713  energy(sigma->0) =      -21.45656192


--------------------------------------------------------------------------------------------------------




--------------------------------------- Iteration      1(  10)  ---------------------------------------


    POTLOK:  cpu time      0.0041: real time      0.0047
    SETDIJ:  cpu time      0.0113: real time      0.0113
    EDDIAG:  cpu time      0.0175: real time      0.0175
  RMM-DIIS:  cpu time      0.2189: real time      0.2188
    ORTHCH:  cpu time      0.0012: real time      0.0012
       DOS:  cpu time      0.0009: real time      0.0009
    CHARGE:  cpu time      0.0290: real time      0.0290
    MIXING:  cpu time      0.0040: real time      0.0040
    --------------------------------------------
      LOOP:  cpu time      0.2869: real time      0.2874

 eigenvalue-minimisations  :  1261
 total energy-change (2. order) :-0.1591754E-03  (-0.8995183E-04)
 number of electron     104.0000198 magnetization 
 augmentation part       67.1758100 magnetization 

 Broyden mixing:
  rms(total) = 0.16405E-02    rms(broyden)= 0.16405E-02
  rms(prec ) = 0.24205E-02
  weight for this iteration     100.00

 eigenvalues of (default mixing * dielectric matrix)
  average eigenvalue GAMMA=   1.7569
  2.9219  2.5401  1.2379  1.2379  0.8467

 Free energy of the ion-electron system (eV)
  ---------------------------------------------------
  alpha Z        PSCENC =       563.37210189
  Ewald energy   TEWEN  =    -10128.03459849
  -Hartree energ DENC   =     -4569.09663853
  -exchange      EXHF   =         0.00000000
  -V(xc)+E(xc)   XCENC  =       350.50161540
  PAW double counting   =     13919.17689859   -16589.98010582
  entropy T*S    EENTRO =        -0.05084246
  eigenvalues    EBANDS =      -757.97001684
  atomic energy  EATOM  =     17190.60795778
  Solvation  Ediel_sol  =         0.00000000
  ---------------------------------------------------
  free energy    TOTEN  =       -21.47362849 eV

  energy without entropy =      -21.42278603  energy(sigma->0) =      -21.45668100


--------------------------------------------------------------------------------------------------------




--------------------------------------- Iteration      1(  11)  ---------------------------------------


    POTLOK:  cpu time      0.0042: real time      0.0046
    SETDIJ:  cpu time      0.0111: real time      0.0111
    EDDIAG:  cpu time      0.0175: real time      0.0175
  RMM-DIIS:  cpu time      0.2289: real time      0.2288
    ORTHCH:  cpu time      0.0012: real time      0.0012
       DOS:  cpu time      0.0009: real time      0.0009
    CHARGE:  cpu time      0.0294: real time      0.0294
    MIXING:  cpu time      0.0040: real time      0.0040
    --------------------------------------------
      LOOP:  cpu time      0.2971: real time      0.2975

 eigenvalue-minimisations  :  1299
 total energy-change (2. order) :-0.1949203E-04  (-0.3446739E-04)
 number of electron     104.0000198 magnetization 
 augmentation part       67.1734726 magnetization 

 Broyden mixing:
  rms(total) = 0.37168E-03    rms(broyden)= 0.37160E-03
  rms(prec ) = 0.69533E-03
  weight for this iteration     100.00

 eigenvalues of (default mixing * dielectric matrix)
  average eigenvalue GAMMA=   1.7085
  2.9259  2.4903  1.6794  1.1771  1.1319  0.8464

 Free energy of the ion-electron system (eV)
  ---------------------------------------------------
  alpha Z        PSCENC =       563.37210189
  Ewald energy   TEWEN  =    -10128.03459849
  -Hartree energ DENC   =     -4569.20723475
  -exchange      EXHF   =         0.00000000
  -V(xc)+E(xc)   XCENC  =       350.50513514
  PAW double counting   =     13923.79989853   -16594.90610216
  entropy T*S    EENTRO =        -0.05082725
  eigenvalues    EBANDS =      -757.55997867
  atomic energy  EATOM  =     17190.60795778
  Solvation  Ediel_sol  =         0.00000000
  ---------------------------------------------------
  free energy    TOTEN  =       -21.47364798 eV

  energy without entropy =      -21.42282073  energy(sigma->0) =      -21.45670556


--------------------------------------------------------------------------------------------------------




--------------------------------------- Iteration      1(  12)  ---------------------------------------


    POTLOK:  cpu time      0.0040: real time      0.0045
    SETDIJ:  cpu time      0.0112: real time      0.0112
    EDDIAG:  cpu time      0.0175: real time      0.0175
  RMM-DIIS:  cpu time      0.1618: real time      0.1618
    ORTHCH:  cpu time      0.0012: real time      0.0012
       DOS:  cpu time      0.0009: real time      0.0009
    --------------------------------------------
      LOOP:  cpu time      0.1967: real time      0.1971

 eigenvalue-minimisations  :   896
 total energy-change (2. order) :-0.6093751E-05  (-0.8077832E-05)
 number of electron     104.0000198 magnetization 
 augmentation part       67.1734726 magnetization 

 Free energy of the ion-electron system (eV)
  ---------------------------------------------------
  alpha Z        PSCENC =       563.37210189
  Ewald energy   TEWEN  =    -10128.03459849
  -Hartree energ DENC   =     -4569.18472347
  -exchange      EXHF   =         0.00000000
  -V(xc)+E(xc)   XCENC  =       350.50406838
  PAW double counting   =     13924.05641798   -16595.12016902
  entropy T*S    EENTRO =        -0.05090155
  eigenvalues    EBANDS =      -757.62380758
  atomic energy  EATOM  =     17190.60795778
  Solvation  Ediel_sol  =         0.00000000
  ---------------------------------------------------
  free energy    TOTEN  =       -21.47365408 eV

  energy without entropy =      -21.42275252  energy(sigma->0) =      -21.45668689


--------------------------------------------------------------------------------------------------------




 average (electrostatic) potential at core
  the test charge radii are     1.0314
  (the norm of the test charge is              1.0000)
       1 -65.2347       2 -65.2347       3 -65.2347       4 -65.2347       5 -65.2347
       6 -65.2347       7 -65.2347       8 -65.2347
 
 
 
 E-fermi :   5.1781     XC(G=0): -10.7453     alpha+bet :-11.4379

 Fermi energy:         5.1781136738

 k-point     1 :       0.0000    0.0000    0.0000
  band No.  band energies     occupation 
      1     -10.0220      2.00000
      2      -9.9370      2.00000
      3      -9.9303      2.00000
      4      -9.9299      2.00000
      5      -9.9200      2.00000
      6      -9.9176      2.00000
      7      -9.9025      2.00000
      8      -9.8787      2.00000
      9      -9.8723      2.00000
     10      -9.8573      2.00000
     11      -9.8152      2.00000
     12      -9.8118      2.00000
     13      -9.7928      2.00000
     14      -9.7644      2.00000
     15      -9.7521      2.00000
     16      -9.7333      2.00000
     17      -9.7072      2.00000
     18      -9.7032      2.00000
     19      -9.6926      2.00000
     20      -9.6884      2.00000
     21      -9.6577      2.00000
     22      -9.6503      2.00000
     23      -9.6475      2.00000
     24      -9.6454      2.00000
     25      -9.6373      2.00000
     26      -9.6324      2.00000
     27      -9.5718      2.00000
     28      -9.5606      2.00000
     29      -9.5337      2.00000
     30      -9.5081      2.00000
     31      -9.4955      2.00000
     32      -9.4918      2.00000
     33      -9.4889      2.00000
     34      -9.4797      2.00000
     35      -9.4665      2.00000
     36      -9.4616      2.00000
     37      -9.4578      2.00000
     38      -9.4112      2.00000
     39      -9.4037      2.00000
     40      -9.3843      2.00000
     41      -5.9436      2.00000
     42      -4.1513      2.00000
     43      -2.2003      2.00000
     44       0.8163      2.00000
     45       1.2062      2.00000
     46       1.3168      2.00000
     47       2.0350      2.00000
     48       3.3547      2.00000
     49       3.5978      2.00000
     50       3.6514      2.00000
     51       3.8656      2.00000
     52       4.4403      2.00000
     53       6.2099     -0.00000
     54       6.2133     -0.00000
     55       6.2471     -0.00000
     56       6.2770     -0.00000
     57       6.3681     -0.00000
     58       8.7776     -0.00000
     59       9.0537     -0.00000
     60       9.5419     -0.00000
     61      10.6113      0.00000
     62      10.6885      0.00000

 k-point     2 :       0.5000    0.0000    0.0000
  band No.  band energies     occupation 
      1      -9.9936      2.00000
      2      -9.9936      2.00000
      3      -9.9153      2.00000
      4      -9.9153      2.00000
      5      -9.8985      2.00000
      6      -9.8985      2.00000
      7      -9.8746      2.00000
      8      -9.8746      2.00000
      9      -9.8743      2.00000
     10      -9.8743      2.00000
     11      -9.7810      2.00000
     12      -9.7810      2.00000
     13      -9.7655      2.00000
     14      -9.7655      2.00000
     15      -9.7652      2.00000
     16      -9.7652      2.00000
     17      -9.6907      2.00000
     18      -9.6907      2.00000
     19      -9.6898      2.00000
     20      -9.6898      2.00000
     21      -9.6575      2.00000
     22      -9.6575      2.00000
     23      -9.6491      2.00000
     24      -9.6491      2.00000
     25      -9.6451      2.00000
     26      -9.6451      2.00000
     27      -9.5739      2.00000
     28      -9.5739      2.00000
     29      -9.5608      2.00000
     30      -9.5608      2.00000
     31      -9.5381      2.00000
     32      -9.5381      2.00000
     33      -9.4652      2.00000
     34      -9.4652      2.00000
     35      -9.4608      2.00000
     36      -9.4608      2.00000
     37      -9.4061      2.00000
     38      -9.4061      2.00000
     39      -9.3859      2.00000
     40      -9.3859      2.00000
     41      -3.9935      2.00000
     42      -3.9935      2.00000
     43      -2.1831      2.00000
     44      -2.1831      2.00000
     45      -0.5099      2.00000
     46      -0.5099      2.00000
     47       3.3104      2.00000
     48       3.3104      2.00000
     49       3.7566      2.00000
     50       3.7566      2.00000
     51       5.1843      0.94728
     52       5.1843      0.94728
     53       5.2613      0.35901
     54       5.2613      0.35901
     55       6.2558     -0.00000
     56       6.2558     -0.00000
     57       8.1555     -0.00000
     58       8.1557     -0.00000
     59       8.5815     -0.00000
     60       8.5825     -0.00000
     61       9.1321     -0.00000
     62       9.1356     -0.00000

 k-point     3 :       0.0000    0.5000    0.0000
  band No.  band energies     occupation 
      1      -9.9754      2.00000
      2      -9.9754      2.00000
      3      -9.9479      2.00000
      4      -9.9479      2.00000
      5      -9.8915      2.00000
      6      -9.8915      2.00000
      7      -9.8902      2.00000
      8      -9.8902      2.00000
      9      -9.8638      2.00000
     10      -9.8638      2.00000
     11      -9.8334      2.00000
     12      -9.8334      2.00000
     13      -9.8122      2.00000
     14      -9.8122      2.00000
     15      -9.7352      2.00000
     16      -9.7352      2.00000
     17      -9.7192      2.00000
     18      -9.7192      2.00000
     19      -9.6927      2.00000
     20      -9.6927      2.00000
     21      -9.6133      2.00000
     22      -9.6133      2.00000
     23      -9.6102      2.00000
     24      -9.6102      2.00000
     25      -9.6004      2.00000
     26      -9.6004      2.00000
     27      -9.5803      2.00000
     28      -9.5803      2.00000
     29      -9.5403      2.00000
     30      -9.5403      2.00000
     31      -9.5377      2.00000
     32      -9.5377      2.00000
     33      -9.4761      2.00000
     34      -9.4761      2.00000
     35      -9.4753      2.00000
     36      -9.4753      2.00000
     37      -9.4066      2.00000
     38      -9.4066      2.00000
     39      -9.4050      2.00000
     40      -9.4050      2.00000
     41      -5.3397      2.00000
     42      -5.3397      2.00000
     43       0.0653      2.00000
     44       0.0653      2.00000
     45       1.0390      2.00000
     46       1.0390      2.00000
     47       2.6413      2.00000
     48       2.6413      2.00000
     49       2.7493      2.00000
     50       2.7493      2.00000
     51       3.3232      2.00000
     52       3.3232      2.00000
     53       7.1385     -0.00000
     54       7.1385     -0.00000
     55       8.1689     -0.00000
     56       8.1690     -0.00000
     57       8.3836     -0.00000
     58       8.3853     -0.00000
     59       9.3207     -0.00000
     60       9.3484     -0.00000
     61       9.6525     -0.00000
     62       9.7029     -0.00000

 k-point     4 :       0.5000    0.5000    0.0000
  band No.  band energies     occupation 
      1      -9.9470      2.00000
      2      -9.9470      2.00000
      3      -9.9470      2.00000
      4      -9.9470      2.00000
      5      -9.8743      2.00000
      6      -9.8743      2.00000
      7      -9.8743      2.00000
      8      -9.8743      2.00000
      9      -9.8524      2.00000
     10      -9.8524      2.00000
     11      -9.8524      2.00000
     12      -9.8524      2.00000
     13      -9.7961      2.00000
     14      -9.7961      2.00000
     15      -9.7961      2.00000
     16      -9.7961      2.00000
     17      -9.6995      2.00000
     18      -9.6995      2.00000
     19      -9.6995      2.00000
     20      -9.6995      2.00000
     21      -9.6441      2.00000
     22      -9.6441      2.00000
     23      -9.6441      2.00000
     24      -9.6441      2.00000
     25      -9.5648      2.00000
     26      -9.5648      2.00000
     27      -9.5648      2.00000
     28      -9.5648      2.00000
     29      -9.5151      2.00000
     30      -9.5151      2.00000
     31      -9.5151      2.00000
     32      -9.5151      2.00000
     33      -9.4899      2.00000
     34      -9.4899      2.00000
     35      -9.4899      2.00000
     36      -9.4899      2.00000
     37      -9.4123      2.00000
     38      -9.4123      2.00000
     39      -9.4123      2.00000
     40      -9.4123      2.00000
     41      -3.3922      2.00000
     42      -3.3922      2.00000
     43      -3.3922      2.00000
     44      -3.3922      2.00000
     45       1.7376      2.00000
     46       1.7376      2.00000
     47       1.7376      2.00000
     48       1.7376      2.00000
     49       3.7539      2.00000
     50       3.7539      2.00000
     51       3.7539      2.00000
     52       3.7539      2.00000
     53       5.9145     -0.00000
     54       5.9145     -0.00000
     55       5.9146     -0.00000
     56       5.9146     -0.00000
     57       9.3530     -0.00000
     58       9.3531     -0.00000
     59       9.3629     -0.00000
     60       9.3777     -0.00000
     61      10.5146      0.00000
     62      10.5152      0.00000

 k-point     5 :       0.0000    0.0000    0.5000
  band No.  band energies     occupation 
      1      -9.9699      2.00000
      2      -9.9699      2.00000
      3      -9.9399      2.00000
      4      -9.9399      2.00000
      5      -9.8883      2.00000
      6      -9.8883      2.00000
      7      -9.8848      2.00000
      8      -9.8848      2.00000
      9      -9.8627      2.00000
     10      -9.8627      2.00000
     11      -9.8447      2.00000
     12      -9.8447      2.00000
     13      -9.7978      2.00000
     14      -9.7978      2.00000
     15      -9.7946      2.00000
     16      -9.7946      2.00000
     17      -9.6946      2.00000
     18      -9.6946      2.00000
     19      -9.6909      2.00000
     20      -9.6909      2.00000
     21      -9.6540      2.00000
     22      -9.6540      2.00000
     23      -9.6019      2.00000
     24      -9.6019      2.00000
     25      -9.5909      2.00000
     26      -9.5909      2.00000
     27      -9.5554      2.00000
     28      -9.5554      2.00000
     29      -9.5489      2.00000
     30      -9.5489      2.00000
     31      -9.4911      2.00000
     32      -9.4911      2.00000
     33      -9.4588      2.00000
     34      -9.4588      2.00000
     35      -9.4553      2.00000
     36      -9.4553      2.00000
     37      -9.4404      2.00000
     38      -9.4404      2.00000
     39      -9.4398      2.00000
     40      -9.4398      2.00000
     41      -4.1167      2.00000
     42      -4.1167      2.00000
     43      -2.4029      2.00000
     44      -2.4029      2.00000
     45      -0.2705      2.00000
     46      -0.2705      2.00000
     47       4.0282      2.00000
     48       4.0282      2.00000
     49       4.5049      2.00002
     50       4.5049      2.00002
     51       5.2467      0.45562
     52       5.2467      0.45562
     53       5.3343      0.03002
     54       5.3343      0.03002
     55       5.4287     -0.07068
     56       5.4287     -0.07068
     57       7.2682     -0.00000
     58       7.2683     -0.00000
     59       9.2364     -0.00000
     60       9.2377     -0.00000
     61       9.6332     -0.00000
     62       9.6400     -0.00000

 k-point     6 :       0.5000    0.0000    0.5000
  band No.  band energies     occupation 
      1      -9.9783      2.00000
      2      -9.9783      2.00000
      3      -9.9783      2.00000
      4      -9.9783      2.00000
      5      -9.8700      2.00000
      6      -9.8700      2.00000
      7      -9.8700      2.00000
      8      -9.8700      2.00000
      9      -9.8425      2.00000
     10      -9.8425      2.00000
     11      -9.8425      2.00000
     12      -9.8425      2.00000
     13      -9.7922      2.00000
     14      -9.7922      2.00000
     15      -9.7922      2.00000
     16      -9.7922      2.00000
     17      -9.7252      2.00000
     18      -9.7252      2.00000
     19      -9.7252      2.00000
     20      -9.7252      2.00000
     21      -9.6230      2.00000
     22      -9.6230      2.00000
     23      -9.6230      2.00000
     24      -9.6230      2.00000
     25      -9.5779      2.00000
     26      -9.5779      2.00000
     27      -9.5779      2.00000
     28      -9.5779      2.00000
     29      -9.5339      2.00000
     30      -9.5339      2.00000
     31      -9.5339      2.00000
     32      -9.5339      2.00000
     33      -9.4499      2.00000
     34      -9.4499      2.00000
     35      -9.4499      2.00000
     36      -9.4499      2.00000
     37      -9.4013      2.00000
     38      -9.4013      2.00000
     39      -9.4013      2.00000
     40      -9.4013      2.00000
     41      -2.2459      2.00000
     42      -2.2459      2.00000
     43      -2.2459      2.00000
     44      -2.2459      2.00000
     45      -0.4073      2.00000
     46      -0.4073      2.00000
     47      -0.4073      2.00000
     48      -0.4073      2.00000
     49       2.2452      2.00000
     50       2.2452      2.00000
     51       2.2452      2.00000
     52       2.2452      2.00000
     53       8.7159     -0.00000
     54       8.7159     -0.00000
     55       8.7159     -0.00000
     56       8.7160     -0.00000
     57       9.6719     -0.00000
     58       9.6720     -0.00000
     59       9.6727     -0.00000
     60       9.6729     -0.00000
     61      12.5338      0.00000
     62      12.5505      0.00000

 k-point     7 :       0.0000    0.5000    0.5000
  band No.  band energies     occupation 
      1      -9.9508      2.00000
      2      -9.9508      2.00000
      3      -9.9508      2.00000
      4      -9.9508      2.00000
      5      -9.8914      2.00000
      6      -9.8914      2.00000
      7      -9.8914      2.00000
      8      -9.8914      2.00000
      9      -9.8576      2.00000
     10      -9.8576      2.00000
     11      -9.8576      2.00000
     12      -9.8576      2.00000
     13      -9.7913      2.00000
     14      -9.7913      2.00000
     15      -9.7913      2.00000
     16      -9.7913      2.00000
     17      -9.7075      2.00000
     18      -9.7075      2.00000
     19      -9.7075      2.00000
     20      -9.7075      2.00000
     21      -9.6145      2.00000
     22      -9.6145      2.00000
     23      -9.6145      2.00000
     24      -9.6145      2.00000
     25      -9.5789      2.00000
     26      -9.5789      2.00000
     27      -9.5789      2.00000
     28      -9.5789      2.00000
     29      -9.5027      2.00000
     30      -9.5027      2.00000
     31      -9.5027      2.00000
     32      -9.5027      2.00000
     33      -9.4622      2.00000
     34      -9.4622      2.00000
     35      -9.4622      2.00000
     36      -9.4622      2.00000
     37      -9.4454      2.00000
     38      -9.4454      2.00000
     39      -9.4454      2.00000
     40      -9.4454      2.00000
     41      -3.5199      2.00000
     42      -3.5199      2.00000
     43      -3.5199      2.00000
     44      -3.5199      2.00000
     45       1.9608      2.00000
     46       1.9608      2.00000
     47       1.9608      2.00000
     48       1.9608      2.00000
     49       4.5525      2.00009
     50       4.5525      2.00009
     51       4.5525      2.00009
     52       4.5525      2.00009
     53       5.1615      1.13976
     54       5.1615      1.13976
     55       5.1615      1.13976
     56       5.1615      1.13976
     57       9.2497     -0.00000
     58       9.2504     -0.00000
     59       9.2535     -0.00000
     60       9.2722     -0.00000
     61      11.2065      0.00000
     62      11.2467      0.00000

 k-point     8 :       0.5000    0.5000    0.5000
  band No.  band energies     occupation 
      1      -9.9516      2.00000
      2      -9.9516      2.00000
      3      -9.9516      2.00000
      4      -9.9516      2.00000
      5      -9.8888      2.00000
      6      -9.8888      2.00000
      7      -9.8888      2.00000
      8      -9.8888      2.00000
      9      -9.8501      2.00000
     10      -9.8501      2.00000
     11      -9.8501      2.00000
     12      -9.8501      2.00000
     13      -9.8375      2.00000
     14      -9.8375      2.00000
     15      -9.8375      2.00000
     16      -9.8375      2.00000
     17      -9.6551      2.00000
     18      -9.6551      2.00000
     19      -9.6551      2.00000
     20      -9.6551      2.00000
     21      -9.6448      2.00000
     22      -9.6448      2.00000
     23      -9.6448      2.00000
     24      -9.6448      2.00000
     25      -9.5576      2.00000
     26      -9.5576      2.00000
     27      -9.5576      2.00000
     28      -9.5576      2.00000
     29      -9.5514      2.00000
     30      -9.5514      2.00000
     31      -9.5514      2.00000
     32      -9.5514      2.00000
     33      -9.4507      2.00000
     34      -9.4507      2.00000
     35      -9.4507      2.00000
     36      -9.4507      2.00000
     37      -9.4066      2.00000
     38      -9.4066      2.00000
     39      -9.4066      2.00000
     40      -9.4066      2.00000
     41      -2.0049      2.00000
     42      -2.0049      2.00000
     43      -2.0049      2.00000
     44      -2.0049      2.00000
     45      -1.0468      2.00000
     46      -1.0468      2.00000
     47      -1.0468      2.00000
     48      -1.0468      2.00000
     49       3.6540      2.00000
     50       3.6540      2.00000
     51       3.6540      2.00000
     52       3.6540      2.00000
     53       5.7428     -0.00048
     54       5.7428     -0.00048
     55       5.7428     -0.00048
     56       5.7428     -0.00048
     57      12.6252      0.00000
     58      12.6563      0.00000
     59      12.7225      0.00000
     60      12.8936      0.00000
     61      12.9687      0.00000
     62      13.4467      0.00000


--------------------------------------------------------------------------------------------------------


 soft charge-density along one line, spin component            1
         0         1         2         3         4         5         6         7         8         9
 total charge-density along one line
 
 pseudopotential strength for first ion, spin component:            1
-13.007  -0.000   0.000   0.003   0.000   1.428   0.000  -0.000
 -0.000 -13.011   0.002  -0.000   0.001   0.000   1.430  -0.001
  0.000   0.002 -13.003  -0.000  -0.008  -0.000  -0.001   1.426
  0.003  -0.000  -0.000 -12.998  -0.000  -0.002   0.000   0.000
  0.000   0.001  -0.008  -0.000 -13.009  -0.000   0.000   0.004
  1.428   0.000  -0.000  -0.002  -0.000   4.333  -0.000   0.000
  0.000   1.430  -0.001   0.000   0.000  -0.000   4.333   0.001
 -0.000  -0.001   1.426   0.000   0.004   0.000   0.001   4.334
 -0.002   0.000   0.000   1.423   0.000   0.001  -0.000  -0.000
 -0.000   0.000   0.004   0.000   1.428  -0.000  -0.001  -0.002
  0.000  -0.001   0.000  -0.000  -0.000  -0.000   0.001  -0.001
 -0.000   0.001  -0.002   0.000  -0.004   0.000  -0.000   0.001
 -0.000  -0.001   0.001   0.000   0.001   0.000   0.000  -0.000
  0.000   0.001  -0.000  -0.000   0.001  -0.000  -0.002  -0.001
  0.001   0.000  -0.000   0.000   0.000  -0.001  -0.000   0.000
  0.000   0.001  -0.000  -0.000  -0.001  -0.000   0.001  -0.001
 -0.000  -0.002  -0.000   0.000  -0.001   0.000   0.004   0.002
 -0.002  -0.000   0.000  -0.001  -0.000   0.004   0.000   0.000
 total augmentation occupancy for first ion, spin component:            1
  2.002   0.000   0.000  -0.000   0.000   0.009   0.000   0.000  -0.001   0.000  -0.000   0.000  -0.000  -0.000  -0.004  -0.000
  0.000   2.003  -0.000  -0.000  -0.001   0.000   0.012  -0.000  -0.000  -0.004   0.002   0.000   0.007  -0.005  -0.000   0.001
  0.000  -0.000   2.002   0.000   0.001   0.000  -0.000   0.010   0.000   0.000  -0.001  -0.000  -0.007  -0.002  -0.000  -0.000
 -0.000  -0.000   0.000   2.002   0.000  -0.001  -0.000   0.000   0.011   0.000  -0.000  -0.000  -0.000  -0.000  -0.006  -0.000
  0.000  -0.001   0.001   0.000   2.003   0.000  -0.004   0.000   0.000   0.014  -0.004   0.000  -0.010  -0.006   0.000  -0.001
  0.009   0.000   0.000  -0.001   0.000   0.014   0.000   0.000  -0.002   0.000  -0.000   0.000  -0.000  -0.000  -0.056  -0.000
  0.000   0.012  -0.000  -0.000  -0.004   0.000   0.019   0.001  -0.000  -0.003   0.013   0.000   0.044  -0.064  -0.000   0.001
  0.000  -0.000   0.010   0.000   0.000   0.000   0.001   0.018   0.000  -0.005  -0.005  -0.000  -0.037  -0.027  -0.000  -0.001
 -0.001  -0.000   0.000   0.011   0.000  -0.002  -0.000   0.000   0.023   0.000  -0.000   0.000  -0.000  -0.000  -0.040  -0.000
  0.000  -0.004   0.000   0.000   0.014   0.000  -0.003  -0.005   0.000   0.028  -0.030   0.001  -0.044  -0.041   0.000  -0.001
 -0.000   0.002  -0.001  -0.000  -0.004  -0.000   0.013  -0.005  -0.000  -0.030   1.608   0.017   0.053   0.023  -0.000   0.001
  0.000   0.000  -0.000  -0.000   0.000   0.000   0.000  -0.000   0.000   0.001   0.017   0.001  -0.000  -0.001   0.000  -0.000
 -0.000   0.007  -0.007  -0.000  -0.010  -0.000   0.044  -0.037  -0.000  -0.044   0.053  -0.000   0.792   0.029  -0.000   0.012
 -0.000  -0.005  -0.002  -0.000  -0.006  -0.000  -0.064  -0.027  -0.000  -0.041   0.023  -0.001   0.029   0.873   0.000   0.001
 -0.004  -0.000  -0.000  -0.006   0.000  -0.056  -0.000  -0.000  -0.040   0.000  -0.000   0.000  -0.000   0.000   0.910  -0.000
 -0.000   0.001  -0.000  -0.000  -0.001  -0.000   0.001  -0.001  -0.000  -0.001   0.001  -0.000   0.012   0.001  -0.000   0.000
 -0.000  -0.000  -0.000  -0.000  -0.000  -0.000  -0.001  -0.000  -0.000  -0.001   0.000  -0.000   0.001   0.012   0.000   0.000
 -0.000  -0.000   0.000  -0.000   0.000  -0.001  -0.000  -0.000  -0.001   0.000  -0.000   0.000  -0.000   0.000   0.012  -0.000


------------------------ aborting loop because EDIFF is reached ----------------------------------------


    CHARGE:  cpu time      0.0357: real time      0.0357
    FORLOC:  cpu time      0.0005: real time      0.0006
    FORNL :  cpu time      0.1061: real time      0.1061
    STRESS:  cpu time      0.3272: real time      0.3272
    FORCOR:  cpu time      0.0039: real time      0.0039
    FORHAR:  cpu time      0.0010: real time      0.0010
    MIXING:  cpu time      0.0046: real time      0.0046
    OFIELD:  cpu time      0.0000: real time      0.0000

  FORCE on cell =-STRESS in cart. coord.  units (eV):
  Direction    XX          YY          ZZ          XY          YZ          ZX
  --------------------------------------------------------------------------------------
  Alpha Z   563.37210   563.37210   563.37210
  Ewald   -3119.45720 -3701.61748 -3306.97730     0.00000    -0.00000    -0.00000
  Hartree  1720.31235  1258.55951  1590.39193    -0.00000    -0.00000    -0.00000
  E(xc)    -627.55129  -627.66058  -627.68266     0.00000     0.00000    -0.00000
  Local    -108.92725   944.47900   209.60865    -0.00000     0.00000     0.00000
  n-local    82.16508    81.62846    81.73445     0.00000    -0.00029    -0.00029
  augment   977.83322   973.49588   976.93112    -0.00000    -0.00000    -0.00000
  Kinetic   524.79745   504.51453   518.15466    -0.00003     0.00018     0.00013
  Fock        0.00000     0.00000     0.00000     0.00000     0.00000     0.00000
  -------------------------------------------------------------------------------------
  Total      12.54445    -3.22857     5.53295     0.00000    -0.00000     0.00000
  in kB     131.01567   -33.71957    57.78673     0.00000    -0.00000     0.00000
  external pressure =       51.69 kB  Pullay stress =        0.00 kB


 VOLUME and BASIS-vectors are now :
 -----------------------------------------------------------------------------
  energy-cutoff  :      450.00
  volume of cell :      153.40
      direct lattice vectors                 reciprocal lattice vectors
     4.432046661  0.000000000  0.000000000     0.225629393  0.000000000 -0.000000000
    -0.000000000  7.597983680  0.000000000     0.000000000  0.131613865  0.000000000
     0.000000000  0.000000000  4.555503530    -0.000000000 -0.000000000  0.219514702

  length of vectors
     4.432046661  7.597983680  4.555503530     0.225629393  0.131613865  0.219514702


 FORCES acting on ions
    electron-ion (+dipol)            ewald-force                    non-local-force                 convergence-correction
 -----------------------------------------------------------------------------------------------
   -.333E-13 -.791E+02 -.938E+01   -.879E-13 0.800E+02 0.101E+02   0.962E-16 -.146E+01 -.941E+00   0.834E-13 -.566E-02 0.132E-02
   -.370E-13 0.791E+02 -.938E+01   -.134E-13 -.800E+02 0.101E+02   -.962E-16 0.146E+01 -.941E+00   0.197E-12 0.566E-02 0.132E-02
   -.987E-13 0.791E+02 0.938E+01   0.755E-13 -.800E+02 -.101E+02   -.962E-16 0.146E+01 0.941E+00   0.507E-13 0.566E-02 -.132E-02
   -.144E-12 -.791E+02 0.938E+01   -.703E-15 0.800E+02 -.101E+02   0.962E-16 -.146E+01 0.941E+00   -.397E-13 -.566E-02 -.132E-02
   0.977E-12 -.791E+02 -.938E+01   -.768E-13 0.800E+02 0.101E+02   0.962E-16 -.146E+01 -.941E+00   0.565E-13 -.566E-02 0.132E-02
   0.983E-12 0.791E+02 -.938E+01   -.225E-14 -.800E+02 0.101E+02   -.962E-16 0.146E+01 -.941E+00   0.131E-12 0.566E-02 0.132E-02
   0.884E-12 0.791E+02 0.938E+01   0.865E-13 -.800E+02 -.101E+02   -.962E-16 0.146E+01 0.941E+00   0.120E-13 0.566E-02 -.132E-02
   0.807E-12 -.791E+02 0.938E+01   0.105E-13 0.800E+02 -.101E+02   0.962E-16 -.146E+01 0.941E+00   -.935E-13 -.566E-02 -.132E-02
 -----------------------------------------------------------------------------------------------
   0.334E-11 0.662E-11 0.501E-11   -.862E-14 -.284E-13 -.178E-14   -.891E-20 -.444E-15 -.222E-15   0.398E-12 0.480E-12 0.361E-12
 
 
 POSITION                                       TOTAL-FORCE (eV/Angst)
 -----------------------------------------------------------------------------------
     -0.00000      2.61602      1.89236         0.000000     -0.619238     -0.235686
     -0.00000      1.18297      4.17011        -0.000000      0.619238     -0.235686
     -0.00000      4.98197      2.66314        -0.000000      0.619238      0.235686
     -0.00000      6.41501      0.38539         0.000000     -0.619238      0.235686
      2.21602      6.41501      1.89236         0.000000     -0.619238     -0.235686
      2.21602      4.98197      4.17011        -0.000000      0.619238     -0.235686
      2.21602      1.18297      2.66314        -0.000000      0.619238      0.235686
      2.21602      2.61602      0.38539         0.000000     -0.619238      0.235686
 -----------------------------------------------------------------------------------
    total drift:                                0.000000      0.000000      0.000000


--------------------------------------------------------------------------------------------------------



  FREE ENERGIE OF THE ION-ELECTRON SYSTEM (eV)
  ---------------------------------------------------
  free  energy   TOTEN  =       -21.47365408 eV

  energy  without entropy=      -21.42275252  energy(sigma->0) =      -21.45668689
 


--------------------------------------------------------------------------------------------------------


    POTLOK:  cpu time      0.0170: real time      0.0170


--------------------------------------------------------------------------------------------------------




--------------------------------------------------------------------------------------------------------


    WAVPRE:  cpu time      0.0221: real time      0.0255
    FEWALD:  cpu time      0.0005: real time      0.0004
    ORTHCH:  cpu time      0.0442: real time      0.0442
     LOOP+:  cpu time      3.4019: real time      3.4138


--------------------------------------- Ionic step        2  -------------------------------------------




--------------------------------------- Iteration      2(   1)  ---------------------------------------


    POTLOK:  cpu time      0.0040: real time      0.0040
    SETDIJ:  cpu time      0.0112: real time      0.0112
     EDDAV:  cpu time      0.1417: real time      0.1417
       DOS:  cpu time      0.0009: real time      0.0009
    CHARGE:  cpu time      0.0291: real time      0.0291
    MIXING:  cpu time      0.0032: real time      0.0032
    --------------------------------------------
      LOOP:  cpu time      0.1902: real time      0.1901

 eigenvalue-minimisations  :  1080
 total energy-change (2. order) :-0.4333172E-01  (-0.3121613E+01)
 number of electron     104.0000104 magnetization 
 augmentation part       67.2157806 magnetization 

 Broyden mixing:
  rms(total) = 0.42540E-01    rms(broyden)= 0.42495E-01
  rms(prec ) = 0.73346E-01
  weight for this iteration     100.00

 Free energy of the ion-electron system (eV)
  ---------------------------------------------------
  alpha Z        PSCENC =       563.37210189
  Ewald energy   TEWEN  =    -10104.83647460
  -Hartree energ DENC   =     -4591.38759526
  -exchange      EXHF   =         0.00000000
  -V(xc)+E(xc)   XCENC  =       350.56624049
  PAW double counting   =     13923.94307801   -16595.04773250
  entropy T*S    EENTRO =        -0.03173831
  eigenvalues    EBANDS =      -758.70281719
  atomic energy  EATOM  =     17190.60795778
  Solvation  Ediel_sol  =         0.00000000
  ---------------------------------------------------
  free energy    TOTEN  =       -21.51697970 eV

  energy without entropy =      -21.48524139  energy(sigma->0) =      -21.50640026


--------------------------------------------------------------------------------------------------------




--------------------------------------- Iteration      2(   2)  ---------------------------------------


    POTLOK:  cpu time      0.0041: real time      0.0045
    SETDIJ:  cpu time      0.0113: real time      0.0113
    EDDIAG:  cpu time      0.0175: real time      0.0175
  RMM-DIIS:  cpu time      0.1995: real time      0.1995
    ORTHCH:  cpu time      0.0012: real time      0.0012
       DOS:  cpu time      0.0009: real time      0.0009
    CHARGE:  cpu time      0.0289: real time      0.0289
    MIXING:  cpu time      0.0034: real time      0.0034
    --------------------------------------------
      LOOP:  cpu time      0.2668: real time      0.2673

 eigenvalue-minimisations  :  1161
 total energy-change (2. order) :-0.6493404E-01  (-0.7486293E-01)
 number of electron     104.0000104 magnetization 
 augmentation part       67.1703062 magnetization 

 Broyden mixing:
  rms(total) = 0.23271E-01    rms(broyden)= 0.23268E-01
  rms(prec ) = 0.40106E-01
  weight for this iteration     100.00

 eigenvalues of (default mixing * dielectric matrix)
  average eigenvalue GAMMA=   1.0648
  1.0648

 Free energy of the ion-electron system (eV)
  ---------------------------------------------------
  alpha Z        PSCENC =       563.37210189
  Ewald energy   TEWEN  =    -10104.83647460
  -Hartree energ DENC   =     -4593.49084046
  -exchange      EXHF   =         0.00000000
  -V(xc)+E(xc)   XCENC  =       350.64480984
  PAW double counting   =     13926.20107624   -16599.72939668
  entropy T*S    EENTRO =        -0.02931142
  eigenvalues    EBANDS =      -754.32183632
  atomic energy  EATOM  =     17190.60795778
  Solvation  Ediel_sol  =         0.00000000
  ---------------------------------------------------
  free energy    TOTEN  =       -21.58191373 eV

  energy without entropy =      -21.55260231  energy(sigma->0) =      -21.57214326


--------------------------------------------------------------------------------------------------------




--------------------------------------- Iteration      2(   3)  ---------------------------------------


    POTLOK:  cpu time      0.0041: real time      0.0045
[...]
      3      -9.9690      2.00000
      4      -9.9690      2.00000
      5      -9.9341      2.00000
      6      -9.9341      2.00000
      7      -9.8923      2.00000
      8      -9.8923      2.00000
      9      -9.8799      2.00000
     10      -9.8799      2.00000
     11      -9.8761      2.00000
     12      -9.8761      2.00000
     13      -9.8309      2.00000
     14      -9.8309      2.00000
     15      -9.8285      2.00000
     16      -9.8285      2.00000
     17      -9.7637      2.00000
     18      -9.7637      2.00000
     19      -9.7132      2.00000
     20      -9.7132      2.00000
     21      -9.6614      2.00000
     22      -9.6614      2.00000
     23      -9.6129      2.00000
     24      -9.6129      2.00000
     25      -9.6035      2.00000
     26      -9.6035      2.00000
     27      -9.5703      2.00000
     28      -9.5703      2.00000
     29      -9.5619      2.00000
     30      -9.5619      2.00000
     31      -9.5111      2.00000
     32      -9.5111      2.00000
     33      -9.4856      2.00000
     34      -9.4856      2.00000
     35      -9.4836      2.00000
     36      -9.4836      2.00000
     37      -9.4826      2.00000
     38      -9.4826      2.00000
     39      -9.4570      2.00000
     40      -9.4570      2.00000
     41      -4.1793      2.00000
     42      -4.1793      2.00000
     43      -2.6614      2.00000
     44      -2.6614      2.00000
     45       0.1168      2.00000
     46       0.1168      2.00000
     47       3.9075      2.00000
     48       3.9075      2.00000
     49       4.3522      2.00003
     50       4.3522      2.00003
     51       5.0222      0.89307
     52       5.0222      0.89307
     53       5.2771     -0.06756
     54       5.2771     -0.06756
     55       5.5937     -0.00029
     56       5.5937     -0.00029
     57       7.0515     -0.00000
     58       7.0515     -0.00000
     59       9.6198     -0.00000
     60       9.6198     -0.00000
     61       9.9059     -0.00000
     62       9.9059     -0.00000

 k-point     6 :       0.5000    0.0000    0.5000
  band No.  band energies     occupation 
      1      -9.9875      2.00000
      2      -9.9875      2.00000
      3      -9.9875      2.00000
      4      -9.9875      2.00000
      5      -9.9252      2.00000
      6      -9.9252      2.00000
      7      -9.9252      2.00000
      8      -9.9252      2.00000
      9      -9.9158      2.00000
     10      -9.9158      2.00000
     11      -9.9158      2.00000
     12      -9.9158      2.00000
     13      -9.8382      2.00000
     14      -9.8382      2.00000
     15      -9.8382      2.00000
     16      -9.8382      2.00000
     17      -9.7221      2.00000
     18      -9.7221      2.00000
     19      -9.7221      2.00000
     20      -9.7221      2.00000
     21      -9.6238      2.00000
     22      -9.6238      2.00000
     23      -9.6238      2.00000
     24      -9.6238      2.00000
     25      -9.6013      2.00000
     26      -9.6013      2.00000
     27      -9.6013      2.00000
     28      -9.6013      2.00000
     29      -9.5432      2.00000
     30      -9.5432      2.00000
     31      -9.5432      2.00000
     32      -9.5432      2.00000
     33      -9.4632      2.00000
     34      -9.4632      2.00000
     35      -9.4632      2.00000
     36      -9.4632      2.00000
     37      -9.4223      2.00000
     38      -9.4223      2.00000
     39      -9.4223      2.00000
     40      -9.4223      2.00000
     41      -2.2600      2.00000
     42      -2.2600      2.00000
     43      -2.2600      2.00000
     44      -2.2600      2.00000
     45      -0.6886      2.00000
     46      -0.6886      2.00000
     47      -0.6886      2.00000
     48      -0.6886      2.00000
     49       2.4966      2.00000
     50       2.4966      2.00000
     51       2.4966      2.00000
     52       2.4966      2.00000
     53       8.5514     -0.00000
     54       8.5514     -0.00000
     55       8.5514     -0.00000
     56       8.5514     -0.00000
     57       9.9853     -0.00000
     58       9.9853     -0.00000
     59       9.9853     -0.00000
     60       9.9853     -0.00000
     61      12.7786      0.00000
     62      12.7786      0.00000

 k-point     7 :       0.0000    0.5000    0.5000
  band No.  band energies     occupation 
      1      -9.9813      2.00000
      2      -9.9813      2.00000
      3      -9.9813      2.00000
      4      -9.9813      2.00000
      5      -9.9123      2.00000
      6      -9.9123      2.00000
      7      -9.9123      2.00000
      8      -9.9123      2.00000
      9      -9.8871      2.00000
     10      -9.8871      2.00000
     11      -9.8871      2.00000
     12      -9.8871      2.00000
     13      -9.8280      2.00000
     14      -9.8280      2.00000
     15      -9.8280      2.00000
     16      -9.8280      2.00000
     17      -9.7444      2.00000
     18      -9.7444      2.00000
     19      -9.7444      2.00000
     20      -9.7444      2.00000
     21      -9.6289      2.00000
     22      -9.6289      2.00000
     23      -9.6289      2.00000
     24      -9.6289      2.00000
     25      -9.5904      2.00000
     26      -9.5904      2.00000
     27      -9.5904      2.00000
     28      -9.5904      2.00000
     29      -9.5204      2.00000
     30      -9.5204      2.00000
     31      -9.5204      2.00000
     32      -9.5204      2.00000
     33      -9.4967      2.00000
     34      -9.4967      2.00000
     35      -9.4967      2.00000
     36      -9.4967      2.00000
     37      -9.4685      2.00000
     38      -9.4685      2.00000
     39      -9.4685      2.00000
     40      -9.4685      2.00000
     41      -3.6162      2.00000
     42      -3.6162      2.00000
     43      -3.6162      2.00000
     44      -3.6162      2.00000
     45       2.1876      2.00000
     46       2.1876      2.00000
     47       2.1876      2.00000
     48       2.1876      2.00000
     49       4.3736      2.00007
     50       4.3736      2.00007
     51       4.3736      2.00007
     52       4.3736      2.00007
     53       4.9693      1.33291
     54       4.9693      1.33291
     55       4.9693      1.33291
     56       4.9693      1.33291
     57       9.3951     -0.00000
     58       9.3951     -0.00000
     59       9.3951     -0.00000
     60       9.3951     -0.00000
     61      11.4426      0.00000
     62      11.4426      0.00000

 k-point     8 :       0.5000    0.5000    0.5000
  band No.  band energies     occupation 
      1      -9.9652      2.00000
      2      -9.9652      2.00000
      3      -9.9652      2.00000
      4      -9.9652      2.00000
      5      -9.9379      2.00000
      6      -9.9379      2.00000
      7      -9.9379      2.00000
      8      -9.9379      2.00000
      9      -9.8964      2.00000
     10      -9.8964      2.00000
     11      -9.8964      2.00000
     12      -9.8964      2.00000
     13      -9.8935      2.00000
     14      -9.8935      2.00000
     15      -9.8935      2.00000
     16      -9.8935      2.00000
     17      -9.6728      2.00000
     18      -9.6728      2.00000
     19      -9.6728      2.00000
     20      -9.6728      2.00000
     21      -9.6599      2.00000
     22      -9.6599      2.00000
     23      -9.6599      2.00000
     24      -9.6599      2.00000
     25      -9.5647      2.00000
     26      -9.5647      2.00000
     27      -9.5647      2.00000
     28      -9.5647      2.00000
     29      -9.5611      2.00000
     30      -9.5611      2.00000
     31      -9.5611      2.00000
     32      -9.5611      2.00000
     33      -9.4652      2.00000
     34      -9.4652      2.00000
     35      -9.4652      2.00000
     36      -9.4652      2.00000
     37      -9.4258      2.00000
     38      -9.4258      2.00000
     39      -9.4258      2.00000
     40      -9.4258      2.00000
     41      -1.9922      2.00000
     42      -1.9922      2.00000
     43      -1.9922      2.00000
     44      -1.9922      2.00000
     45      -1.2704      2.00000
     46      -1.2704      2.00000
     47      -1.2704      2.00000
     48      -1.2704      2.00000
     49       3.7916      2.00000
     50       3.7916      2.00000
     51       3.7916      2.00000
     52       3.7916      2.00000
     53       5.8273     -0.00000
     54       5.8273     -0.00000
     55       5.8273     -0.00000
     56       5.8273     -0.00000
     57      12.8454      0.00000
     58      12.8454      0.00000
     59      12.8706      0.00000
     60      12.8955      0.00000
     61      12.9006      0.00000
     62      12.9006      0.00000


--------------------------------------------------------------------------------------------------------


 soft charge-density along one line, spin component            1
         0         1         2         3         4         5         6         7         8         9
 total charge-density along one line
 
 pseudopotential strength for first ion, spin component:            1
-13.031  -0.000   0.000   0.003   0.000   1.442   0.000  -0.000
 -0.000 -13.036   0.002  -0.000   0.000   0.000   1.445  -0.001
  0.000   0.002 -13.020  -0.000  -0.015  -0.000  -0.001   1.436
  0.003  -0.000  -0.000 -13.011  -0.000  -0.002   0.000   0.000
  0.000   0.000  -0.015  -0.000 -13.032  -0.000   0.000   0.009
  1.442   0.000  -0.000  -0.002  -0.000   4.325   0.000   0.000
  0.000   1.445  -0.001   0.000   0.000   0.000   4.324   0.001
 -0.000  -0.001   1.436   0.000   0.009   0.000   0.001   4.328
 -0.002   0.000   0.000   1.430   0.000   0.001  -0.000   0.000
 -0.000   0.000   0.009   0.000   1.443  -0.000  -0.001  -0.005
  0.000  -0.000  -0.000  -0.000  -0.002   0.000   0.000  -0.000
  0.000  -0.000  -0.001   0.000  -0.004  -0.000   0.000   0.001
  0.000   0.000  -0.000   0.000  -0.001   0.000  -0.000   0.001
  0.000   0.002   0.001  -0.000   0.001  -0.000  -0.003  -0.001
  0.002   0.000  -0.000   0.001   0.000  -0.003  -0.000  -0.000
 -0.000  -0.001   0.001  -0.000   0.003  -0.000   0.002  -0.003
 -0.000  -0.005  -0.001   0.000  -0.001   0.000   0.007   0.002
 -0.004  -0.000   0.000  -0.003   0.000   0.006   0.000   0.000
 total augmentation occupancy for first ion, spin component:            1
  2.001   0.000   0.000  -0.000   0.000   0.008   0.000   0.000  -0.002   0.000  -0.000   0.000  -0.000  -0.000  -0.007  -0.000
  0.000   2.003  -0.000  -0.000  -0.001   0.000   0.011   0.000  -0.000  -0.003   0.000   0.000   0.004  -0.011  -0.000   0.000
  0.000  -0.000   2.002   0.000  -0.001   0.000   0.000   0.011   0.000  -0.002   0.001   0.000  -0.005  -0.002  -0.000  -0.000
 -0.000  -0.000   0.000   2.003   0.000  -0.002  -0.000   0.000   0.013   0.000  -0.000   0.000  -0.000  -0.000  -0.008  -0.000
  0.000  -0.001  -0.001   0.000   2.003   0.000  -0.003  -0.002   0.000   0.013  -0.002   0.001  -0.002  -0.006   0.000  -0.001
  0.008   0.000   0.000  -0.002   0.000   0.014   0.000   0.000  -0.003   0.000  -0.000   0.000  -0.000  -0.000  -0.060  -0.000
  0.000   0.011   0.000  -0.000  -0.003   0.000   0.019   0.001  -0.000  -0.002   0.008   0.000   0.035  -0.073  -0.000   0.001
  0.000   0.000   0.011   0.000  -0.002   0.000   0.001   0.020   0.000  -0.008   0.010  -0.000  -0.035  -0.021  -0.000  -0.001
 -0.002  -0.000   0.000   0.013   0.000  -0.003  -0.000   0.000   0.026   0.000  -0.000   0.000  -0.000  -0.000  -0.048  -0.000
  0.000  -0.003  -0.002   0.000   0.013   0.000  -0.002  -0.008   0.000   0.028  -0.013   0.001  -0.024  -0.040   0.000  -0.001
 -0.000   0.000   0.001  -0.000  -0.002  -0.000   0.008   0.010  -0.000  -0.013   1.592   0.018   0.025   0.004  -0.000  -0.000
  0.000   0.000   0.000   0.000   0.001   0.000   0.000  -0.000   0.000   0.001   0.018   0.001  -0.002  -0.001   0.000  -0.000
 -0.000   0.004  -0.005  -0.000  -0.002  -0.000   0.035  -0.035  -0.000  -0.024   0.025  -0.002   0.715   0.018  -0.000   0.010
 -0.000  -0.011  -0.002  -0.000  -0.006  -0.000  -0.073  -0.021  -0.000  -0.040   0.004  -0.001   0.018   0.918   0.000   0.000
 -0.007  -0.000  -0.000  -0.008   0.000  -0.060  -0.000  -0.000  -0.048   0.000  -0.000   0.000  -0.000   0.000   0.993  -0.000
 -0.000   0.000  -0.000  -0.000  -0.001  -0.000   0.001  -0.001  -0.000  -0.001  -0.000  -0.000   0.010   0.000  -0.000   0.000
 -0.000  -0.000  -0.000  -0.000  -0.000  -0.000  -0.001  -0.000  -0.000  -0.001  -0.000  -0.000   0.000   0.013   0.000   0.000
 -0.000  -0.000   0.000  -0.000   0.000  -0.001  -0.000  -0.000  -0.001   0.000   0.000   0.000  -0.000   0.000   0.014  -0.000


------------------------ aborting loop because EDIFF is reached ----------------------------------------


    CHARGE:  cpu time      0.0363: real time      0.0363
    FORLOC:  cpu time      0.0006: real time      0.0006
    FORNL :  cpu time      0.1064: real time      0.1063
    STRESS:  cpu time      0.3247: real time      0.3246
    FORCOR:  cpu time      0.0040: real time      0.0039
    FORHAR:  cpu time      0.0010: real time      0.0010
    MIXING:  cpu time      0.0039: real time      0.0039
    OFIELD:  cpu time      0.0000: real time      0.0000

  FORCE on cell =-STRESS in cart. coord.  units (eV):
  Direction    XX          YY          ZZ          XY          YZ          ZX
  --------------------------------------------------------------------------------------
  Alpha Z   563.37210   563.37210   563.37210
  Ewald   -2816.29772 -4192.38315 -3066.95774     0.00000    -0.00000    -0.00000
  Hartree  1922.94155   944.53142  1751.09419    -0.00000    -0.00000    -0.00000
  E(xc)    -627.44492  -628.14420  -627.60594     0.00000     0.00000     0.00000
  Local    -614.97249  1748.02137  -190.45583    -0.00000     0.00000    -0.00000
  n-local    84.87496    75.50791    83.65345     0.00003    -0.00000     0.00001
  augment   977.73476   975.36093   976.45931    -0.00000    -0.00000     0.00000
  Kinetic   525.83831   507.18970   515.15162    -0.00001     0.00000    -0.00000
  Fock        0.00000     0.00000     0.00000     0.00000     0.00000     0.00000
  -------------------------------------------------------------------------------------
  Total      16.04656    -6.54393     4.71116     0.00000    -0.00000     0.00000
  in kB     167.59204   -68.34550    49.20387     0.00000    -0.00000     0.00000
  external pressure =       49.48 kB  Pullay stress =        0.00 kB


 VOLUME and BASIS-vectors are now :
 -----------------------------------------------------------------------------
  energy-cutoff  :      450.00
  volume of cell :      153.40
      direct lattice vectors                 reciprocal lattice vectors
     4.432046661  0.000000000  0.000000000     0.225629393  0.000000000 -0.000000000
    -0.000000000  7.597983680  0.000000000     0.000000000  0.131613865  0.000000000
     0.000000000  0.000000000  4.555503530    -0.000000000 -0.000000000  0.219514702

  length of vectors
     4.432046661  7.597983680  4.555503530     0.225629393  0.131613865  0.219514702


 FORCES acting on ions
    electron-ion (+dipol)            ewald-force                    non-local-force                 convergence-correction
 -----------------------------------------------------------------------------------------------
   -.303E-13 -.123E+03 -.197E+02   -.122E-12 0.124E+03 0.200E+02   0.791E-16 -.120E+01 -.315E+00   -.417E-14 -.183E-02 -.687E-02
   -.475E-13 0.123E+03 -.197E+02   0.108E-13 -.124E+03 0.200E+02   -.791E-16 0.120E+01 -.315E+00   -.878E-13 0.183E-02 -.687E-02
   -.817E-13 0.123E+03 0.197E+02   0.120E-12 -.124E+03 -.200E+02   -.791E-16 0.120E+01 0.315E+00   0.928E-13 0.183E-02 0.687E-02
   -.157E-12 -.123E+03 0.197E+02   0.303E-15 0.124E+03 -.200E+02   0.791E-16 -.120E+01 0.315E+00   0.152E-12 -.183E-02 0.687E-02
   0.111E-11 -.123E+03 -.197E+02   -.124E-12 0.124E+03 0.200E+02   0.791E-16 -.120E+01 -.315E+00   0.294E-14 -.183E-02 -.687E-02
   0.102E-11 0.123E+03 -.197E+02   -.796E-15 -.124E+03 0.200E+02   -.791E-16 0.120E+01 -.315E+00   -.974E-13 0.183E-02 -.687E-02
   0.868E-12 0.123E+03 0.197E+02   0.118E-12 -.124E+03 -.200E+02   -.791E-16 0.120E+01 0.315E+00   0.901E-13 0.183E-02 0.687E-02
   0.963E-12 -.123E+03 0.197E+02   -.111E-13 0.124E+03 -.200E+02   0.791E-16 -.120E+01 0.315E+00   0.633E-13 -.183E-02 0.687E-02
 -----------------------------------------------------------------------------------------------
   0.365E-11 0.435E-11 0.190E-11   -.860E-14 -.142E-13 -.355E-14   0.111E-23 -.666E-15 0.555E-16   0.211E-12 -.727E-12 0.308E-11
 
 
 POSITION                                       TOTAL-FORCE (eV/Angst)
 -----------------------------------------------------------------------------------
     -0.00000      2.56208      1.82712        -0.000000      0.001075      0.003259
     -0.00000      1.23691      4.10487         0.000000     -0.001075      0.003259
     -0.00000      5.03591      2.72838         0.000000     -0.001075     -0.003259
     -0.00000      6.36107      0.45063        -0.000000      0.001075     -0.003259
      2.21602      6.36107      1.82712        -0.000000      0.001075      0.003259
      2.21602      5.03591      4.10487         0.000000     -0.001075      0.003259
      2.21602      1.23691      2.72838         0.000000     -0.001075     -0.003259
      2.21602      2.56208      0.45063        -0.000000      0.001075     -0.003259
 -----------------------------------------------------------------------------------
    total drift:                                0.000000      0.000000      0.000000


--------------------------------------------------------------------------------------------------------



  FREE ENERGIE OF THE ION-ELECTRON SYSTEM (eV)
  ---------------------------------------------------
  free  energy   TOTEN  =       -21.70740219 eV

  energy  without entropy=      -21.66790734  energy(sigma->0) =      -21.69423724
 
 d Force = 0.9780904E-05[-0.231E-04, 0.426E-04]  d Energy = 0.3264118E-04-0.229E-04
 d Force =-0.3477225E+00[-0.348E+00,-0.347E+00]  d Ewald  =-0.3477225E+00 0.272E-07


--------------------------------------------------------------------------------------------------------


    POTLOK:  cpu time      0.0170: real time      0.0170


--------------------------------------------------------------------------------------------------------


 Conjugate gradient step on ions:
 trial-energy change:   -0.000033  1 .order   -0.000010   -0.000043    0.000023
  (g-gl).g = 0.936E-05      g.g   = 0.196E-04  gl.gl    = 0.205E-04
 g(Force)  = 0.196E-04   g(Stress)= 0.000E+00 ortho     = 0.140E-05
 gamma     =   0.45769
 trial     =   2.10863
 opt step  =   1.36840  (harmonic =   1.36840) maximal distance =0.00052677
 next E    =   -21.707383   (d E  =  -0.00001)


--------------------------------------------------------------------------------------------------------


  
 reached required accuracy - stopping structural energy minimisation
     LOOP+:  cpu time      1.3476: real time      1.3576
    4ORBIT:  cpu time      0.0000: real time      0.0000

 total amount of memory used by VASP MPI-rank0    76916. kBytes
=======================================================================

   base      :      30000. kBytes
   nonlr-proj:       2478. kBytes
   fftplans  :       6540. kBytes
   grid      :      10030. kBytes
   one-center:        124. kBytes
   wavefun   :      27744. kBytes
 
  
  
 General timing and accounting informations for this job:
 ========================================================
  
                  Total CPU time used (sec):       42.212
                            User time (sec):       40.464
                          System time (sec):        1.748
                         Elapsed time (sec):       44.027
  
                   Maximum memory used (kb):     4144064.
                   Average memory used (kb):          N/A
  
                          Minor page faults:        68756
                          Major page faults:          156
                 Voluntary context switches:         4909
