 running    4 mpi-ranks, on    1 nodes
 distrk:  each k-point on    1 cores,    4 groups
 distr:  one band on    1 cores,    1 groups
 OpenACC runtime initialized ...    4 GPUs detected
 vasp.6.4.2 20Jul23 (build Nov 12 2023 22:16:35) complex                         
 POSCAR found type information on POSCAR GaO P 
 POSCAR found :  3 types and     119 ions
 scaLAPACK will be used selectively (only on CPU)
 LDA part: xc-table for Pade appr. of Perdew
 POSCAR, INCAR and KPOINTS ok, starting setup
 FFT: planning ... GRIDC
 FFT: planning ... GRID_SOFT
 FFT: planning ... GRID
 WAVECAR not read
 initial charge from wavefunction
 entering main loop
       N       E                     dE             d eps       ncg     rms          ort
DAV:   1    -0.184831076991E+05   -0.18483E+05   -0.54329E+05  5000   0.750E+03
DAV:   2    -0.628269034638E+05   -0.44344E+05   -0.42840E+05  5000   0.123E+03
DAV:   3    -0.677798895535E+05   -0.49530E+04   -0.45069E+04  5000   0.373E+02
DAV:   4    -0.684958242391E+05   -0.71593E+03   -0.63838E+03  5000   0.118E+02
DAV:   5    -0.389248125234E+05    0.29571E+05   -0.68112E+02  5000   0.562E+01
 gam= 0.000 g(H,U,f)=  0.788E+05 0.123E+05 0.421E-09 ort(H,U,f) = 0.000E+00 0.000E+00 0.000E+00
SDA:   6     0.321726338729E+05    0.71097E+05   -0.68112E+02  5000   0.911E+05 0.000E+00
 gam= 0.000 trial= 0.400  step= 0.494 mean= 0.400
 gam= 1.260 g(H,U,f)=  0.482E+05 0.429E+05 0.236E+05 ort(H,U,f) =-0.109E+05-0.147E+05-0.695E+04
CGA:   7     0.133007201754E+05   -0.18872E+05   -0.22487E+05  5000   0.115E+06-0.326E+05
 gam= 1.260 trial= 0.405  step= 0.204 mean= 0.405
 gam= 0.457 g(H,U,f)=  0.410E+05 0.113E+05 0.128E+03 ort(H,U,f) =-0.137E+04 0.388E+04 0.752E+02
CGA:   8     0.105731970854E+05   -0.27275E+04   -0.75344E+04  5000   0.525E+05 0.259E+04
 gam= 0.457 trial= 0.395  step= 0.197 mean= 0.395
 gam= 0.638 g(H,U,f)=  0.237E+05 0.942E+04 0.349E+03 ort(H,U,f) = 0.358E+04-0.401E+04-0.480E+03
CGA:   9     0.737289027964E+04   -0.32003E+04   -0.52927E+04  5000   0.335E+05-0.912E+03
 gam= 0.638 trial= 0.385  step= 0.211 mean= 0.385
 gam= 0.651 g(H,U,f)=  0.172E+05 0.448E+04 0.936E+02 ort(H,U,f) = 0.373E+04-0.950E+03-0.599E+02
CGA:  10     0.524032625439E+04   -0.21326E+04   -0.34734E+04  5000   0.218E+05 0.272E+04
 gam= 0.651 trial= 0.376  step= 0.240 mean= 0.376
 gam= 0.349 g(H,U,f)=  0.670E+04 0.910E+03 0.236E+01 ort(H,U,f) = 0.524E+03 0.595E+03 0.194E+01
CGA:  11     0.292710564697E+04   -0.23132E+04   -0.28294E+04  5000   0.761E+04 0.112E+04
 gam= 0.349 trial= 0.369  step= 0.419 mean= 0.369
 gam= 0.476 g(H,U,f)=  0.322E+04 0.402E+03 0.679E+00 ort(H,U,f) = 0.794E+03 0.365E+03 0.249E+00
CGA:  12     0.120202536934E+04   -0.17251E+04   -0.16773E+04  5000   0.362E+04 0.116E+04
 gam= 0.476 trial= 0.372  step= 0.469 mean= 0.372
 gam= 0.468 g(H,U,f)=  0.147E+04 0.219E+03 0.245E+01 ort(H,U,f) = 0.207E+03 0.297E+03 0.337E+01
CGA:  13     0.184743234032E+03   -0.10173E+04   -0.97887E+03  5000   0.170E+04 0.507E+03
 gam= 0.468 trial= 0.377  step= 0.603 mean= 0.377
 gam= 0.532 g(H,U,f)=  0.755E+03 0.146E+03 0.142E+01 ort(H,U,f) =-0.220E+03 0.322E+03 0.259E+01
CGA:  14    -0.415993577492E+03   -0.60074E+03   -0.58223E+03  5000   0.902E+03 0.105E+03
 gam= 0.532 trial= 0.388  step= 0.613 mean= 0.388
 gam= 0.493 g(H,U,f)=  0.390E+03 0.548E+02 0.846E-01 ort(H,U,f) =-0.135E+03 0.607E+02 0.534E+00
CGA:  15    -0.702911545527E+03   -0.28692E+03   -0.29358E+03  5000   0.445E+03-0.736E+02
 gam= 0.493 trial= 0.399  step= 0.480 mean= 0.399
 gam= 0.581 g(H,U,f)=  0.198E+03 0.606E+02 0.507E+00 ort(H,U,f) = 0.396E+02-0.570E+02-0.966E+00
CGA:  16    -0.800032531026E+03   -0.97121E+02   -0.98062E+02  5000   0.259E+03-0.183E+02
 gam= 0.581 trial= 0.403  step= 0.437 mean= 0.403
 gam= 0.562 g(H,U,f)=  0.952E+02 0.501E+02 0.141E+00 ort(H,U,f) = 0.193E+02-0.166E+02 0.916E-01
CGA:  17    -0.854301310349E+03   -0.54269E+02   -0.54185E+02  5000   0.145E+03 0.281E+01
 gam= 0.562 trial= 0.405  step= 0.448 mean= 0.405
 gam= 0.554 g(H,U,f)=  0.542E+02 0.264E+02 0.264E-01 ort(H,U,f) =-0.877E+01 0.132E+02-0.256E-03
CGA:  18    -0.887401754141E+03   -0.33100E+02   -0.32967E+02  5000   0.807E+02 0.446E+01
 gam= 0.554 trial= 0.407  step= 0.521 mean= 0.407
 gam= 0.672 g(H,U,f)=  0.388E+02 0.153E+02 0.471E-01 ort(H,U,f) =-0.116E+02 0.146E+02 0.280E-01
CGA:  19    -0.909233140788E+03   -0.21831E+02   -0.21643E+02  5000   0.542E+02 0.299E+01
 gam= 0.672 trial= 0.413  step= 0.553 mean= 0.413
 gam= 0.611 g(H,U,f)=  0.253E+02 0.782E+01 0.743E-02 ort(H,U,f) =-0.947E+01 0.106E+02-0.412E-01
CGA:  20    -0.924857649244E+03   -0.15625E+02   -0.15556E+02  5000   0.332E+02 0.108E+01
 gam= 0.611 trial= 0.420  step= 0.502 mean= 0.420
 gam= 0.594 g(H,U,f)=  0.152E+02 0.446E+01 0.242E-01 ort(H,U,f) =-0.412E+01 0.461E+01-0.240E-01
CGA:  21    -0.933354357659E+03   -0.84967E+01   -0.84854E+01  5000   0.197E+02 0.458E+00
 gam= 0.594 trial= 0.424  step= 0.511 mean= 0.424
 gam= 0.605 g(H,U,f)=  0.920E+01 0.267E+01 0.506E-01 ort(H,U,f) =-0.874E+00 0.127E+01 0.322E-01
CGA:  22    -0.938483504111E+03   -0.51291E+01   -0.51102E+01  5000   0.119E+02 0.427E+00
 gam= 0.605 trial= 0.428  step= 0.477 mean= 0.428
 gam= 0.532 g(H,U,f)=  0.451E+01 0.177E+01 0.520E-01 ort(H,U,f) = 0.525E-01 0.156E+00-0.173E+00
CGA:  23    -0.941389040232E+03   -0.29055E+01   -0.29061E+01  5000   0.634E+01 0.347E-01
 gam= 0.532 trial= 0.431  step= 0.511 mean= 0.431
 gam= 0.668 g(H,U,f)=  0.281E+01 0.132E+01 0.101E+00 ort(H,U,f) =-0.396E+00 0.552E+00-0.443E-01
CGA:  24    -0.943018614377E+03   -0.16296E+01   -0.16239E+01  5000   0.423E+01 0.112E+00
 gam= 0.668 trial= 0.435  step= 0.506 mean= 0.435
 gam= 0.652 g(H,U,f)=  0.201E+01 0.737E+00 0.111E-01 ort(H,U,f) =-0.506E+00 0.581E+00-0.125E-01
CGA:  25    -0.944111749015E+03   -0.10931E+01   -0.10900E+01  5000   0.276E+01 0.628E-01
 gam= 0.652 trial= 0.438  step= 0.492 mean= 0.438
 gam= 0.586 g(H,U,f)=  0.115E+01 0.443E+00 0.211E-01 ort(H,U,f) =-0.393E+00 0.395E+00 0.230E-02
CGA:  26    -0.944799849856E+03   -0.68810E+00   -0.68805E+00  5000   0.162E+01 0.411E-02
 gam= 0.586 trial= 0.441  step= 0.511 mean= 0.441
 gam= 0.611 g(H,U,f)=  0.759E+00 0.229E+00 0.209E-03 ort(H,U,f) =-0.218E+00 0.223E+00 0.112E-02
CGA:  27    -0.945213434000E+03   -0.41358E+00   -0.41341E+00  5000   0.988E+00 0.521E-02
 gam= 0.611 trial= 0.444  step= 0.548 mean= 0.444
 gam= 0.573 g(H,U,f)=  0.429E+00 0.133E+00 0.490E-02 ort(H,U,f) =-0.603E-01 0.673E-01-0.275E-02
CGA:  28    -0.945485196937E+03   -0.27176E+00   -0.27154E+00  5000   0.566E+00 0.425E-02
 gam= 0.573 trial= 0.450  step= 0.553 mean= 0.450
 gam= 0.527 g(H,U,f)=  0.216E+00 0.817E-01 0.110E-02 ort(H,U,f) =-0.223E-01 0.236E-01 0.127E-02
CGA:  29    -0.945642500942E+03   -0.15730E+00   -0.15716E+00  5000   0.298E+00 0.250E-02
 gam= 0.527 trial= 0.455  step= 0.615 mean= 0.455
 gam= 0.673 g(H,U,f)=  0.144E+00 0.564E-01 0.132E-03 ort(H,U,f) =-0.174E-01 0.189E-01-0.495E-03
CGA:  30    -0.945734733036E+03   -0.92232E-01   -0.92133E-01  5000   0.201E+00 0.104E-02
 gam= 0.673 trial= 0.463  step= 0.597 mean= 0.463
 gam= 0.644 g(H,U,f)=  0.922E-01 0.367E-01 0.376E-03 ort(H,U,f) =-0.181E-01 0.187E-01-0.381E-03
CGA:  31    -0.945794891127E+03   -0.60158E-01   -0.60150E-01  5000   0.129E+00 0.147E-03
 gam= 0.644 trial= 0.470  step= 0.530 mean= 0.470
 gam= 0.607 g(H,U,f)=  0.579E-01 0.206E-01 0.259E-04 ort(H,U,f) =-0.135E-01 0.137E-01-0.179E-05
CGA:  32    -0.945829194167E+03   -0.34303E-01   -0.34298E-01  5000   0.785E-01 0.172E-03
 gam= 0.607 trial= 0.473  step= 0.540 mean= 0.473
 gam= 0.641 g(H,U,f)=  0.366E-01 0.135E-01 0.181E-03 ort(H,U,f) =-0.682E-02 0.709E-02-0.504E-04
CGA:  33    -0.945850406312E+03   -0.21212E-01   -0.21205E-01  5000   0.503E-01 0.224E-03
 gam= 0.641 trial= 0.476  step= 0.545 mean= 0.476
 gam= 0.562 g(H,U,f)=  0.203E-01 0.793E-02 0.535E-04 ort(H,U,f) =-0.440E-02 0.448E-02 0.880E-04
CGA:  34    -0.945864169050E+03   -0.13763E-01   -0.13757E-01  5000   0.283E-01 0.172E-03
 gam= 0.562 trial= 0.479  step= 0.565 mean= 0.479
 gam= 0.595 g(H,U,f)=  0.123E-01 0.452E-02 0.330E-04 ort(H,U,f) =-0.243E-02 0.256E-02-0.795E-04
CGA:  35    -0.945872176984E+03   -0.80079E-02   -0.80061E-02  5000   0.168E-01 0.499E-04
 gam= 0.595 trial= 0.484  step= 0.620 mean= 0.484
 gam= 0.661 g(H,U,f)=  0.836E-02 0.270E-02 0.690E-04 ort(H,U,f) =-0.114E-02 0.116E-02-0.256E-04
CGA:  36    -0.945877398333E+03   -0.52213E-02   -0.52215E-02  5000   0.111E-01-0.262E-05
 gam= 0.661 trial= 0.490  step= 0.552 mean= 0.490
 gam= 0.000 g(H,U,f)=  0.496E-02 0.164E-02 0.279E-05 ort(H,U,f) =-0.577E-03 0.551E-03 0.860E-05
SDA:  37    -0.945880467785E+03   -0.30695E-02   -0.30700E-02  5000   0.660E-02-0.180E-04
 gam= 0.000 trial= 0.494  step= 0.966 mean= 0.494
 gam= 0.446 g(H,U,f)=  0.228E-02 0.667E-03 0.139E-05 ort(H,U,f) =-0.932E-03 0.938E-03 0.192E-05
CGA:  38    -0.945883659274E+03   -0.31915E-02   -0.31898E-02  5000   0.295E-02 0.702E-05
 gam= 0.446 trial= 0.517  step= 0.802 mean= 0.517
 gam= 0.300 g(H,U,f)=  0.742E-03 0.143E-03 0.151E-06 ort(H,U,f) =-0.510E-03 0.496E-03 0.722E-06
CGA:  39    -0.945884840847E+03   -0.11816E-02   -0.11835E-02  5000   0.885E-03-0.131E-04
 gam= 0.300 trial= 0.531  step= 0.696 mean= 0.531
 gam= 0.406 g(H,U,f)=  0.335E-03 0.242E-04 0.883E-07 ort(H,U,f) =-0.119E-03 0.109E-03 0.259E-06
CGA:  40    -0.945885146794E+03   -0.30595E-03   -0.30679E-03  5000   0.359E-03-0.102E-04
 gam= 0.406 trial= 0.540  step= 0.610 mean= 0.540
 gam= 0.268 g(H,U,f)=  0.914E-04 0.472E-05 0.103E-06 ort(H,U,f) =-0.184E-04 0.165E-04 0.203E-06
CGA:  41    -0.945885255133E+03   -0.10834E-03   -0.10840E-03  5000   0.962E-04-0.175E-05
 gam= 0.268 trial= 0.543  step= 0.619 mean= 0.543
 gam= 0.289 g(H,U,f)=  0.274E-04 0.367E-06 0.348E-07 ort(H,U,f) = 0.446E-06 0.589E-06 0.915E-07
CGA:  42    -0.945885284788E+03   -0.29655E-04   -0.29611E-04  5000   0.278E-04 0.113E-05
 gam= 0.289 trial= 0.547  step= 0.580 mean= 0.547
 gam= 0.347 g(H,U,f)=  0.932E-05 0.342E-06 0.542E-08 ort(H,U,f) = 0.105E-06-0.375E-06 0.239E-07
CGA:  43    -0.945885292957E+03   -0.81692E-05   -0.81726E-05  5000   0.966E-05-0.245E-06
 gam= 0.347 trial= 0.549  step= 0.709 mean= 0.549
 final diagonalization
   1 F= -.94588529E+03 E0= -.94588320E+03  d E =-.417641E-02
 writing wavefunctions
Warning: ieee_invalid is signaling
Warning: ieee_divide_by_zero is signaling
Warning: ieee_underflow is signaling
Warning: ieee_inexact is signaling
FORTRAN STOP
Warning: ieee_invalid is signaling
Warning: ieee_divide_by_zero is signaling
Warning: ieee_underflow is signaling
Warning: ieee_inexact is signaling
FORTRAN STOP
Warning: ieee_invalid is signaling
Warning: ieee_divide_by_zero is signaling
Warning: ieee_underflow is signaling
Warning: ieee_inexact is signaling
FORTRAN STOP
Warning: ieee_invalid is signaling
Warning: ieee_divide_by_zero is signaling
Warning: ieee_underflow is signaling
Warning: ieee_inexact is signaling
FORTRAN STOP
 running    4 mpi-ranks, on    1 nodes
 distrk:  each k-point on    1 cores,    4 groups
 distr:  one band on    1 cores,    1 groups
 OpenACC runtime initialized ...    4 GPUs detected
 vasp.6.4.2 20Jul23 (build Nov 12 2023 22:16:35) complex                         
 POSCAR found type information on POSCAR GaO P 
 POSCAR found :  3 types and     119 ions
 scaLAPACK will be used selectively (only on CPU)
 LDA part: xc-table for Pade appr. of Perdew
 POSCAR, INCAR and KPOINTS ok, starting setup
 FFT: planning ... GRIDC
 FFT: planning ... GRID_SOFT
 FFT: planning ... GRID
 WAVECAR not read
 initial charge from wavefunction
 entering main loop
       N       E                     dE             d eps       ncg     rms          ort
DAV:   1    -0.184831076991E+05   -0.18483E+05   -0.54329E+05  5000   0.750E+03
DAV:   2    -0.628269034638E+05   -0.44344E+05   -0.42840E+05  5000   0.123E+03
DAV:   3    -0.677798895535E+05   -0.49530E+04   -0.45069E+04  5000   0.373E+02
DAV:   4    -0.684958242391E+05   -0.71593E+03   -0.63838E+03  5000   0.118E+02
DAV:   5    -0.389248125234E+05    0.29571E+05   -0.68112E+02  5000   0.562E+01
 gam= 0.000 g(H,U,f)=  0.788E+05 0.123E+05 0.421E-09 ort(H,U,f) = 0.000E+00 0.000E+00 0.000E+00
SDA:   6     0.321726338729E+05    0.71097E+05   -0.68112E+02  5000   0.911E+05 0.000E+00
 gam= 0.000 trial= 0.400  step= 0.494 mean= 0.400
 gam= 1.260 g(H,U,f)=  0.482E+05 0.429E+05 0.236E+05 ort(H,U,f) =-0.109E+05-0.147E+05-0.695E+04
CGA:   7     0.133007201747E+05   -0.18872E+05   -0.22487E+05  5000   0.115E+06-0.326E+05
 gam= 1.260 trial= 0.405  step= 0.204 mean= 0.405
 gam= 0.457 g(H,U,f)=  0.410E+05 0.113E+05 0.128E+03 ort(H,U,f) =-0.137E+04 0.388E+04 0.752E+02
CGA:   8     0.105731970968E+05   -0.27275E+04   -0.75344E+04  5000   0.525E+05 0.259E+04
 gam= 0.457 trial= 0.395  step= 0.197 mean= 0.395
 gam= 0.638 g(H,U,f)=  0.237E+05 0.942E+04 0.349E+03 ort(H,U,f) = 0.358E+04-0.401E+04-0.480E+03
CGA:   9     0.737289027439E+04   -0.32003E+04   -0.52927E+04  5000   0.335E+05-0.912E+03
 gam= 0.638 trial= 0.385  step= 0.211 mean= 0.385
 gam= 0.651 g(H,U,f)=  0.172E+05 0.448E+04 0.936E+02 ort(H,U,f) = 0.373E+04-0.950E+03-0.599E+02
CGA:  10     0.524032625912E+04   -0.21326E+04   -0.34734E+04  5000   0.218E+05 0.272E+04
 gam= 0.651 trial= 0.376  step= 0.240 mean= 0.376
 gam= 0.349 g(H,U,f)=  0.670E+04 0.910E+03 0.236E+01 ort(H,U,f) = 0.524E+03 0.595E+03 0.194E+01
CGA:  11     0.292710565158E+04   -0.23132E+04   -0.28294E+04  5000   0.761E+04 0.112E+04
 gam= 0.349 trial= 0.369  step= 0.419 mean= 0.369
 gam= 0.476 g(H,U,f)=  0.322E+04 0.402E+03 0.679E+00 ort(H,U,f) = 0.794E+03 0.365E+03 0.249E+00
CGA:  12     0.120202537115E+04   -0.17251E+04   -0.16773E+04  5000   0.362E+04 0.116E+04
 gam= 0.476 trial= 0.372  step= 0.469 mean= 0.372
 gam= 0.468 g(H,U,f)=  0.147E+04 0.219E+03 0.245E+01 ort(H,U,f) = 0.207E+03 0.297E+03 0.337E+01
CGA:  13     0.184743234011E+03   -0.10173E+04   -0.97887E+03  5000   0.170E+04 0.507E+03
 gam= 0.468 trial= 0.377  step= 0.603 mean= 0.377
 gam= 0.532 g(H,U,f)=  0.755E+03 0.146E+03 0.142E+01 ort(H,U,f) =-0.220E+03 0.322E+03 0.259E+01
CGA:  14    -0.415993577871E+03   -0.60074E+03   -0.58223E+03  5000   0.902E+03 0.105E+03
 gam= 0.532 trial= 0.388  step= 0.613 mean= 0.388
 gam= 0.493 g(H,U,f)=  0.390E+03 0.548E+02 0.846E-01 ort(H,U,f) =-0.135E+03 0.607E+02 0.534E+00
CGA:  15    -0.702911546511E+03   -0.28692E+03   -0.29358E+03  5000   0.445E+03-0.736E+02
 gam= 0.493 trial= 0.399  step= 0.480 mean= 0.399
 gam= 0.581 g(H,U,f)=  0.198E+03 0.606E+02 0.507E+00 ort(H,U,f) = 0.396E+02-0.570E+02-0.966E+00
CGA:  16    -0.800032531656E+03   -0.97121E+02   -0.98062E+02  5000   0.259E+03-0.183E+02
 gam= 0.581 trial= 0.403  step= 0.437 mean= 0.403
 gam= 0.562 g(H,U,f)=  0.952E+02 0.501E+02 0.141E+00 ort(H,U,f) = 0.193E+02-0.166E+02 0.916E-01
CGA:  17    -0.854301310709E+03   -0.54269E+02   -0.54185E+02  5000   0.145E+03 0.281E+01
 gam= 0.562 trial= 0.405  step= 0.448 mean= 0.405
 gam= 0.554 g(H,U,f)=  0.542E+02 0.264E+02 0.264E-01 ort(H,U,f) =-0.877E+01 0.132E+02-0.256E-03
CGA:  18    -0.887401754358E+03   -0.33100E+02   -0.32967E+02  5000   0.807E+02 0.446E+01
 gam= 0.554 trial= 0.407  step= 0.521 mean= 0.407
 gam= 0.672 g(H,U,f)=  0.388E+02 0.153E+02 0.471E-01 ort(H,U,f) =-0.116E+02 0.146E+02 0.280E-01
CGA:  19    -0.909233140890E+03   -0.21831E+02   -0.21643E+02  5000   0.542E+02 0.299E+01
 gam= 0.672 trial= 0.413  step= 0.553 mean= 0.413
 gam= 0.611 g(H,U,f)=  0.253E+02 0.782E+01 0.743E-02 ort(H,U,f) =-0.947E+01 0.106E+02-0.412E-01
CGA:  20    -0.924857649305E+03   -0.15625E+02   -0.15556E+02  5000   0.332E+02 0.108E+01
 gam= 0.611 trial= 0.420  step= 0.502 mean= 0.420
 gam= 0.594 g(H,U,f)=  0.152E+02 0.446E+01 0.242E-01 ort(H,U,f) =-0.412E+01 0.461E+01-0.240E-01
CGA:  21    -0.933354357681E+03   -0.84967E+01   -0.84854E+01  5000   0.197E+02 0.458E+00
 gam= 0.594 trial= 0.424  step= 0.511 mean= 0.424
 gam= 0.605 g(H,U,f)=  0.920E+01 0.267E+01 0.506E-01 ort(H,U,f) =-0.874E+00 0.127E+01 0.322E-01
CGA:  22    -0.938483504110E+03   -0.51291E+01   -0.51102E+01  5000   0.119E+02 0.427E+00
 gam= 0.605 trial= 0.428  step= 0.477 mean= 0.428
 gam= 0.532 g(H,U,f)=  0.451E+01 0.177E+01 0.520E-01 ort(H,U,f) = 0.525E-01 0.156E+00-0.173E+00
CGA:  23    -0.941389040232E+03   -0.29055E+01   -0.29061E+01  5000   0.634E+01 0.347E-01
 gam= 0.532 trial= 0.431  step= 0.511 mean= 0.431
 gam= 0.668 g(H,U,f)=  0.281E+01 0.132E+01 0.101E+00 ort(H,U,f) =-0.396E+00 0.552E+00-0.443E-01
CGA:  24    -0.943018614366E+03   -0.16296E+01   -0.16239E+01  5000   0.423E+01 0.112E+00
 gam= 0.668 trial= 0.435  step= 0.506 mean= 0.435
 gam= 0.652 g(H,U,f)=  0.201E+01 0.737E+00 0.111E-01 ort(H,U,f) =-0.506E+00 0.581E+00-0.125E-01
CGA:  25    -0.944111749006E+03   -0.10931E+01   -0.10900E+01  5000   0.276E+01 0.628E-01
 gam= 0.652 trial= 0.438  step= 0.492 mean= 0.438
 gam= 0.586 g(H,U,f)=  0.115E+01 0.443E+00 0.211E-01 ort(H,U,f) =-0.393E+00 0.395E+00 0.230E-02
CGA:  26    -0.944799849849E+03   -0.68810E+00   -0.68805E+00  5000   0.162E+01 0.411E-02
 gam= 0.586 trial= 0.441  step= 0.511 mean= 0.441
 gam= 0.611 g(H,U,f)=  0.759E+00 0.229E+00 0.209E-03 ort(H,U,f) =-0.218E+00 0.223E+00 0.112E-02
CGA:  27    -0.945213433994E+03   -0.41358E+00   -0.41341E+00  5000   0.988E+00 0.521E-02
 gam= 0.611 trial= 0.444  step= 0.548 mean= 0.444
 gam= 0.573 g(H,U,f)=  0.429E+00 0.133E+00 0.490E-02 ort(H,U,f) =-0.603E-01 0.673E-01-0.275E-02
CGA:  28    -0.945485196934E+03   -0.27176E+00   -0.27154E+00  5000   0.566E+00 0.425E-02
 gam= 0.573 trial= 0.450  step= 0.553 mean= 0.450
 gam= 0.527 g(H,U,f)=  0.216E+00 0.817E-01 0.110E-02 ort(H,U,f) =-0.223E-01 0.236E-01 0.127E-02
CGA:  29    -0.945642500938E+03   -0.15730E+00   -0.15716E+00  5000   0.298E+00 0.250E-02
 gam= 0.527 trial= 0.455  step= 0.615 mean= 0.455
 gam= 0.673 g(H,U,f)=  0.144E+00 0.564E-01 0.132E-03 ort(H,U,f) =-0.174E-01 0.189E-01-0.495E-03
CGA:  30    -0.945734733033E+03   -0.92232E-01   -0.92133E-01  5000   0.201E+00 0.104E-02
 gam= 0.673 trial= 0.463  step= 0.597 mean= 0.463
 gam= 0.644 g(H,U,f)=  0.922E-01 0.367E-01 0.376E-03 ort(H,U,f) =-0.181E-01 0.187E-01-0.381E-03
CGA:  31    -0.945794891124E+03   -0.60158E-01   -0.60150E-01  5000   0.129E+00 0.147E-03
 gam= 0.644 trial= 0.470  step= 0.530 mean= 0.470
 gam= 0.607 g(H,U,f)=  0.579E-01 0.206E-01 0.259E-04 ort(H,U,f) =-0.135E-01 0.137E-01-0.179E-05
CGA:  32    -0.945829194164E+03   -0.34303E-01   -0.34298E-01  5000   0.785E-01 0.172E-03
 gam= 0.607 trial= 0.473  step= 0.540 mean= 0.473
 gam= 0.641 g(H,U,f)=  0.366E-01 0.135E-01 0.181E-03 ort(H,U,f) =-0.682E-02 0.709E-02-0.504E-04
CGA:  33    -0.945850406310E+03   -0.21212E-01   -0.21205E-01  5000   0.503E-01 0.224E-03
 gam= 0.641 trial= 0.476  step= 0.545 mean= 0.476
 gam= 0.562 g(H,U,f)=  0.203E-01 0.793E-02 0.535E-04 ort(H,U,f) =-0.440E-02 0.448E-02 0.880E-04
CGA:  34    -0.945864169049E+03   -0.13763E-01   -0.13757E-01  5000   0.283E-01 0.172E-03
 gam= 0.562 trial= 0.479  step= 0.565 mean= 0.479
 gam= 0.595 g(H,U,f)=  0.123E-01 0.452E-02 0.330E-04 ort(H,U,f) =-0.243E-02 0.256E-02-0.795E-04
CGA:  35    -0.945872176984E+03   -0.80079E-02   -0.80061E-02  5000   0.168E-01 0.499E-04
 gam= 0.595 trial= 0.484  step= 0.620 mean= 0.484
 gam= 0.661 g(H,U,f)=  0.836E-02 0.270E-02 0.690E-04 ort(H,U,f) =-0.114E-02 0.116E-02-0.256E-04
CGA:  36    -0.945877398332E+03   -0.52213E-02   -0.52215E-02  5000   0.111E-01-0.261E-05
 gam= 0.661 trial= 0.490  step= 0.552 mean= 0.490
 gam= 0.000 g(H,U,f)=  0.496E-02 0.164E-02 0.279E-05 ort(H,U,f) =-0.577E-03 0.551E-03 0.860E-05
SDA:  37    -0.945880467784E+03   -0.30695E-02   -0.30700E-02  5000   0.660E-02-0.180E-04
 gam= 0.000 trial= 0.494  step= 0.966 mean= 0.494
 gam= 0.446 g(H,U,f)=  0.228E-02 0.667E-03 0.139E-05 ort(H,U,f) =-0.932E-03 0.938E-03 0.192E-05
CGA:  38    -0.945883659273E+03   -0.31915E-02   -0.31898E-02  5000   0.295E-02 0.701E-05
 gam= 0.446 trial= 0.517  step= 0.802 mean= 0.517
 gam= 0.300 g(H,U,f)=  0.742E-03 0.143E-03 0.151E-06 ort(H,U,f) =-0.510E-03 0.496E-03 0.722E-06
CGA:  39    -0.945884840848E+03   -0.11816E-02   -0.11835E-02  5000   0.885E-03-0.131E-04
 gam= 0.300 trial= 0.531  step= 0.696 mean= 0.531
 gam= 0.406 g(H,U,f)=  0.335E-03 0.242E-04 0.883E-07 ort(H,U,f) =-0.119E-03 0.109E-03 0.259E-06
CGA:  40    -0.945885146793E+03   -0.30595E-03   -0.30679E-03  5000   0.359E-03-0.102E-04
 gam= 0.406 trial= 0.540  step= 0.610 mean= 0.540
 gam= 0.268 g(H,U,f)=  0.914E-04 0.472E-05 0.103E-06 ort(H,U,f) =-0.184E-04 0.165E-04 0.203E-06
CGA:  41    -0.945885255133E+03   -0.10834E-03   -0.10840E-03  5000   0.962E-04-0.175E-05
 gam= 0.268 trial= 0.543  step= 0.619 mean= 0.543
 gam= 0.289 g(H,U,f)=  0.274E-04 0.367E-06 0.348E-07 ort(H,U,f) = 0.442E-06 0.589E-06 0.915E-07
CGA:  42    -0.945885284787E+03   -0.29654E-04   -0.29612E-04  5000   0.278E-04 0.112E-05
 gam= 0.289 trial= 0.547  step= 0.580 mean= 0.547
 gam= 0.347 g(H,U,f)=  0.932E-05 0.343E-06 0.542E-08 ort(H,U,f) = 0.102E-06-0.375E-06 0.239E-07
CGA:  43    -0.945885292956E+03   -0.81688E-05   -0.81735E-05  5000   0.967E-05-0.249E-06
 gam= 0.347 trial= 0.549  step= 0.709 mean= 0.549
 final diagonalization
   1 F= -.94588529E+03 E0= -.94588320E+03  d E =-.417640E-02
 writing wavefunctions
Warning: ieee_invalid is signaling
Warning: ieee_divide_by_zero is signaling
Warning: ieee_underflow is signaling
Warning: ieee_inexact is signaling
FORTRAN STOP
Warning: ieee_invalid is signaling
Warning: ieee_divide_by_zero is signaling
Warning: ieee_underflow is signaling
Warning: ieee_inexact is signaling
FORTRAN STOP
Warning: ieee_invalid is signaling
Warning: ieee_divide_by_zero is signaling
Warning: ieee_underflow is signaling
Warning: ieee_inexact is signaling
FORTRAN STOP
Warning: ieee_invalid is signaling
Warning: ieee_divide_by_zero is signaling
Warning: ieee_underflow is signaling
Warning: ieee_inexact is signaling
FORTRAN STOP
