       N       E                     dE             d eps       ncg     rms          ort
DAV:   1    -0.184831076991E+05   -0.18483E+05   -0.54329E+05  5000   0.750E+03
DAV:   2    -0.628269034638E+05   -0.44344E+05   -0.42840E+05  5000   0.123E+03
DAV:   3    -0.677798895535E+05   -0.49530E+04   -0.45069E+04  5000   0.373E+02
DAV:   4    -0.684958242391E+05   -0.71593E+03   -0.63838E+03  5000   0.118E+02
DAV:   5    -0.389248125234E+05    0.29571E+05   -0.68112E+02  5000   0.562E+01
SDA:   6     0.321726338729E+05    0.71097E+05   -0.68112E+02  5000   0.911E+05 0.000E+00
CGA:   7     0.133007201754E+05   -0.18872E+05   -0.22487E+05  5000   0.115E+06-0.326E+05
CGA:   8     0.105731970854E+05   -0.27275E+04   -0.75344E+04  5000   0.525E+05 0.259E+04
CGA:   9     0.737289027964E+04   -0.32003E+04   -0.52927E+04  5000   0.335E+05-0.912E+03
CGA:  10     0.524032625439E+04   -0.21326E+04   -0.34734E+04  5000   0.218E+05 0.272E+04
CGA:  11     0.292710564697E+04   -0.23132E+04   -0.28294E+04  5000   0.761E+04 0.112E+04
CGA:  12     0.120202536934E+04   -0.17251E+04   -0.16773E+04  5000   0.362E+04 0.116E+04
CGA:  13     0.184743234032E+03   -0.10173E+04   -0.97887E+03  5000   0.170E+04 0.507E+03
CGA:  14    -0.415993577492E+03   -0.60074E+03   -0.58223E+03  5000   0.902E+03 0.105E+03
CGA:  15    -0.702911545527E+03   -0.28692E+03   -0.29358E+03  5000   0.445E+03-0.736E+02
CGA:  16    -0.800032531026E+03   -0.97121E+02   -0.98062E+02  5000   0.259E+03-0.183E+02
CGA:  17    -0.854301310349E+03   -0.54269E+02   -0.54185E+02  5000   0.145E+03 0.281E+01
CGA:  18    -0.887401754141E+03   -0.33100E+02   -0.32967E+02  5000   0.807E+02 0.446E+01
CGA:  19    -0.909233140788E+03   -0.21831E+02   -0.21643E+02  5000   0.542E+02 0.299E+01
CGA:  20    -0.924857649244E+03   -0.15625E+02   -0.15556E+02  5000   0.332E+02 0.108E+01
CGA:  21    -0.933354357659E+03   -0.84967E+01   -0.84854E+01  5000   0.197E+02 0.458E+00
CGA:  22    -0.938483504111E+03   -0.51291E+01   -0.51102E+01  5000   0.119E+02 0.427E+00
CGA:  23    -0.941389040232E+03   -0.29055E+01   -0.29061E+01  5000   0.634E+01 0.347E-01
CGA:  24    -0.943018614377E+03   -0.16296E+01   -0.16239E+01  5000   0.423E+01 0.112E+00
CGA:  25    -0.944111749015E+03   -0.10931E+01   -0.10900E+01  5000   0.276E+01 0.628E-01
CGA:  26    -0.944799849856E+03   -0.68810E+00   -0.68805E+00  5000   0.162E+01 0.411E-02
CGA:  27    -0.945213434000E+03   -0.41358E+00   -0.41341E+00  5000   0.988E+00 0.521E-02
CGA:  28    -0.945485196937E+03   -0.27176E+00   -0.27154E+00  5000   0.566E+00 0.425E-02
CGA:  29    -0.945642500942E+03   -0.15730E+00   -0.15716E+00  5000   0.298E+00 0.250E-02
CGA:  30    -0.945734733036E+03   -0.92232E-01   -0.92133E-01  5000   0.201E+00 0.104E-02
CGA:  31    -0.945794891127E+03   -0.60158E-01   -0.60150E-01  5000   0.129E+00 0.147E-03
CGA:  32    -0.945829194167E+03   -0.34303E-01   -0.34298E-01  5000   0.785E-01 0.172E-03
CGA:  33    -0.945850406312E+03   -0.21212E-01   -0.21205E-01  5000   0.503E-01 0.224E-03
CGA:  34    -0.945864169050E+03   -0.13763E-01   -0.13757E-01  5000   0.283E-01 0.172E-03
CGA:  35    -0.945872176984E+03   -0.80079E-02   -0.80061E-02  5000   0.168E-01 0.499E-04
CGA:  36    -0.945877398333E+03   -0.52213E-02   -0.52215E-02  5000   0.111E-01-0.262E-05
SDA:  37    -0.945880467785E+03   -0.30695E-02   -0.30700E-02  5000   0.660E-02-0.180E-04
CGA:  38    -0.945883659274E+03   -0.31915E-02   -0.31898E-02  5000   0.295E-02 0.702E-05
CGA:  39    -0.945884840847E+03   -0.11816E-02   -0.11835E-02  5000   0.885E-03-0.131E-04
CGA:  40    -0.945885146794E+03   -0.30595E-03   -0.30679E-03  5000   0.359E-03-0.102E-04
CGA:  41    -0.945885255133E+03   -0.10834E-03   -0.10840E-03  5000   0.962E-04-0.175E-05
CGA:  42    -0.945885284788E+03   -0.29655E-04   -0.29611E-04  5000   0.278E-04 0.113E-05
CGA:  43    -0.945885292957E+03   -0.81692E-05   -0.81726E-05  5000   0.966E-05-0.245E-06
   1 F= -.94588529E+03 E0= -.94588320E+03  d E =-.417641E-02
