 vasp.6.4.2 20Jul23 (build Nov 12 2023 22:16:35) complex                         
 executed on              LinuxNV date 2025.03.29  05:51:25
 running    4 mpi-ranks, on    1 nodes
 distrk:  each k-point on    1 cores,    4 groups
 distr:  one band on NCORE=   1 cores,    1 groups
 OpenACC runtime initialized ...    4 GPUs detected


--------------------------------------------------------------------------------------------------------


 INCAR:
   PREC = Normal
   ENCUT = 450
   NELM = 500
   IBRION = -1
   ISPIN = 1
   NSW = 0
   ISIF = 2
   EDIFF = 1E-5
   EDIFFG = -5E-3
   ISTART = 0
   ICHARG = 0
   ISMEAR = 0
   SIGMA = 0.05
   LWAVE = .T.
   LCHARG = .T.
   LREAL = Auto
   LPLANE = .TRUE.
   NPAR = 1
   KPAR = 4
   NCORE = 1
   ALGO = All
   LHFCALC = .TRUE.
   HSE06 = .TRUE.
   HFSCREEN = 0.2
   TIME = 0.4
   AEXX = 0.32
   LMAXFOCK = 4
   PRECFOCK = Fast

 POTCAR:    PAW_PBE Ga_d 06Jul2010                
 POTCAR:     PAW_PBE O 08Apr2002                  
 POTCAR:    PAW_PBE P 06Sep2000                   
 POTCAR:    PAW_PBE Ga_d 06Jul2010                
   SHA256 =  a60ddf36e14f00ea098d9e3914b3745f1b7105e68786148f49ae384e44b4226c Ga_d/POTCAR           
   COPYR  = (c) Copyright 06Jul2010 Georg Kresse                                                    
   COPYR  = This file is part of the software VASP. Any use, copying, and all other rights are regul
   COPYR  = If you do not have a valid VASP license, you may not use, copy or distribute this file. 
   VRHFIN =Ga: s2p1                                                                                 
   LEXCH  = PE                                                                                      
   EATOM  =  2148.8298 eV,  157.9345 Ry                                                             
                                                                                                    
   TITEL  = PAW_PBE Ga_d 06Jul2010                                                                  
   LULTRA =        F    use ultrasoft PP ?                                                          
   IUNSCR =        1    unscreen: 0-lin 1-nonlin 2-no                                               
   RPACOR =    1.700    partial core radius                                                         
   POMASS =   69.723; ZVAL   =   13.000    mass and valenz                                          
   RCORE  =    2.300    outmost cutoff radius                                                       
   RWIGS  =    2.300; RWIGS  =    1.217    wigner-seitz radius (au A)                               
   ENMAX  =  282.691; ENMIN  =  212.018 eV                                                          
   ICORE  =        3    local potential                                                             
   LCOR   =        T    correct aug charges                                                         
   LPAW   =        T    paw PP                                                                      
   EAUG   =  490.690                                                                                
   DEXC   =    0.000                                                                                
   RMAX   =    2.341    core radius for proj-oper                                                   
   RAUG   =    1.300    factor for augmentation sphere                                              
   RDEP   =    2.413    radius for radial grids                                                     
   RDEPT  =    1.856    core radius for aug-charge                                                  
                                                                                                    
   Atomic configuration                                                                             
    9 entries                                                                                       
     n  l   j            E        occ.                                                              
     1  0  0.50    -10228.7831   2.0000                                                             
     2  0  0.50     -1262.1604   2.0000                                                             
     2  1  1.50     -1098.6333   6.0000                                                             
     3  0  0.50      -148.1110   2.0000                                                             
     3  1  1.50       -98.8436   6.0000                                                             
     3  2  2.50       -19.1549  10.0000                                                             
     4  0  0.50        -8.9483   2.0000                                                             
     4  1  0.50        -2.5791   1.0000                                                             
     4  3  2.50        -2.7416   0.0000                                                             
   Description                                                                                      
     l       E           TYP  RCUT    TYP  RCUT                                                     
     2    -19.1549037     23  2.300                                                                 
     2     -5.4423304     23  2.300                                                                 
     0     -8.9483111     23  2.300                                                                 
     0     68.0291300     23  2.300                                                                 
     1     -2.5790802     23  2.100                                                                 
     1     81.6349560     23  2.300                                                                 
     3      6.8029130     23  2.300                                                                 
  local pseudopotential read in
  partial core-charges read in
  partial kinetic energy density read in
  atomic valenz-charges read in
  non local Contribution for L=            2  read in
    real space projection operators read in
  non local Contribution for L=            2  read in
    real space projection operators read in
  non local Contribution for L=            0  read in
    real space projection operators read in
  non local Contribution for L=            0  read in
    real space projection operators read in
  non local Contribution for L=            1  read in
    real space projection operators read in
  non local Contribution for L=            1  read in
    real space projection operators read in
    PAW grid and wavefunctions read in
 
   number of l-projection  operators is LMAX  =            6
   number of lm-projection operators is LMMAX =           18
 
 POTCAR:     PAW_PBE O 08Apr2002                  
   SHA256 =  818f92134a0a090dccd8ba1447fa70422a3b330e708bb4f08108d8ae51209ddf O/POTCAR              
   COPYR  = (c) Copyright 08Apr2002 Georg Kresse                                                    
   COPYR  = This file is part of the software VASP. Any use, copying, and all other rights are regul
   COPYR  = If you do not have a valid VASP license, you may not use, copy or distribute this file. 
   VRHFIN =O: s2p4                                                                                  
   LEXCH  = PE                                                                                      
   EATOM  =   432.3788 eV,   31.7789 Ry                                                             
                                                                                                    
   TITEL  = PAW_PBE O 08Apr2002                                                                     
   LULTRA =        F    use ultrasoft PP ?                                                          
   IUNSCR =        1    unscreen: 0-lin 1-nonlin 2-no                                               
   RPACOR =    1.200    partial core radius                                                         
   POMASS =   16.000; ZVAL   =    6.000    mass and valenz                                          
   RCORE  =    1.520    outmost cutoff radius                                                       
   RWIGS  =    1.550; RWIGS  =    0.820    wigner-seitz radius (au A)                               
   ENMAX  =  400.000; ENMIN  =  300.000 eV                                                          
   ICORE  =        2    local potential                                                             
   LCOR   =        T    correct aug charges                                                         
   LPAW   =        T    paw PP                                                                      
   EAUG   =  605.392                                                                                
   DEXC   =    0.000                                                                                
   RMAX   =    1.553    core radius for proj-oper                                                   
   RAUG   =    1.300    factor for augmentation sphere                                              
   RDEP   =    1.550    radius for radial grids                                                     
   RDEPT  =    1.329    core radius for aug-charge                                                  
                                                                                                    
   Atomic configuration                                                                             
    4 entries                                                                                       
     n  l   j            E        occ.                                                              
     1  0  0.50      -514.6923   2.0000                                                             
     2  0  0.50       -23.9615   2.0000                                                             
     2  1  0.50        -9.0305   4.0000                                                             
     3  2  1.50        -9.5241   0.0000                                                             
   Description                                                                                      
     l       E           TYP  RCUT    TYP  RCUT                                                     
     0    -23.9615318     23  1.200                                                                 
     0     -9.5240782     23  1.200                                                                 
     1     -9.0304911     23  1.520                                                                 
     1      8.1634956     23  1.520                                                                 
     2     -9.5240782      7  1.500                                                                 
  local pseudopotential read in
  partial core-charges read in
  partial kinetic energy density read in
  kinetic energy density of atom read in
  atomic valenz-charges read in
  non local Contribution for L=            0  read in
    real space projection operators read in
  non local Contribution for L=            0  read in
    real space projection operators read in
  non local Contribution for L=            1  read in
    real space projection operators read in
  non local Contribution for L=            1  read in
    real space projection operators read in
    PAW grid and wavefunctions read in
 
   number of l-projection  operators is LMAX  =            4
   number of lm-projection operators is LMMAX =            8
 
 POTCAR:    PAW_PBE P 06Sep2000                   
   SHA256 =  df60c54a93efe35c9e85ae94c010c75e9f6960a95d5595d7cdba4096d109af88 P/POTCAR              
   COPYR  = (c) Copyright 06Sep2000 Georg Kresse                                                    
   COPYR  = This file is part of the software VASP. Any use, copying, and all other rights are regul
   COPYR  = If you do not have a valid VASP license, you may not use, copy or distribute this file. 
   VRHFIN =P : s2p3                                                                                 
   LEXCH  = PE                                                                                      
   EATOM  =   176.0430 eV,   12.9388 Ry                                                             
                                                                                                    
   TITEL  = PAW_PBE P 06Sep2000                                                                     
   LULTRA =        F    use ultrasoft PP ?                                                          
   IUNSCR =        1    unscreen: 0-lin 1-nonlin 2-no                                               
   RPACOR =    1.500    partial core radius                                                         
   POMASS =   30.974; ZVAL   =    5.000    mass and valenz                                          
   RCORE  =    1.900    outmost cutoff radius                                                       
   RWIGS  =    2.330; RWIGS  =    1.233    wigner-seitz radius (au A)                               
   ENMAX  =  255.040; ENMIN  =  191.280 eV                                                          
   ICORE  =        2    local potential                                                             
   LCOR   =        T    correct aug charges                                                         
   LPAW   =        T    paw PP                                                                      
   EAUG   =  342.924                                                                                
   DEXC   =    0.000                                                                                
   RMAX   =    1.935    core radius for proj-oper                                                   
   RAUG   =    1.300    factor for augmentation sphere                                              
   RDEP   =    1.931    radius for radial grids                                                     
   RDEPT  =    1.794    core radius for aug-charge                                                  
                                                                                                    
   Atomic configuration                                                                             
    6 entries                                                                                       
     n  l   j            E        occ.                                                              
     1  0  0.50     -2084.0982   2.0000                                                             
     2  0  0.50      -173.9859   2.0000                                                             
     2  1  1.50      -124.4865   6.0000                                                             
     3  0  0.50       -13.9692   2.0000                                                             
     3  1  0.50        -5.5067   3.0000                                                             
     3  2  1.50        -5.4423   0.0000                                                             
   Description                                                                                      
     l       E           TYP  RCUT    TYP  RCUT                                                     
     0    -13.9691527     23  1.900                                                                 
     0    -11.7794650     23  1.900                                                                 
     1     -5.5066937     23  1.900                                                                 
     1     -0.2556953     23  1.900                                                                 
     2     -5.4423304     23  1.900                                                                 
  local pseudopotential read in
  partial core-charges read in
  partial kinetic energy density read in
  atomic valenz-charges read in
  non local Contribution for L=            0  read in
    real space projection operators read in
  non local Contribution for L=            0  read in
    real space projection operators read in
  non local Contribution for L=            1  read in
    real space projection operators read in
  non local Contribution for L=            1  read in
    real space projection operators read in
    PAW grid and wavefunctions read in
 
   number of l-projection  operators is LMAX  =            4
   number of lm-projection operators is LMMAX =            8
 
 Optimization of the real space projectors (new method)

 maximal supplied QI-value         = 16.25
 optimisation between [QCUT,QGAM] = [ 10.73, 21.61] = [ 32.22,130.83] Ry 
 Optimized for a Real-space Cutoff    1.42 Angstroem

   l    n(q)    QCUT    max X(q) W(low)/X(q) W(high)/X(q)  e(spline) 
   2      8    10.726     7.143    0.22E-03    0.16E-03    0.73E-07
   2      8    10.726     5.586    0.40E-03    0.26E-03    0.10E-06
   0      9    10.726    12.382    0.25E-04    0.21E-05    0.37E-07
   0      9    10.726     6.622    0.42E-04    0.48E-05    0.77E-07
   1      9    10.726     7.935    0.27E-03    0.13E-04    0.16E-06
   1      9    10.726     2.425    0.23E-03    0.15E-04    0.14E-06
 Optimization of the real space projectors (new method)

 maximal supplied QI-value         = 24.76
 optimisation between [QCUT,QGAM] = [ 10.64, 21.54] = [ 31.73,129.89] Ry 
 Optimized for a Real-space Cutoff    1.23 Angstroem

   l    n(q)    QCUT    max X(q) W(low)/X(q) W(high)/X(q)  e(spline) 
   0      8    10.645    20.381    0.38E-03    0.60E-03    0.15E-06
   0      8    10.645    15.268    0.40E-03    0.65E-03    0.17E-06
   1      7    10.645     5.964    0.30E-03    0.63E-03    0.18E-06
   1      7    10.645     5.382    0.24E-03    0.53E-03    0.16E-06
 Optimization of the real space projectors (new method)

 maximal supplied QI-value         = 19.84
 optimisation between [QCUT,QGAM] = [ 10.71, 21.63] = [ 32.15,130.99] Ry 
 Optimized for a Real-space Cutoff    1.19 Angstroem

   l    n(q)    QCUT    max X(q) W(low)/X(q) W(high)/X(q)  e(spline) 
   0      8    10.715   160.924    0.37E-03    0.37E-04    0.63E-07
   0      8    10.715   130.086    0.37E-03    0.36E-04    0.63E-07
   1      7    10.715    74.434    0.19E-03    0.56E-03    0.65E-07
   1      7    10.715    49.120    0.19E-03    0.55E-03    0.63E-07
  PAW_PBE Ga_d 06Jul2010                :
 energy of atom  1       EATOM=-2148.8298
 kinetic energy error for atom=    0.0038 (will be added to EATOM!!)
   PAW_PBE O 08Apr2002                  :
 energy of atom  2       EATOM= -432.3788
 kinetic energy error for atom=    0.0389 (will be added to EATOM!!)
  PAW_PBE P 06Sep2000                   :
 energy of atom  3       EATOM= -176.0430
 kinetic energy error for atom=    0.0019 (will be added to EATOM!!)
 
 
 POSCAR: Ga48 O72
  positions in direct lattice
  velocities in cartesian coordinates
 exchange correlation table for  LEXCH =        8
   RHO(1)=    0.500       N(1)  =     2000
   RHO(2)=  100.500       N(2)  =     4000
 


--------------------------------------------------------------------------------------------------------


 ion  position               nearest neighbor table
   1  0.658  0.000  0.155-  84 1.94  82 1.95  78 1.95  66 2.06  60 2.08  64 2.08
   2  0.660  0.000  0.656-  85 1.95  83 1.96  79 1.96  67 2.02  61 2.07  65 2.07
   3  0.659  0.333  0.156-  80 1.95  78 1.95  86 1.96  60 2.07  68 2.07  62 2.08
   4  0.660  0.334  0.656-  87 1.95  79 1.95  81 1.96  69 2.02  63 2.07  61 2.08
   5  0.659  0.667  0.156-  80 1.95  82 1.95  88 1.96  64 2.07  70 2.07  62 2.08
   6  0.660  0.666  0.656-  89 1.95  83 1.95  81 1.96  71 2.02  63 2.07  65 2.08
   7  0.840  0.164  0.342-  74 1.93  72 1.94  60 2.00  66 2.04  68 2.06  90 2.13
   8  0.841  0.166  0.843-  75 1.95  91 1.96  73 1.96  61 2.02  67 2.07  69 2.07
   9  0.844  0.500  0.342-  92 1.95  76 1.96  74 1.96  62 2.02  70 2.08  68 2.08
  10  0.840  0.500  0.843-  93 1.94  77 1.96  75 1.96  63 2.02  71 2.08  69 2.08
  11  0.840  0.836  0.342-  76 1.93  72 1.94  64 2.00  66 2.04  70 2.06  94 2.13
  12  0.841  0.834  0.843-  77 1.95  95 1.96  73 1.96  65 2.02  67 2.07  71 2.07
  13  0.594  0.168  0.398-  79 1.84  54 1.85  56 1.85  60 1.87
  14  0.592  0.167  0.897-  78 1.84  57 1.85  55 1.85  61 1.87
  15  0.591  0.500  0.396-  81 1.85  58 1.86  56 1.86  62 1.88
  16  0.591  0.500  0.897-  80 1.85  59 1.85  57 1.85  63 1.88
  17  0.594  0.832  0.398-  83 1.84  54 1.85  58 1.85  64 1.87
  18  0.592  0.833  0.897-  82 1.84  59 1.85  55 1.85  65 1.87
  19  0.912  0.000  0.102-  73 1.84  52 1.86  48 1.86  66 1.88
  20  0.909  0.000  0.602-  72 1.84  53 1.85  49 1.85  67 1.87
  21  0.910  0.333  0.101-  75 1.83  50 1.85  48 1.87  68 1.87
  22  0.909  0.334  0.603-  74 1.84  51 1.85  49 1.85  69 1.87
  23  0.910  0.667  0.101-  77 1.83  50 1.85  52 1.87  70 1.87
  24  0.909  0.666  0.603-  76 1.84  51 1.85  53 1.85  71 1.87
  25  0.159  0.177  0.145- 115 1.88  48 1.92 113 1.92 101 1.99  97 2.06
  26  0.158  0.170  0.657-  49 1.92 116 1.94 102 2.01  98 2.04  96 2.05 114 2.06
  27  0.160  0.500  0.155-  50 1.93 115 1.95 117 1.95 103 2.01  99 2.09  97 2.09
  28  0.160  0.500  0.654-  51 1.94 116 1.96 118 1.96 104 2.01 100 2.08  98 2.08
  29  0.159  0.823  0.145- 117 1.88  52 1.92 113 1.92 105 1.99  99 2.06
  30  0.158  0.830  0.657-  53 1.92 118 1.94 106 2.01 100 2.04  96 2.05 114 2.06
  31  0.350  0.000  0.346-  54 1.89 107 1.94 111 1.94 101 2.04 105 2.04
  32  0.341  0.000  0.841-  55 1.94 108 1.96 112 1.96  96 2.05 102 2.07 106 2.07
  33  0.341  0.334  0.343-  56 1.94 109 1.95 107 1.96  97 2.03 103 2.08 101 2.13
  34  0.341  0.334  0.843-  57 1.94 110 1.94 108 1.96  98 2.02 104 2.08 102 2.12
  35  0.341  0.666  0.343-  58 1.94 109 1.95 111 1.96  99 2.03 103 2.08 105 2.13
  36  0.341  0.666  0.843-  59 1.94 110 1.94 112 1.96 100 2.02 104 2.08 106 2.12
  37  0.092  0.000  0.895-  91 1.85  95 1.85 113 1.88  96 1.89
  38  0.093  0.330  0.395- 116 1.83  92 1.86  97 1.87  90 1.94
  39  0.090  0.335  0.893-  93 1.84  91 1.84 115 1.85  98 1.86
  40  0.093  0.670  0.395- 118 1.83  92 1.86  99 1.87  94 1.94
  41  0.090  0.665  0.893-  93 1.84  95 1.84 117 1.85 100 1.86
  42  0.408  0.166  0.101-  84 1.85  86 1.85 108 1.85 101 1.92
  43  0.410  0.167  0.602-  87 1.84  85 1.85 107 1.86 102 1.87
  44  0.409  0.500  0.101- 110 1.84  88 1.85  86 1.85 103 1.88
  45  0.409  0.500  0.601-  87 1.85  89 1.85 109 1.85 104 1.87
  46  0.408  0.834  0.101-  84 1.85  88 1.85 112 1.85 105 1.92
  47  0.410  0.833  0.602-  89 1.84  85 1.85 111 1.86 106 1.87
  48  0.001  0.166  0.134-  19 1.86  21 1.87  25 1.92
  49  0.997  0.166  0.628-  20 1.85  22 1.85  26 1.92
  50  0.998  0.500  0.125-  21 1.85  23 1.85  27 1.93
  51  0.998  0.500  0.627-  22 1.85  24 1.85  28 1.94
  52  0.001  0.834  0.134-  19 1.86  23 1.87  29 1.92
  53  0.997  0.834  0.628-  20 1.85  24 1.85  30 1.92
  54  0.508  0.000  0.373-  13 1.85  17 1.85  31 1.89
  55  0.503  0.000  0.872-  14 1.85  18 1.85  32 1.94
  56  0.503  0.333  0.372-  13 1.85  15 1.86  33 1.94
  57  0.503  0.333  0.872-  14 1.85  16 1.85  34 1.94
  58  0.503  0.667  0.372-  17 1.85  15 1.86  35 1.94
  59  0.503  0.667  0.872-  18 1.85  16 1.85  36 1.94
  60  0.673  0.167  0.279-  13 1.87   7 2.00   3 2.07   1 2.08
  61  0.673  0.166  0.780-  14 1.87   8 2.02   2 2.07   4 2.08
  62  0.675  0.500  0.281-  15 1.88   9 2.02   5 2.08   3 2.08
  63  0.672  0.500  0.780-  16 1.88  10 2.02   4 2.07   6 2.07
  64  0.673  0.833  0.279-  17 1.87  11 2.00   5 2.07   1 2.08
  65  0.673  0.834  0.780-  18 1.87  12 2.02   2 2.07   6 2.08
  66  0.830  0.000  0.220-  19 1.88  11 2.04   7 2.04   1 2.06
  67  0.829  0.000  0.720-  20 1.87   2 2.02  12 2.07   8 2.07
  68  0.832  0.330  0.221-  21 1.87   7 2.06   3 2.07   9 2.08
  69  0.828  0.333  0.720-  22 1.87   4 2.02   8 2.07  10 2.08
  70  0.832  0.670  0.221-  23 1.87  11 2.06   5 2.07   9 2.08
  71  0.828  0.667  0.720-  24 1.87   6 2.02  12 2.07  10 2.08
  72  0.832  0.000  0.445-  20 1.84  11 1.94   7 1.94
  73  0.834  0.000  0.947-  19 1.84  12 1.96   8 1.96
  74  0.841  0.330  0.444-  22 1.84   7 1.93   9 1.96
  75  0.832  0.332  0.946-  21 1.83   8 1.95  10 1.96
  76  0.841  0.670  0.444-  24 1.84  11 1.93   9 1.96
  77  0.832  0.668  0.946-  23 1.83  12 1.95  10 1.96
  78  0.668  0.167  0.054-  14 1.84   1 1.95   3 1.95
  79  0.671  0.167  0.554-  13 1.84   4 1.95   2 1.96
  80  0.669  0.500  0.054-  16 1.85   5 1.95   3 1.95
  81  0.670  0.500  0.553-  15 1.85   6 1.96   4 1.96
  82  0.668  0.833  0.054-  18 1.84   1 1.95   5 1.95
  83  0.671  0.833  0.554-  17 1.84   6 1.95   2 1.96
  84  0.496  0.000  0.127-  42 1.85  46 1.85   1 1.94
  85  0.497  0.000  0.625-  43 1.85  47 1.85   2 1.95
  86  0.496  0.332  0.128-  42 1.85  44 1.85   3 1.96
  87  0.497  0.333  0.625-  43 1.84  45 1.85   4 1.95
  88  0.496  0.668  0.128-  46 1.85  44 1.85   5 1.96
  89  0.497  0.667  0.625-  47 1.84  45 1.85   6 1.95
  90  0.017  0.141  0.380- 119 1.65  38 1.94   7 2.13
  91  0.004  0.167  0.875-  39 1.84  37 1.85   8 1.96
  92  0.007  0.500  0.370-  38 1.86  40 1.86   9 1.95
  93  0.002  0.500  0.871-  39 1.84  41 1.84  10 1.94
  94  0.017  0.859  0.380- 119 1.65  40 1.94  11 2.13
  95  0.004  0.833  0.875-  41 1.84  37 1.85  12 1.96
  96  0.171  0.000  0.774-  37 1.89  30 2.05  26 2.05  32 2.05
  97  0.172  0.330  0.277-  38 1.87  33 2.03  25 2.06  27 2.09
  98  0.173  0.334  0.778-  39 1.86  34 2.02  26 2.04  28 2.08
  99  0.172  0.670  0.277-  40 1.87  35 2.03  29 2.06  27 2.09
 100  0.173  0.666  0.778-  41 1.86  36 2.02  30 2.04  28 2.08
 101  0.322  0.159  0.219-  42 1.92  25 1.99  31 2.04  33 2.13
 102  0.325  0.164  0.716-  43 1.87  26 2.01  32 2.07  34 2.12
 103  0.327  0.500  0.219-  44 1.88  27 2.01  35 2.08  33 2.08
 104  0.327  0.500  0.718-  45 1.87  28 2.01  36 2.08  34 2.08
 105  0.322  0.841  0.219-  46 1.92  29 1.99  31 2.04  35 2.13
 106  0.325  0.836  0.716-  47 1.87  30 2.01  32 2.07  36 2.12
 107  0.331  0.165  0.444-  43 1.86  31 1.94  33 1.96
 108  0.330  0.166  0.944-  42 1.85  32 1.96  34 1.96
 109  0.329  0.500  0.445-  45 1.85  35 1.95  33 1.95
 110  0.333  0.500  0.944-  44 1.84  36 1.94  34 1.94
 111  0.331  0.835  0.444-  47 1.86  31 1.94  35 1.96
 112  0.330  0.834  0.944-  46 1.85  32 1.96  36 1.96
 113  0.165  0.000  0.057-  37 1.88  29 1.92  25 1.92
 114  0.154  0.000  0.540- 119 1.62  30 2.06  26 2.06
 115  0.171  0.338  0.049-  39 1.85  25 1.88  27 1.95
 116  0.167  0.331  0.552-  38 1.83  26 1.94  28 1.96
 117  0.171  0.662  0.049-  41 1.85  29 1.88  27 1.95
 118  0.167  0.669  0.552-  40 1.83  30 1.94  28 1.96
 119  0.103  0.000  0.397- 114 1.62  94 1.65  90 1.65
 
  LATTYP: Found a simple monoclinic cell.
 ALAT       =    11.6348202465
 B/A-ratio  =     0.7858051831
 C/A-ratio  =     1.0554931797
 COS(beta)  =    -0.2379290539
  
  Lattice vectors:
  
 A1 = (   0.0000000000,  -2.7682617730, -11.3006977184)
 A2 = (  -9.1427020537,   0.0000000000,   0.0000000000)
 A3 = (   0.0000000000,  12.2804734172,   0.0000000000)


Analysis of symmetry for initial positions (statically):
=====================================================================
 Subroutine PRICEL returns:
 Original cell was already a primitive cell.
 

 Routine SETGRP: Setting up the symmetry group for a 
 simple monoclinic supercell.


 Subroutine GETGRP returns: Found  2 space group operations
 (whereof  2 operations were pure point group operations)
 out of a pool of  4 trial point group operations.


The static configuration has the point symmetry C_1h.


Analysis of symmetry for dynamics (positions and initial velocities):
=====================================================================
 Subroutine PRICEL returns:
 Original cell was already a primitive cell.
 

 Routine SETGRP: Setting up the symmetry group for a 
 simple monoclinic supercell.


 Subroutine GETGRP returns: Found  2 space group operations
 (whereof  2 operations were pure point group operations)
 out of a pool of  4 trial point group operations.


The dynamic configuration has the point symmetry C_1h.


 Subroutine INISYM returns: Found  2 space group operations
 (whereof  2 operations are pure point group operations),
 and found     1 'primitive' translations


----------------------------------------------------------------------------------------

                                     Primitive cell                                     

  volume of cell :    1268.8052

  direct lattice vectors                    reciprocal lattice vectors
     0.000000000 12.280473417  0.000000000     0.000000000  0.081430085 -0.019947423
     9.142702054  0.000000000  0.000000000     0.109376855 -0.000000000  0.000000000
     0.000000000 -2.768261773-11.300697718     0.000000000  0.000000000 -0.088490111

  length of vectors
    12.280473417  9.142702054 11.634820246     0.083837691  0.109376855  0.088490111

  position of ions in fractional coordinates (direct lattice)
     0.658460825  0.000000000  0.154616023
     0.660297522  0.000000000  0.656155297
     0.659464326  0.333074164  0.156160462
     0.659933980  0.333639546  0.656064953
     0.659464326  0.666925836  0.156160462
     0.659933980  0.666360454  0.656064953
     0.839649291  0.163620001  0.341814165
     0.840750321  0.166420032  0.843056742
     0.843799711  0.500000000  0.342360109
     0.839596754  0.500000000  0.843492427
     0.839649291  0.836379999  0.341814165
     0.840750321  0.833579968  0.843056742
     0.593627610  0.168376442  0.397984796
     0.591534905  0.166571271  0.896820397
     0.590782170  0.500000000  0.396454971
     0.590507856  0.500000000  0.897278967
     0.593627610  0.831623558  0.397984796
     0.591534905  0.833428729  0.896820397
     0.911667520  0.000000000  0.102476804
     0.908823704  0.000000000  0.602346504
     0.910166852  0.332939425  0.101482411
     0.909416839  0.333717817  0.603379183
     0.910166852  0.667060575  0.101482411
     0.909416839  0.666282183  0.603379183
     0.159315113  0.176566842  0.145417452
     0.157538316  0.169827113  0.657105312
     0.159657235  0.500000000  0.154921543
     0.159585823  0.500000000  0.653516322
     0.159315113  0.823433158  0.145417452
     0.157538316  0.830172887  0.657105312
     0.349702567  0.000000000  0.346091924
     0.341205773  0.000000000  0.840947439
     0.340684254  0.333533935  0.343449689
     0.340917879  0.333545879  0.842642485
     0.340684254  0.666466065  0.343449689
     0.340917879  0.666454121  0.842642485
     0.091610481  0.000000000  0.895134913
     0.092762284  0.329613576  0.395442250
     0.089750525  0.334847467  0.892918481
     0.092762284  0.670386424  0.395442250
     0.089750525  0.665152533  0.892918481
     0.407873334  0.166016129  0.100822188
     0.409946946  0.166734322  0.601558944
     0.408713972  0.500000000  0.101346609
     0.409284433  0.500000000  0.601415547
     0.407873334  0.833983871  0.100822188
     0.409946946  0.833265678  0.601558944
     0.000587231  0.166348981  0.133796036
     0.996639897  0.166436142  0.627765789
     0.997931859  0.500000000  0.125116802
     0.997533950  0.500000000  0.626548325
     0.000587231  0.833651019  0.133796036
     0.996639897  0.833563858  0.627765789
     0.507793924  0.000000000  0.372815220
     0.503311813  0.000000000  0.871602991
     0.502785808  0.332673336  0.371684191
     0.502987461  0.332667568  0.871565243
     0.502785808  0.667326664  0.371684191
     0.502987461  0.667332432  0.871565243
     0.673250479  0.166994348  0.279395551
     0.672754151  0.166316634  0.779592545
     0.675335807  0.500000000  0.280938578
     0.671967701  0.500000000  0.779620804
     0.673250479  0.833005652  0.279395551
     0.672754151  0.833683366  0.779592545
     0.829628024  0.000000000  0.220103465
     0.828619225  0.000000000  0.720285510
     0.831524370  0.329921383  0.220953929
     0.828034286  0.333349568  0.719993095
     0.831524370  0.670078617  0.220953929
     0.828034286  0.666650432  0.719993095
     0.832111219  0.000000000  0.445387317
     0.834038873  0.000000000  0.946799814
     0.841229123  0.330344159  0.444030178
     0.832212837  0.332470090  0.945959536
     0.841229123  0.669655841  0.444030178
     0.832212837  0.667529910  0.945959536
     0.668377771  0.166685701  0.053726915
     0.670847965  0.167295545  0.554044902
     0.668645356  0.500000000  0.054394560
     0.670450638  0.500000000  0.552643339
     0.668377771  0.833314299  0.053726915
     0.670847965  0.832704455  0.554044902
     0.495948981  0.000000000  0.127321671
     0.497335752  0.000000000  0.624778147
     0.495813788  0.332461242  0.127785295
     0.496918298  0.333330389  0.625101210
     0.495813788  0.667538758  0.127785295
     0.496918298  0.666669611  0.625101210
     0.017229557  0.141403305  0.380087496
     0.004444625  0.166775991  0.875135629
     0.007066102  0.500000000  0.369863715
     0.001844520  0.500000000  0.870841056
     0.017229557  0.858596695  0.380087496
     0.004444625  0.833224009  0.875135629
     0.170632834  0.000000000  0.774269132
     0.171984229  0.330251584  0.277067417
     0.172692095  0.334133282  0.777963902
     0.171984229  0.669748416  0.277067417
     0.172692095  0.665866718  0.777963902
     0.322457698  0.159417533  0.219263041
     0.324873152  0.164180125  0.715508481
     0.326870020  0.500000000  0.219334148
     0.326941046  0.500000000  0.717655527
     0.322457698  0.840582467  0.219263041
     0.324873152  0.835819875  0.715508481
     0.330604364  0.164575510  0.444175185
     0.329535573  0.165557656  0.943800647
     0.329369280  0.500000000  0.445049860
     0.332721972  0.500000000  0.944330757
     0.330604364  0.835424490  0.444175185
     0.329535573  0.834442344  0.943800647
     0.164837119  0.000000000  0.056999928
     0.154082169  0.000000000  0.539735304
     0.171001371  0.338278895  0.048721464
     0.166788362  0.331407310  0.551828871
     0.171001371  0.661721105  0.048721464
     0.166788362  0.668592690  0.551828871
     0.102996540  0.000000000  0.397482718

  ion indices of the primitive-cell ions
   primitive index   ion index
                 1           1
                 2           2
                 3           3
                 4           4
                 5           5
                 6           6
                 7           7
                 8           8
                 9           9
                10          10
                11          11
                12          12
                13          13
                14          14
                15          15
                16          16
                17          17
                18          18
                19          19
                20          20
                21          21
                22          22
                23          23
                24          24
                25          25
                26          26
                27          27
                28          28
                29          29
                30          30
                31          31
                32          32
                33          33
                34          34
                35          35
                36          36
                37          37
                38          38
                39          39
                40          40
                41          41
                42          42
                43          43
                44          44
                45          45
                46          46
                47          47
                48          48
                49          49
                50          50
                51          51
                52          52
                53          53
                54          54
                55          55
                56          56
                57          57
                58          58
                59          59
                60          60
                61          61
                62          62
                63          63
                64          64
                65          65
                66          66
                67          67
                68          68
                69          69
                70          70
                71          71
                72          72
                73          73
                74          74
                75          75
                76          76
                77          77
                78          78
                79          79
                80          80
                81          81
                82          82
                83          83
                84          84
                85          85
                86          86
                87          87
                88          88
                89          89
                90          90
                91          91
                92          92
                93          93
                94          94
                95          95
                96          96
                97          97
                98          98
                99          99
               100         100
               101         101
               102         102
               103         103
               104         104
               105         105
               106         106
               107         107
               108         108
               109         109
               110         110
               111         111
               112         112
               113         113
               114         114
               115         115
               116         116
               117         117
               118         118
               119         119

----------------------------------------------------------------------------------------

 
 
 KPOINTS: Automatic mesh                          

Automatic generation of k-mesh.
 Grid dimensions read from file:
 generate k-points for:    2    2    2

 Generating k-lattice:

  Cartesian coordinates                     Fractional coordinates (reciprocal lattice)
     0.000000000  0.040715043 -0.009973711     0.500000000  0.000000000  0.000000000
     0.054688428 -0.000000000  0.000000000     0.000000000  0.500000000  0.000000000
     0.000000000  0.000000000 -0.044245056     0.000000000  0.000000000  0.500000000

  Length of vectors
     0.041918846  0.054688428  0.044245056

  Shift w.r.t. Gamma in fractional coordinates (k-lattice)
     0.000000000  0.000000000  0.000000000

 
 Subroutine IBZKPT returns following result:
 ===========================================
 
 Found      8 irreducible k-points:
 
 Following reciprocal coordinates:
            Coordinates               Weight
  0.000000  0.000000  0.000000      1.000000
  0.500000  0.000000  0.000000      1.000000
  0.000000  0.500000  0.000000      1.000000
  0.500000  0.500000  0.000000      1.000000
  0.000000  0.000000  0.500000      1.000000
  0.500000  0.000000  0.500000      1.000000
  0.000000  0.500000  0.500000      1.000000
  0.500000  0.500000  0.500000      1.000000
 
 Following cartesian coordinates:
            Coordinates               Weight
  0.000000  0.000000 -0.000000      1.000000
  0.000000  0.040715 -0.009974      1.000000
  0.054688  0.000000 -0.000000      1.000000
  0.054688  0.040715 -0.009974      1.000000
  0.000000  0.000000 -0.044245      1.000000
  0.000000  0.040715 -0.054219      1.000000
  0.054688  0.000000 -0.044245      1.000000
  0.054688  0.040715 -0.054219      1.000000
 
 
 Subroutine IBZKPT_HF returns following result:
 ==============================================
 
 Found      8 k-points in 1st BZ
 the following      8 k-points will be used (e.g. in the exchange kernel)
 Following reciprocal coordinates:   # in IRBZ
  0.000000  0.000000  0.000000    0.12500000   1 t-inv F
  0.500000  0.000000  0.000000    0.12500000   2 t-inv F
  0.000000  0.500000  0.000000    0.12500000   3 t-inv F
  0.500000  0.500000  0.000000    0.12500000   4 t-inv F
  0.000000  0.000000  0.500000    0.12500000   5 t-inv F
  0.500000  0.000000  0.500000    0.12500000   6 t-inv F
  0.000000  0.500000  0.500000    0.12500000   7 t-inv F
  0.500000  0.500000  0.500000    0.12500000   8 t-inv F


--------------------------------------------------------------------------------------------------------




 Dimension of arrays:
   k-points           NKPTS =      8   k-points in BZ     NKDIM =      8   number of bands    NBANDS=    625
   number of dos      NEDOS =    301   number of ions     NIONS =    119
   non local maximal  LDIM  =      6   non local SUM 2l+1 LMDIM =     18
   total plane-waves  NPLWV = 184320
   max r-space proj   IRMAX =   1800   max aug-charges    IRDMAX=   5704
   dimension x,y,z NGX =    64 NGY =   48 NGZ =   60
   dimension x,y,z NGXF=   128 NGYF=   96 NGZF=  120
   support grid    NGXF=   128 NGYF=   96 NGZF=  120
   ions per type =              47  71   1
   NGX,Y,Z   is equivalent  to a cutoff of   8.66,  8.73,  8.57 a.u.
   NGXF,Y,Z  is equivalent  to a cutoff of  17.33, 17.46, 17.15 a.u.

 SYSTEM =  unknown system                          
 POSCAR =  Ga48 O72                                

 Startparameter for this run:
   NWRITE =      2    write-flag & timer
   PREC   = normal    normal or accurate (medium, high low for compatibility)
   ISTART =      0    job   : 0-new  1-cont  2-samecut
   ICHARG =      0    charge: 1-file 2-atom 10-const
   ISPIN  =      1    spin polarized calculation?
   LNONCOLLINEAR =      F non collinear calculations
   LSORBIT =      F    spin-orbit coupling
   INIWAV =      1    electr: 0-lowe 1-rand  2-diag
   LASPH  =      F    aspherical Exc in radial PAW
 Electronic Relaxation 1
   ENCUT  =  450.0 eV  33.07 Ry    5.75 a.u.  21.24 15.81 20.12*2*pi/ulx,y,z
   ENINI  =  450.0     initial cutoff
   ENAUG  =  605.4 eV  augmentation charge cutoff
   NELM   =    500;   NELMIN=  2; NELMDL= -5     # of ELM steps 
   EDIFF  = 0.1E-04   stopping-criterion for ELM
   LREAL  =      T    real-space projection
   NLSPLINE    = F    spline interpolate recip. space projectors
   LCOMPAT=      F    compatible to vasp.4.4
   GGA_COMPAT  = T    GGA compatible to vasp.4.4-vasp.4.6
   LMAXPAW     = -100 max onsite density
   LMAXMIX     =    2 max onsite mixed and CHGCAR
   VOSKOWN=      0    Vosko Wilk Nusair interpolation
   ROPT   =   -0.00050  -0.00050  -0.00050
 Ionic relaxation
   EDIFFG = -.5E-02   stopping-criterion for IOM
   NSW    =      0    number of steps for IOM
   NBLOCK =      1;   KBLOCK =      1    inner block; outer block 
   IBRION =     -1    ionic relax: 0-MD 1-quasi-New 2-CG
   NFREE  =      0    steps in history (QN), initial steepest desc. (CG)
   ISIF   =      2    stress and relaxation
   IWAVPR =     10    prediction:  0-non 1-charg 2-wave 3-comb
   ISYM   =      3    0-nonsym 1-usesym 2-fastsym
   LCORR  =      T    Harris-Foulkes like correction to forces

   POTIM  = 0.5000    time-step for ionic-motion
   TEIN   =    0.0    initial temperature
   TEBEG  =    0.0;   TEEND  =   0.0 temperature during run
   SMASS  =  -3.00    Nose mass-parameter (am)
   estimated Nose-frequenzy (Omega)   =  0.10E-29 period in steps = 0.13E+47 mass=  -0.345E-26a.u.
   SCALEE = 1.0000    scale energy and forces
   NPACO  =    256;   APACO  = 10.0  distance and # of slots for P.C.
   PSTRESS=    0.0 pullay stress

  Mass of Ions in am
   POMASS =  69.72 16.00 30.97
  Ionic Valenz
   ZVAL   =  13.00  6.00  5.00
  Atomic Wigner-Seitz radii
   RWIGS  =  -1.00 -1.00 -1.00
  virtual crystal weights 
   VCA    =   1.00  1.00  1.00
   NELECT =    1042.0000    total number of electrons
   NUPDOWN=      -1.0000    fix difference up-down

 DOS related values:
   EMIN   =  10.00;   EMAX   =-10.00  energy-range for DOS
   EFERMI =   0.00;   METHOD = LEGACY      
   ISMEAR =     0;   SIGMA  =   0.05  broadening in eV -4-tet -1-fermi 0-gaus

 Electronic relaxation 2 (details)
   IALGO  =     58    algorithm
   LDIAG  =      T    sub-space diagonalisation (order eigenvalues)
   LSUBROT=      F    optimize rotation matrix (better conditioning)
   TURBO    =      0    0=normal 1=particle mesh
   IRESTART =      0    0=no restart 2=restart with 2 vectors
   NREBOOT  =      0    no. of reboots
   NMIN     =      0    reboot dimension
   EREF     =   0.00    reference energy to select bands
   IMIX   =      4    mixing-type and parameters
     AMIX     =   0.40;   BMIX     =  1.00
     AMIX_MAG =   1.60;   BMIX_MAG =  1.00
     AMIN     =   0.10
     WC   =   100.;   INIMIX=   1;  MIXPRE=   1;  MAXMIX= -45

 Intra band minimization:
   WEIMIN = 0.0000     energy-eigenvalue tresh-hold
   EBREAK =  0.40E-08  absolut break condition
   DEPER  =   0.30     relativ break condition  

   TIME   =   0.40     timestep for ELM

  volume/ion in A,a.u.               =      10.66        71.95
  Fermi-wavevector in a.u.,A,eV,Ry     =   1.533083  2.897107 31.978378  2.350344
  Thomas-Fermi vector in A             =   2.640200
 
 Write flags
   LWAVE        =      T    write WAVECAR
   LDOWNSAMPLE  =      F    k-point downsampling of WAVECAR
   LCHARG       =      T    write CHGCAR
   LVTOT        =      F    write LOCPOT, total local potential
   LVHAR        =      F    write LOCPOT, Hartree potential only
   LELF         =      F    write electronic localiz. function (ELF)
   LORBIT       =      0    0 simple, 1 ext, 2 COOP (PROOUT), +10 PAW based schemes


 Dipole corrections
   LMONO  =      F    monopole corrections only (constant potential shift)
   LDIPOL =      F    correct potential (dipole corrections)
   IDIPOL =      0    1-x, 2-y, 3-z, 4-all directions 
   EPSILON=  1.0000000 bulk dielectric constant

 Exchange correlation treatment:
   GGA     =    --    GGA type
   LEXCH   =     8    internal setting for exchange type
   LIBXC   =     F    Libxc                    
   VOSKOWN =     0    Vosko Wilk Nusair interpolation
   EXXOEP  =     0    0=HF, 1=EXX-LHF (local Hartree Fock) 2=EXX OEP
   LHFCALC =     T    Hartree Fock is set to
   LSYMGRAD=     F    symmetrize gradient (conserves proper symmetry)
   PRECFOCK=fast      Normal, Fast or Accurate (Low or Medium for compatibility)
   LRHFCALC=     F    long range Hartree Fock
   LRSCOR  =     F    long range correlation only (use DFT for short range part)
   LTHOMAS =     F    Thomas Fermi screening in HF
   LMODELHF=     F    short range full HF, long range fraction AEXX
   FOCKCORR=     1    mode to apply convergence corrections
   LFOCKACE=     T    use Adeptively-Compressed-Exchange operator
   ENCUT4O =  -1.0   cutoff for four orbital integrals eV
   LMAXFOCK=     4    L truncation for augmentation on plane wave grid
   LMAXFOCKAE=  -1    L truncation for all-electron charge restoration on plane wave grid
   NMAXFOCKAE=   1    number of basis functions for all-electron charge restoration
   LFOCKAEDFT=     F  apply the AE augmentation even for DFT
   NKREDX  =     1    reduce k-point grid by
   NKREDY  =     1    reduce k-point grid by
   NKREDZ  =     1    reduce k-point grid by
   SHIFTRED=     F    shift reduced grid of Gamma
   HFKIDENT=     F    idential grid for each k-point
   ODDONLY =     F    use only odd q-grid points
   EVENONLY=     F    use only even q-grid points
   HFALPHA =   -1.0000 decay constant for conv. correction
   MCALPHA =    0.0000 extent of test-charge in conv. correction in multipole expansion
   AEXX    =    0.3200 exact exchange contribution
   HFSCREEN=    0.2000 screening length (either q_TF or 0.3 A-1)
   HFSCREENC=   0.2000 screening length for correlation (either q_TF or 0.3 A-1)
   HFRCUT  =    0.0000 spherical cutoff for potential kernel
   ALDAX   =    0.6800 LDA exchange part
   AGGAX   =    0.6800 GGA exchange part
   ALDAC   =    1.0000 LDA correlation
   AGGAC   =    1.0000 GGA correlation
   ENCUTFOCK=  -1.0 apply spherical cutoff to Coloumb kernel
   NBANDSGWLOW=     1    first orbital included in HF term
   NBLOCK_FOCK=    64    blocking factor in FOCK_ACC

 Linear response parameters
   LEPSILON=     F    determine dielectric tensor
   LRPA    =     F    only Hartree local field effects (RPA)
   LNABLA  =     F    use nabla operator in PAW spheres
   LVEL    =     F    velocity operator in full k-point grid
   CSHIFT  =0.1000    complex shift for real part using Kramers Kronig
   OMEGAMAX=  -1.0    maximum frequency
   DEG_THRESHOLD= 0.2000000E-02 threshold for treating states as degnerate
   RTIME   =   -0.100 relaxation time in fs
  (WPLASMAI=    0.000 imaginary part of plasma frequency in eV, 0.658/RTIME)
   DFIELD  = 0.0000000 0.0000000 0.0000000 field for delta impulse in time
 
  Optional k-point grid parameters
   LKPOINTS_OPT  =     F    use optional k-point grid
   KPOINTS_OPT_MODE=     1    mode for optional k-point grid
 
 Orbital magnetization related:
   ORBITALMAG=     F  switch on orbital magnetization
   LCHIMAG   =     F  perturbation theory with respect to B field
   DQ        =  0.001000  dq finite difference perturbation B field
   LLRAUG    =     F  two centre corrections for induced B field
   LBONE     =     F  B-component reconstruction in AE one-centre
   LVGVCALC  =     T  calculate vGv susceptibility
   LVGVAPPL  =     F  apply vGv susceptibility instead of pGv for G=0

 Random number generation:
   RANDOM_GENERATOR = DEFAULT
   PCG_SEED         = not used


--------------------------------------------------------------------------------------------------------


 Static calculation
 charge density and potential will be updated during run
 non-spin polarized calculation
 Conjugate gradient for all bands (Freysoldt, et al. PRB 79, 241103 (2009))
 preconditioned conjugated gradient                                        
 perform sub-space diagonalisation
    before iterative eigenvector-optimisation
 modified Broyden-mixing scheme, WC =      100.0
 initial mixing is a Kerker type mixing with AMIX =  0.4000 and BMIX =      1.0000
 Hartree-type preconditioning will be used
 using additional bands           104
 real space projection scheme for non local part
 use partial core corrections
 no Harris-corrections to forces 
 use gradient corrections 
 use of overlap-Matrix (Vanderbilt PP)
 Gauss-broadening in eV      SIGMA  =   0.05


--------------------------------------------------------------------------------------------------------


  energy-cutoff  :      450.00
  volume of cell :     1268.81
      direct lattice vectors                 reciprocal lattice vectors
     0.000000000 12.280473417  0.000000000     0.000000000  0.081430085 -0.019947423
     9.142702054  0.000000000  0.000000000     0.109376855 -0.000000000  0.000000000
     0.000000000 -2.768261773-11.300697718     0.000000000  0.000000000 -0.088490111

  length of vectors
    12.280473417  9.142702054 11.634820246     0.083837691  0.109376855  0.088490111


 
 k-points in units of 2pi/SCALE and weight: Automatic mesh                          
   0.00000000  0.00000000 -0.00000000       0.125
   0.00000000  0.04071504 -0.00997371       0.125
   0.05468843  0.00000000 -0.00000000       0.125
   0.05468843  0.04071504 -0.00997371       0.125
   0.00000000  0.00000000 -0.04424506       0.125
   0.00000000  0.04071504 -0.05421877       0.125
   0.05468843  0.00000000 -0.04424506       0.125
   0.05468843  0.04071504 -0.05421877       0.125
 
 k-points in reciprocal lattice and weights: Automatic mesh                          
   0.00000000  0.00000000  0.00000000       0.125
   0.50000000  0.00000000  0.00000000       0.125
   0.00000000  0.50000000  0.00000000       0.125
   0.50000000  0.50000000  0.00000000       0.125
   0.00000000  0.00000000  0.50000000       0.125
   0.50000000  0.00000000  0.50000000       0.125
   0.00000000  0.50000000  0.50000000       0.125
   0.50000000  0.50000000  0.50000000       0.125
 
 position of ions in fractional coordinates (direct lattice) 
   0.65846082  0.00000000  0.15461602
   0.66029752  0.00000000  0.65615530
   0.65946433  0.33307416  0.15616046
   0.65993398  0.33363955  0.65606495
   0.65946433  0.66692584  0.15616046
   0.65993398  0.66636045  0.65606495
   0.83964929  0.16362000  0.34181416
   0.84075032  0.16642003  0.84305674
   0.84379971  0.50000000  0.34236011
   0.83959675  0.50000000  0.84349243
   0.83964929  0.83638000  0.34181416
   0.84075032  0.83357997  0.84305674
   0.59362761  0.16837644  0.39798480
   0.59153490  0.16657127  0.89682040
   0.59078217  0.50000000  0.39645497
   0.59050786  0.50000000  0.89727897
   0.59362761  0.83162356  0.39798480
   0.59153490  0.83342873  0.89682040
   0.91166752  0.00000000  0.10247680
   0.90882370  0.00000000  0.60234650
   0.91016685  0.33293943  0.10148241
   0.90941684  0.33371782  0.60337918
   0.91016685  0.66706057  0.10148241
   0.90941684  0.66628218  0.60337918
   0.15931511  0.17656684  0.14541745
   0.15753832  0.16982711  0.65710531
   0.15965724  0.50000000  0.15492154
   0.15958582  0.50000000  0.65351632
   0.15931511  0.82343316  0.14541745
   0.15753832  0.83017289  0.65710531
   0.34970257  0.00000000  0.34609192
   0.34120577  0.00000000  0.84094744
   0.34068425  0.33353393  0.34344969
   0.34091788  0.33354588  0.84264248
   0.34068425  0.66646607  0.34344969
   0.34091788  0.66645412  0.84264248
   0.09161048  0.00000000  0.89513491
   0.09276228  0.32961358  0.39544225
   0.08975053  0.33484747  0.89291848
   0.09276228  0.67038642  0.39544225
   0.08975053  0.66515253  0.89291848
   0.40787333  0.16601613  0.10082219
   0.40994695  0.16673432  0.60155894
   0.40871397  0.50000000  0.10134661
   0.40928443  0.50000000  0.60141555
   0.40787333  0.83398387  0.10082219
   0.40994695  0.83326568  0.60155894
   0.00058723  0.16634898  0.13379604
   0.99663990  0.16643614  0.62776579
   0.99793186  0.50000000  0.12511680
   0.99753395  0.50000000  0.62654833
   0.00058723  0.83365102  0.13379604
   0.99663990  0.83356386  0.62776579
   0.50779392  0.00000000  0.37281522
   0.50331181  0.00000000  0.87160299
   0.50278581  0.33267334  0.37168419
   0.50298746  0.33266757  0.87156524
   0.50278581  0.66732666  0.37168419
   0.50298746  0.66733243  0.87156524
   0.67325048  0.16699435  0.27939555
   0.67275415  0.16631663  0.77959255
   0.67533581  0.50000000  0.28093858
   0.67196770  0.50000000  0.77962080
   0.67325048  0.83300565  0.27939555
   0.67275415  0.83368337  0.77959255
   0.82962802  0.00000000  0.22010346
   0.82861922  0.00000000  0.72028551
   0.83152437  0.32992138  0.22095393
   0.82803429  0.33334957  0.71999309
   0.83152437  0.67007862  0.22095393
   0.82803429  0.66665043  0.71999309
   0.83211122  0.00000000  0.44538732
   0.83403887  0.00000000  0.94679981
   0.84122912  0.33034416  0.44403018
   0.83221284  0.33247009  0.94595954
   0.84122912  0.66965584  0.44403018
   0.83221284  0.66752991  0.94595954
   0.66837777  0.16668570  0.05372691
   0.67084797  0.16729554  0.55404490
   0.66864536  0.50000000  0.05439456
   0.67045064  0.50000000  0.55264334
   0.66837777  0.83331430  0.05372691
   0.67084797  0.83270446  0.55404490
   0.49594898  0.00000000  0.12732167
   0.49733575  0.00000000  0.62477815
   0.49581379  0.33246124  0.12778530
   0.49691830  0.33333039  0.62510121
   0.49581379  0.66753876  0.12778530
   0.49691830  0.66666961  0.62510121
   0.01722956  0.14140331  0.38008750
   0.00444463  0.16677599  0.87513563
   0.00706610  0.50000000  0.36986372
   0.00184452  0.50000000  0.87084106
   0.01722956  0.85859669  0.38008750
   0.00444463  0.83322401  0.87513563
   0.17063283  0.00000000  0.77426913
   0.17198423  0.33025158  0.27706742
   0.17269209  0.33413328  0.77796390
   0.17198423  0.66974842  0.27706742
   0.17269209  0.66586672  0.77796390
   0.32245770  0.15941753  0.21926304
   0.32487315  0.16418012  0.71550848
   0.32687002  0.50000000  0.21933415
   0.32694105  0.50000000  0.71765553
   0.32245770  0.84058247  0.21926304
   0.32487315  0.83581988  0.71550848
   0.33060436  0.16457551  0.44417518
   0.32953557  0.16555766  0.94380065
   0.32936928  0.50000000  0.44504986
   0.33272197  0.50000000  0.94433076
   0.33060436  0.83542449  0.44417518
   0.32953557  0.83444234  0.94380065
   0.16483712  0.00000000  0.05699993
   0.15408217  0.00000000  0.53973530
   0.17100137  0.33827889  0.04872146
   0.16678836  0.33140731  0.55182887
   0.17100137  0.66172111  0.04872146
   0.16678836  0.66859269  0.55182887
   0.10299654  0.00000000  0.39748272
 
 position of ions in cartesian coordinates  (Angst):
   0.00000000  7.65819303 -1.74726894
   0.00000000  6.29235653 -7.41501267
   3.04519784  7.66624109 -1.76472218
   3.05036696  6.28814217 -7.41399172
   6.09750421  7.66624109 -1.76472218
   6.09233509  6.28814217 -7.41399172
   1.49592892  9.36505971 -3.86273855
   1.52152877  7.99101022 -9.52712940
   4.57135103  9.41451751 -3.86890810
   4.57135103  7.97563778 -9.53205295
   7.64677314  9.36505971 -3.86273855
   7.62117328  7.99101022 -9.52712940
   1.53941564  6.18830198 -4.49750588
   1.52291150  4.78169505-10.13469621
   4.57135103  6.15759359 -4.48021778
   4.57135103  4.76781297-10.13987838
   7.60328641  6.18830198 -4.49750588
   7.61979055  4.78169505-10.13469621
   0.00000000 10.91202613 -1.15805938
   0.00000000  9.49333253 -6.80693576
   3.04396597 10.89634995 -1.14682205
   3.05108257  9.49775779 -6.81860575
   6.09873609 10.89634995 -1.14682205
   6.09161948  9.49775779 -6.81860575
   1.61429802  1.55391143 -1.64331867
   1.55267870  0.11560559 -7.42574850
   4.57135103  1.53180305 -1.75072152
   4.57135103  0.15068521 -7.38519041
   7.52840403  1.55391143 -1.64331867
   7.59002336  0.11560559 -7.42574850
   0.00000000  3.33644003 -3.91108021
   0.00000000  1.86220577 -9.50329281
   3.04940139  3.23300527 -3.88122111
   3.04951060  1.85397797 -9.52244801
   6.09330067  3.23300527 -3.88122111
   6.09319146  1.85397797 -9.52244801
   0.00000000 -1.35294768-10.11564907
   3.01355872  0.04447710 -4.46877333
   3.06141062 -1.36965316-10.09060185
   6.12914333  0.04447710 -4.46877333
   6.08129143 -1.36965316-10.09060185
   1.51783600  4.72977543 -1.13936107
   1.52440223  3.36906994 -6.79803579
   4.57135103  4.73864712 -1.14528739
   4.57135103  3.36133093 -6.79641530
   7.62486605  4.72977543 -1.13936107
   7.61829982  3.36906994 -6.79803579
   1.52087917 -0.36317097 -1.51198856
   1.52167606 10.50138973 -7.09419142
   4.57135103 11.90871960 -1.41390716
   4.57135103 10.51573938 -7.08043323
   7.62182288 -0.36317097 -1.51198856
   7.62102600 10.50138973 -7.09419142
   0.00000000  5.20389966 -4.21307211
   0.00000000  3.76808210 -9.84972193
   3.04153319  5.14552861 -4.20029069
   3.04148046  3.76420340 -9.84929535
   6.10116886  5.14552861 -4.20029069
   6.10122159  3.76420340 -9.84929535
   1.52677957  7.49439459 -3.15736466
   1.52058343  6.10362322 -8.80993970
   4.57135103  7.51573190 -3.17480195
   4.57135103  6.09388702 -8.81025904
   7.61592248  7.49439459 -3.15736466
   7.62211862  6.10362322 -8.80993970
   0.00000000  9.57892089 -2.48732272
   0.00000000  8.18189752 -8.13972882
   3.01637291  9.59985461 -2.49693356
   3.04771578  8.17552368 -8.13642432
   6.12632915  9.59985461 -2.49693356
   6.09498628  8.17552368 -8.13642432
   0.00000000  8.98577102 -5.03318743
   0.00000000  7.62140248-10.69949850
   3.02023822  9.10150012 -5.01785082
   3.03967497  7.60130400-10.69000277
   6.12246383  9.10150012 -5.01785082
   6.10302708  7.60130400-10.69000277
   1.52395770  8.05926528 -0.60715162
   1.52953332  6.70458928 -6.26109396
   4.57135103  8.06070314 -0.61469648
   4.57135103  6.70358981 -6.24525532
   7.61874435  8.05926528 -0.60715162
   7.61316873  6.70458928 -6.26109396
   0.00000000  5.73802856 -1.43882372
   0.00000000  4.37796902 -7.06042898
   3.03959408  5.73508489 -1.44406299
   3.04754043  4.37194816 -7.06407982
   6.10310798  5.73508489 -1.44406299
   6.09516162  4.37194816 -7.06407982
   1.29280829 -0.84059456 -4.29525390
   1.52478320 -2.36802241 -9.88964321
   4.57135103 -0.93710450 -4.17971804
   4.57135103 -2.38806443 -9.84111154
   7.84989376 -0.84059456 -4.29525390
   7.61791886 -2.36802241 -9.88964321
   0.00000000 -0.04792765 -8.74978141
   3.01939183  1.34505261 -3.13105513
   3.05488105 -0.03286705 -8.79153489
   6.12331022  1.34505261 -3.13105513
   6.08782101 -0.03286705 -8.79153489
   1.45750701  3.35295570 -2.47782534
   1.50104997  2.00888134 -8.08574506
   4.57135103  3.40694425 -2.47862891
   4.57135103  2.02833247 -8.11000817
   7.68519505  3.35295570 -2.47782534
   7.64165209  2.00888134 -8.08574506
   1.50466485  2.83038492 -5.01948949
   1.51364432  1.43416559-10.66560582
   4.57135103  2.81279617 -5.02937394
   4.57135103  1.47182859-10.67159643
   7.63803720  2.83038492 -5.01948949
   7.62905773  1.43416559-10.66560582
   0.00000000  1.86648713 -0.64413896
   0.00000000  0.39807338 -6.09938552
   3.09278315  1.96510403 -0.55058653
   3.02995829  0.52063328 -6.23605127
   6.04991891  1.96510403 -0.55058653
   6.11274376  0.52063328 -6.23605127
   0.00000000  0.16451006 -4.49183205
 


--------------------------------------------------------------------------------------------------------


 k-point   1 :   0.0000 0.0000 0.0000  plane waves:   27533
 k-point   2 :   0.5000 0.0000 0.0000  plane waves:   27522
 k-point   3 :   0.0000 0.5000 0.0000  plane waves:   27488
 k-point   4 :   0.5000 0.5000 0.0000  plane waves:   27488
 k-point   5 :   0.0000 0.0000 0.5000  plane waves:   27482
 k-point   6 :   0.5000 0.0000 0.5000  plane waves:   27476
 k-point   7 :   0.0000 0.5000 0.5000  plane waves:   27468
 k-point   8 :   0.5000 0.5000 0.5000  plane waves:   27564

 maximum and minimum number of plane-waves per node :     27564    27468

 maximum number of plane-waves:     27564
 maximum index in each direction: 
   IXMAX=   21   IYMAX=   15   IZMAX=   20
   IXMIN=  -21   IYMIN=  -16   IZMIN=  -20


 serial   3D FFT for wavefunctions
 parallel 3D FFT for charge:
    minimum data exchange during FFTs selected (reduces bandwidth)


 FFT grid for exact exchange (Hartree Fock) 
  NGX = 48; NGY = 36; NGZ = 48

 
 Radii for the augmentation spheres in the non-local exchange
 for species   1 augmentation radius   1.392 (default was   1.031)
       energy cutoff for augmentation   1800.0
 for species   2 augmentation radius   0.974 (default was   0.722)
       energy cutoff for augmentation   1800.0
 for species   3 augmentation radius   1.294 (default was   0.959)
       energy cutoff for augmentation   1800.0
 Maximum index for augmentation-charges in exchange           748
  SETUP_FOCK is finished

 total amount of memory used by VASP MPI-rank0  7175196. kBytes
=======================================================================

   base      :      30000. kBytes
   nonlr-proj:      32527. kBytes
   fftplans  :      51012. kBytes
   grid      :     102973. kBytes
   one-center:       1850. kBytes
   HF        :        194. kBytes
   wavefun   :    6956640. kBytes
 
     INWAV:  cpu time      0.0001: real time      0.0001
 Broyden mixing: mesh for mixing (old mesh)
   NGX = 43   NGY = 31   NGZ = 41
  (NGX  =128   NGY  = 96   NGZ  =120)
  gives a total of  54653 points

 charge density for first step will be calculated from the start-wavefunctions


--------------------------------------------------------------------------------------------------------


 Maximum index for non-local projection operator          1721
 Maximum index for augmentation-charges          5355 (set IRDMAX)


--------------------------------------------------------------------------------------------------------


 initial charge from wavefunction
 First call to EWALD:  gamma=   0.164
 Maximum number of real-space cells 3x 3x 3
 Maximum number of reciprocal cells 3x 2x 3

    FEWALD:  cpu time      0.0728: real time      0.0728


--------------------------------------- Ionic step        1  -------------------------------------------




--------------------------------------- Iteration      1(   1)  ---------------------------------------


    POTLOK:  cpu time      0.0336: real time      0.0336
    SETDIJ:  cpu time      0.1347: real time      0.1347
    TRIAL :  cpu time      2.8361: real time      2.8443
    CORREC:  cpu time      0.0015: real time      0.0015
    --------------------------------------------
      LOOP:  cpu time      3.8608: real time      3.8712

 eigenvalue-minimisations  : 10456
 total energy-change (2. order) :-0.1848311E+05  (-0.5432894E+05)
 number of electron    1041.9999458 magnetization 
 augmentation part      118.4625237 magnetization 

 Free energy of the ion-electron system (eV)
  ---------------------------------------------------
  alpha Z        PSCENC =      5376.25786726
  Ewald energy   TEWEN  =    -86630.39988638
  -Hartree energ DENC   =     -2080.38015315
  -exchange      EXHF   =         0.00000000
  -V(xc)+E(xc)   XCENC  =      2751.56796214
  PAW double counting   =    332312.58831620  -361061.02021695
  entropy T*S    EENTRO =        -0.01738454
  eigenvalues    EBANDS =    -40651.94316482
  atomic energy  EATOM  =    131500.23896116
  ---------------------------------------------------
  free energy    TOTEN  =    -18483.10769908 eV

  energy without entropy =   -18483.09031455  energy(sigma->0) =   -18483.09900681
  exchange ACFDT corr.  =         0.00000000  see jH, gK, PRB 81, 115126


--------------------------------------------------------------------------------------------------------




--------------------------------------- Iteration      1(   2)  ---------------------------------------


    TRIAL :  cpu time      3.1150: real time      3.1147
    CORREC:  cpu time      0.0015: real time      0.0015
    --------------------------------------------
      LOOP:  cpu time      3.1167: real time      3.1174

 eigenvalue-minimisations  : 13304
 total energy-change (2. order) :-0.4434380E+05  (-0.4284033E+05)
 number of electron    1041.9999458 magnetization 
 augmentation part      118.4625237 magnetization 

 Free energy of the ion-electron system (eV)
  ---------------------------------------------------
  alpha Z        PSCENC =      5376.25786726
  Ewald energy   TEWEN  =    -86630.39988638
  -Hartree energ DENC   =     -2080.38015315
  -exchange      EXHF   =         0.00000000
  -V(xc)+E(xc)   XCENC  =      2751.56796214
  PAW double counting   =    332312.58831620  -361061.02021695
  entropy T*S    EENTRO =        -0.01460496
  eigenvalues    EBANDS =    -84995.74170913
  atomic energy  EATOM  =    131500.23896116
  ---------------------------------------------------
  free energy    TOTEN  =    -62826.90346382 eV

  energy without entropy =   -62826.88885886  energy(sigma->0) =   -62826.89616134
  exchange ACFDT corr.  =         0.00000000  see jH, gK, PRB 81, 115126


--------------------------------------------------------------------------------------------------------




--------------------------------------- Iteration      1(   3)  ---------------------------------------


    TRIAL :  cpu time      3.2782: real time      3.2783
    CORREC:  cpu time      0.0016: real time      0.0016
    --------------------------------------------
      LOOP:  cpu time      3.2801: real time      3.2805

 eigenvalue-minimisations  : 14420
 total energy-change (2. order) :-0.4952986E+04  (-0.4506940E+04)
 number of electron    1041.9999458 magnetization 
 augmentation part      118.4625237 magnetization 

 Free energy of the ion-electron system (eV)
  ---------------------------------------------------
  alpha Z        PSCENC =      5376.25786726
  Ewald energy   TEWEN  =    -86630.39988638
  -Hartree energ DENC   =     -2080.38015315
  -exchange      EXHF   =         0.00000000
  -V(xc)+E(xc)   XCENC  =      2751.56796214
  PAW double counting   =    332312.58831620  -361061.02021695
  entropy T*S    EENTRO =        -0.04386192
  eigenvalues    EBANDS =    -89948.69854187
  atomic energy  EATOM  =    131500.23896116
  ---------------------------------------------------
  free energy    TOTEN  =    -67779.88955352 eV

  energy without entropy =   -67779.84569160  energy(sigma->0) =   -67779.86762256
  exchange ACFDT corr.  =         0.00000000  see jH, gK, PRB 81, 115126


--------------------------------------------------------------------------------------------------------




--------------------------------------- Iteration      1(   4)  ---------------------------------------


    TRIAL :  cpu time      3.9571: real time      3.9566
    CORREC:  cpu time      0.0017: real time      0.0017
    --------------------------------------------
      LOOP:  cpu time      3.9591: real time      3.9589

 eigenvalue-minimisations  : 18168
 total energy-change (2. order) :-0.7159347E+03  (-0.6383788E+03)
 number of electron    1041.9999458 magnetization 
 augmentation part      118.4625237 magnetization 

 Free energy of the ion-electron system (eV)
  ---------------------------------------------------
  alpha Z        PSCENC =      5376.25786726
  Ewald energy   TEWEN  =    -86630.39988638
  -Hartree energ DENC   =     -2080.38015315
  -exchange      EXHF   =         0.00000000
  -V(xc)+E(xc)   XCENC  =      2751.56796214
  PAW double counting   =    332312.58831620  -361061.02021695
  entropy T*S    EENTRO =        -0.05884718
  eigenvalues    EBANDS =    -90664.61824224
  atomic energy  EATOM  =    131500.23896116
  ---------------------------------------------------
  free energy    TOTEN  =    -68495.82423914 eV

  energy without entropy =   -68495.76539196  energy(sigma->0) =   -68495.79481555
  exchange ACFDT corr.  =         0.00000000  see jH, gK, PRB 81, 115126


--------------------------------------------------------------------------------------------------------




--------------------------------------- Iteration      1(   5)  ---------------------------------------


    POTLOK:  cpu time      1.3701: real time      1.3699
    SETDIJ:  cpu time      0.4662: real time      0.4662
    TRIAL :  cpu time    229.5933: real time    229.7073
    CORREC:  cpu time      0.0007: real time      0.0007
    CHARGE:  cpu time      0.2046: real time      0.2046
    --------------------------------------------
      LOOP:  cpu time    231.6351: real time    231.7493

 eigenvalue-minimisations  : 17984
 total energy-change (2. order) : 0.2957101E+05  (-0.6811225E+02)
 number of electron    1041.9998663 magnetization 
 augmentation part      480.1559615 magnetization 

 Free energy of the ion-electron system (eV)
  ---------------------------------------------------
  alpha Z        PSCENC =      5376.25786726
  Ewald energy   TEWEN  =    -86630.39988638
  -Hartree energ DENC   =     -2080.38015315
  -exchange      EXHF   =      4726.85272363
  -V(xc)+E(xc)   XCENC  =      1902.06487695
  PAW double counting   =    333521.56054533  -335512.52020843
  entropy T*S    EENTRO =        -0.00000000
  eigenvalues    EBANDS =    -91728.48724972
  atomic energy  EATOM  =    131500.23896116
  ---------------------------------------------------
  free energy    TOTEN  =    -38924.81252335 eV

  energy without entropy =   -38924.81252335  energy(sigma->0) =   -38924.81252335
  exchange ACFDT corr.  =        -0.75879096  see jH, gK, PRB 81, 115126


--------------------------------------------------------------------------------------------------------




--------------------------------------- Iteration      1(   6)  ---------------------------------------


    POTLOK:  cpu time      1.4145: real time      1.4146
    SETDIJ:  cpu time      0.4442: real time      0.4441
    TRIAL :  cpu time    226.8554: real time    226.9164
    CORREC:  cpu time    230.6807: real time    230.6443
    CHARGE:  cpu time      0.2042: real time      0.2042
    --------------------------------------------
      LOOP:  cpu time    459.6018: real time    459.6269

 eigenvalue-minimisations  :     0
 total energy-change (2. order) : 0.7109745E+05  (-0.2248696E+05)
 number of electron    1041.9998198 magnetization 
 augmentation part      446.9847932 magnetization 

 Free energy of the ion-electron system (eV)
  ---------------------------------------------------
  alpha Z        PSCENC =      5376.25786726
  Ewald energy   TEWEN  =    -86630.39988638
  -Hartree energ DENC   =    -80855.43111746
  -exchange      EXHF   =      4830.55731990
  -V(xc)+E(xc)   XCENC  =      3739.35702913
  PAW double counting   =    149481.55749535  -174189.12686111
  entropy T*S    EENTRO =        -0.03551284
  eigenvalues    EBANDS =     78919.62306505
  atomic energy  EATOM  =    131500.23896116
  ---------------------------------------------------
  free energy    TOTEN  =     32172.63387289 eV

  energy without entropy =    32172.66938573  energy(sigma->0) =    32172.65162931
  exchange ACFDT corr.  =        -0.00000000  see jH, gK, PRB 81, 115126


--------------------------------------------------------------------------------------------------------




--------------------------------------- Iteration      1(   7)  ---------------------------------------


    POTLOK:  cpu time      1.4632: real time      1.4632
    SETDIJ:  cpu time      0.5098: real time      0.5097
    TRIAL :  cpu time    228.2871: real time    228.2539
    CORREC:  cpu time    229.3777: real time    229.3420
    CHARGE:  cpu time      0.2038: real time      0.2038
    --------------------------------------------
      LOOP:  cpu time    459.8419: real time    459.7732

 eigenvalue-minimisations  :     0
 total energy-change (2. order) :-0.1887191E+05  (-0.7534386E+04)
 number of electron    1041.9998483 magnetization 
 augmentation part      406.6145700 magnetization 

 Free energy of the ion-electron system (eV)
  ---------------------------------------------------
  alpha Z        PSCENC =      5376.25786726
  Ewald energy   TEWEN  =    -86630.39988638
  -Hartree energ DENC   =    -41430.61693590
  -exchange      EXHF   =      3595.42632759
  -V(xc)+E(xc)   XCENC  =      2811.11148374
  PAW double counting   =    157971.53845088  -174899.02970940
  entropy T*S    EENTRO =        -0.02954959
  eigenvalues    EBANDS =     15006.22912865
  atomic energy  EATOM  =    131500.23896116
  ---------------------------------------------------
  free energy    TOTEN  =     13300.72017474 eV

  energy without entropy =    13300.74972433  energy(sigma->0) =    13300.73494954
  exchange ACFDT corr.  =      -150.11725456  see jH, gK, PRB 81, 115126


--------------------------------------------------------------------------------------------------------




--------------------------------------- Iteration      1(   8)  ---------------------------------------


    POTLOK:  cpu time      1.5198: real time      1.5195
    SETDIJ:  cpu time      0.4357: real time      0.4356
    TRIAL :  cpu time    228.2898: real time    228.2576
    CORREC:  cpu time    229.3616: real time    229.3252
    CHARGE:  cpu time      0.2042: real time      0.2042
    --------------------------------------------
      LOOP:  cpu time    459.8114: real time    459.7448

 eigenvalue-minimisations  :     0
 total energy-change (2. order) :-0.2727523E+04  (-0.5292694E+04)
 number of electron    1041.9998374 magnetization 
 augmentation part      407.8427565 magnetization 

 Free energy of the ion-electron system (eV)
  ---------------------------------------------------
  alpha Z        PSCENC =      5376.25786726
  Ewald energy   TEWEN  =    -86630.39988638
  -Hartree energ DENC   =    -31740.13236009
  -exchange      EXHF   =      3273.36532815
  -V(xc)+E(xc)   XCENC  =      2618.19935004
  PAW double counting   =    162809.20237759  -176365.62886735
  entropy T*S    EENTRO =        -0.02783580
  eigenvalues    EBANDS =      -267.87612397
  atomic energy  EATOM  =    131500.23896116
  ---------------------------------------------------
  free energy    TOTEN  =     10573.19709682 eV

  energy without entropy =    10573.22493262  energy(sigma->0) =    10573.21101472
  exchange ACFDT corr.  =      -134.55635680  see jH, gK, PRB 81, 115126


--------------------------------------------------------------------------------------------------------




--------------------------------------- Iteration      1(   9)  ---------------------------------------


    POTLOK:  cpu time      1.5119: real time      1.5120
    SETDIJ:  cpu time      0.4233: real time      0.4237
    TRIAL :  cpu time    228.0626: real time    228.0306
    CORREC:  cpu time    229.2637: real time    229.2318
    CHARGE:  cpu time      0.2028: real time      0.2028
    --------------------------------------------
      LOOP:  cpu time    459.4646: real time    459.4014

 eigenvalue-minimisations  :     0
 total energy-change (2. order) :-0.3200307E+04  (-0.3473370E+04)
 number of electron    1041.9998226 magnetization 
 augmentation part      431.2924290 magnetization 

 Free energy of the ion-electron system (eV)
  ---------------------------------------------------
  alpha Z        PSCENC =      5376.25786726
  Ewald energy   TEWEN  =    -86630.39988638
  -Hartree energ DENC   =    -28813.23264262
  -exchange      EXHF   =      3208.52513691
  -V(xc)+E(xc)   XCENC  =      2578.23864614
  PAW double counting   =    155920.31105840  -169304.12780551
  entropy T*S    EENTRO =        -0.01613647
  eigenvalues    EBANDS =     -6462.89322519
  atomic energy  EATOM  =    131500.23896116
  ---------------------------------------------------
  free energy    TOTEN  =      7372.89027439 eV

  energy without entropy =     7372.90641085  energy(sigma->0) =     7372.89834262
  exchange ACFDT corr.  =      -122.67108139  see jH, gK, PRB 81, 115126


--------------------------------------------------------------------------------------------------------




--------------------------------------- Iteration      1(  10)  ---------------------------------------


    POTLOK:  cpu time      1.5051: real time      1.5049
    SETDIJ:  cpu time      0.4750: real time      0.4749
    TRIAL :  cpu time    227.8362: real time    227.8073
    CORREC:  cpu time    229.5119: real time    229.5152
    CHARGE:  cpu time      0.2040: real time      0.2040
    --------------------------------------------
      LOOP:  cpu time    459.5345: real time    459.5088

 eigenvalue-minimisations  :     0
 total energy-change (2. order) :-0.2132564E+04  (-0.2829373E+04)
 number of electron    1041.9998245 magnetization 
 augmentation part      449.4205293 magnetization 

 Free energy of the ion-electron system (eV)
  ---------------------------------------------------
  alpha Z        PSCENC =      5376.25786726
  Ewald energy   TEWEN  =    -86630.39988638
  -Hartree energ DENC   =    -30718.52956383
  -exchange      EXHF   =      3303.58737894
  -V(xc)+E(xc)   XCENC  =      2641.20805095
  PAW double counting   =    152364.73297507  -167420.68470141
  entropy T*S    EENTRO =        -0.01113754
  eigenvalues    EBANDS =     -5176.06868619
  atomic energy  EATOM  =    131500.23896116
  ---------------------------------------------------
  free energy    TOTEN  =      5240.32625912 eV

  energy without entropy =     5240.33739665  energy(sigma->0) =     5240.33182788
  exchange ACFDT corr.  =       -95.90400841  see jH, gK, PRB 81, 115126


--------------------------------------------------------------------------------------------------------




--------------------------------------- Iteration      1(  11)  ---------------------------------------


    POTLOK:  cpu time      1.4841: real time      1.4839
    SETDIJ:  cpu time      0.4781: real time      0.4781
    TRIAL :  cpu time    227.5323: real time    227.4964
    CORREC:  cpu time    229.0250: real time    228.9925
    CHARGE:  cpu time      0.2023: real time      0.2022
    --------------------------------------------
      LOOP:  cpu time    458.7241: real time    458.6559

 eigenvalue-minimisations  :     0
 total energy-change (2. order) :-0.2313221E+04  (-0.1677275E+04)
 number of electron    1041.9998223 magnetization 
[...]
   0.276E+02 0.116E+03 -.951E+02   -.277E+02 -.114E+03 0.962E+02   0.787E-01 -.175E+01 -.102E+01
   -.506E-05 0.510E+02 0.482E+01   0.157E-11 -.489E+02 -.298E+01   0.000E+00 -.189E+01 -.177E+01
   0.226E-04 0.694E+02 -.662E+02   0.390E-12 -.678E+02 0.675E+02   0.000E+00 -.138E+01 -.126E+01
   -.142E+02 0.965E+02 0.211E+02   0.145E+02 -.932E+02 -.187E+02   -.264E+00 -.307E+01 -.235E+01
   -.276E+02 0.116E+03 -.951E+02   0.277E+02 -.114E+03 0.962E+02   -.787E-01 -.175E+01 -.102E+01
   0.554E+02 -.431E+02 0.119E+03   -.555E+02 0.482E+02 -.126E+03   0.126E+00 -.440E+01 0.565E+01
   0.193E+02 -.390E+02 -.316E+02   -.194E+02 0.450E+02 0.280E+02   0.109E+00 -.513E+01 0.309E+01
   0.114E-04 -.148E+02 0.422E+02   0.516E-12 0.213E+02 -.454E+02   0.000E+00 -.561E+01 0.274E+01
   0.174E-05 -.273E+02 -.181E+02   0.124E-12 0.343E+02 0.147E+02   0.000E+00 -.604E+01 0.292E+01
   -.554E+02 -.431E+02 0.119E+03   0.555E+02 0.482E+02 -.126E+03   -.126E+00 -.440E+01 0.565E+01
   -.193E+02 -.390E+02 -.316E+02   0.194E+02 0.450E+02 0.280E+02   -.109E+00 -.513E+01 0.309E+01
   0.605E-05 0.389E+02 -.256E+02   -.132E-11 -.429E+02 0.294E+02   0.000E+00 0.347E+01 -.327E+01
   -.327E-05 0.251E+02 -.162E+02   -.143E-11 -.318E+02 0.197E+02   0.000E+00 0.579E+01 -.302E+01
   0.898E+01 0.352E+02 -.226E+02   -.906E+01 -.419E+02 0.265E+02   0.826E-01 0.581E+01 -.337E+01
   0.487E+01 0.200E+02 -.161E+02   -.488E+01 -.267E+02 0.199E+02   0.681E-02 0.577E+01 -.323E+01
   -.898E+01 0.352E+02 -.226E+02   0.906E+01 -.419E+02 0.265E+02   -.826E-01 0.581E+01 -.337E+01
   -.487E+01 0.200E+02 -.161E+02   0.488E+01 -.267E+02 0.199E+02   -.681E-02 0.577E+01 -.323E+01
   0.881E+00 0.595E+02 0.361E+02   -.114E+01 -.586E+02 -.309E+02   0.229E+00 -.735E+00 -.441E+01
   0.114E+01 0.718E+02 0.357E+02   -.997E+00 -.699E+02 -.309E+02   -.122E+00 -.161E+01 -.418E+01
   -.308E-05 0.521E+02 0.466E+02   -.108E-10 -.504E+02 -.425E+02   0.000E+00 -.146E+01 -.357E+01
   -.188E-04 0.742E+02 0.357E+02   0.413E-12 -.728E+02 -.311E+02   0.000E+00 -.124E+01 -.398E+01
   -.881E+00 0.595E+02 0.361E+02   0.114E+01 -.586E+02 -.309E+02   -.229E+00 -.735E+00 -.441E+01
   -.114E+01 0.718E+02 0.357E+02   0.997E+00 -.699E+02 -.309E+02   0.122E+00 -.161E+01 -.418E+01
   -.106E-04 -.127E+03 -.197E+02   -.441E-11 0.125E+03 0.173E+02   0.000E+00 0.191E+01 0.203E+01
   -.190E-05 -.775E+02 -.408E+02   -.242E-12 0.756E+02 0.361E+02   0.000E+00 0.161E+01 0.398E+01
   0.130E+02 -.894E+02 -.170E+02   -.126E+02 0.866E+02 0.129E+02   -.388E+00 0.239E+01 0.352E+01
   0.273E+01 -.704E+02 -.436E+02   -.266E+01 0.683E+02 0.387E+02   -.646E-01 0.178E+01 0.422E+01
   -.130E+02 -.894E+02 -.170E+02   0.126E+02 0.866E+02 0.129E+02   0.388E+00 0.239E+01 0.352E+01
   -.273E+01 -.704E+02 -.436E+02   0.266E+01 0.683E+02 0.387E+02   0.646E-01 0.178E+01 0.422E+01
   0.304E-04 0.627E+02 0.531E+02   -.123E-11 -.753E+02 -.511E+02   0.000E+00 0.109E+02 -.171E+01
   -.140E-04 0.107E+03 0.899E+02   -.115E-11 -.119E+03 -.861E+02   0.000E+00 0.106E+02 -.327E+01
   0.595E+01 0.729E+02 0.478E+02   -.518E+01 -.826E+02 -.449E+02   -.664E+00 0.843E+01 -.250E+01
   0.600E+01 0.117E+03 0.816E+02   -.603E+01 -.130E+03 -.778E+02   0.359E-01 0.108E+02 -.324E+01
   -.595E+01 0.729E+02 0.478E+02   0.518E+01 -.826E+02 -.449E+02   0.664E+00 0.843E+01 -.250E+01
   -.600E+01 0.117E+03 0.816E+02   0.603E+01 -.130E+03 -.778E+02   -.359E-01 0.108E+02 -.324E+01
   0.845E-01 -.130E+03 -.508E+02   0.232E+00 0.142E+03 0.477E+02   -.272E+00 -.108E+02 0.264E+01
   0.108E+01 -.123E+03 -.733E+02   -.131E+01 0.135E+03 0.694E+02   0.202E+00 -.110E+02 0.333E+01
   0.943E-05 -.126E+03 -.506E+02   -.174E-10 0.139E+03 0.478E+02   0.000E+00 -.107E+02 0.244E+01
   -.451E-04 -.128E+03 -.783E+02   0.504E-12 0.141E+03 0.750E+02   0.000E+00 -.110E+02 0.285E+01
   -.845E-01 -.130E+03 -.508E+02   -.232E+00 0.142E+03 0.477E+02   0.272E+00 -.108E+02 0.264E+01
   -.108E+01 -.123E+03 -.733E+02   0.131E+01 0.135E+03 0.694E+02   -.202E+00 -.110E+02 0.333E+01
   -.284E-04 -.242E+01 0.300E+02   -.478E-11 0.940E+01 -.345E+02   0.000E+00 -.596E+01 0.390E+01
   -.283E-04 0.640E+01 -.795E+01   -.194E-12 0.119E+01 0.473E+01   0.000E+00 -.652E+01 0.277E+01
   0.530E+01 -.125E+02 0.297E+02   -.531E+01 0.196E+02 -.342E+02   0.327E-01 -.612E+01 0.384E+01
   0.456E+01 -.465E+01 -.203E+01   -.425E+01 0.123E+02 -.131E+01   -.264E+00 -.655E+01 0.286E+01
   -.530E+01 -.125E+02 0.297E+02   0.531E+01 0.196E+02 -.342E+02   -.327E-01 -.612E+01 0.384E+01
   -.456E+01 -.465E+01 -.203E+01   0.425E+01 0.123E+02 -.131E+01   0.264E+00 -.655E+01 0.286E+01
   0.122E+03 -.862E+02 -.270E+02   -.113E+03 0.691E+02 0.304E+02   -.826E+01 0.147E+02 -.302E+01
   0.124E+02 0.179E+02 0.120E+02   -.127E+02 -.260E+02 -.101E+02   0.271E+00 0.691E+01 -.168E+01
   -.121E-04 -.588E+01 -.188E+02   0.360E-12 -.756E+00 0.227E+02   0.000E+00 0.569E+01 -.338E+01
   -.654E-05 0.220E+02 -.229E+01   0.315E-12 -.301E+02 0.556E+01   0.000E+00 0.697E+01 -.282E+01
   -.122E+03 -.862E+02 -.270E+02   0.113E+03 0.691E+02 0.304E+02   0.826E+01 0.147E+02 -.302E+01
   -.124E+02 0.179E+02 0.120E+02   0.127E+02 -.260E+02 -.101E+02   -.271E+00 0.691E+01 -.168E+01
   -.172E-04 0.561E+02 0.129E+02   -.156E-12 -.541E+02 -.103E+02   0.000E+00 -.178E+01 -.221E+01
   0.762E+02 0.843E+02 0.623E+02   -.762E+02 -.818E+02 -.576E+02   0.101E+00 -.216E+01 -.407E+01
   0.419E+01 0.549E+02 0.272E+02   -.315E+01 -.524E+02 -.233E+02   -.890E+00 -.216E+01 -.333E+01
   -.762E+02 0.843E+02 0.623E+02   0.762E+02 -.818E+02 -.576E+02   -.101E+00 -.216E+01 -.407E+01
   -.419E+01 0.549E+02 0.272E+02   0.315E+01 -.524E+02 -.233E+02   0.890E+00 -.216E+01 -.333E+01
   0.533E+02 0.112E+02 0.346E+01   -.531E+02 -.118E+02 -.738E+01   -.421E-01 0.553E+00 0.339E+01
   0.130E+02 -.533E+02 -.735E+02   -.126E+02 0.516E+02 0.685E+02   -.422E+00 0.148E+01 0.426E+01
   0.182E-04 -.560E+02 -.173E+02   0.498E-12 0.549E+02 0.129E+02   0.000E+00 0.889E+00 0.377E+01
   0.823E-06 -.647E+02 -.528E+02   0.238E-12 0.629E+02 0.478E+02   0.000E+00 0.155E+01 0.433E+01
   -.533E+02 0.112E+02 0.346E+01   0.531E+02 -.118E+02 -.738E+01   0.421E-01 0.553E+00 0.339E+01
   -.130E+02 -.533E+02 -.735E+02   0.126E+02 0.516E+02 0.685E+02   0.422E+00 0.148E+01 0.426E+01
   0.505E+02 0.208E+03 0.139E+02   -.498E+02 -.221E+03 -.112E+02   -.599E+00 0.113E+02 -.239E+01
   0.105E+02 0.128E+03 0.713E+02   -.105E+02 -.141E+03 -.683E+02   0.150E-01 0.111E+02 -.254E+01
   -.543E-05 0.146E+03 0.499E+02   0.274E-12 -.159E+03 -.470E+02   0.000E+00 0.112E+02 -.247E+01
   0.227E-05 0.116E+03 0.695E+02   0.493E-12 -.129E+03 -.666E+02   0.000E+00 0.107E+02 -.243E+01
   -.505E+02 0.208E+03 0.139E+02   0.498E+02 -.221E+03 -.112E+02   0.599E+00 0.113E+02 -.239E+01
   -.105E+02 0.128E+03 0.713E+02   0.105E+02 -.141E+03 -.683E+02   -.150E-01 0.111E+02 -.254E+01
   -.572E-04 -.790E+02 0.373E+02   -.186E-12 0.898E+02 -.391E+02   0.000E+00 -.930E+01 0.164E+01
   -.281E-04 -.909E+02 -.212E+03   -.113E-12 0.995E+02 0.193E+03   0.000E+00 -.746E+01 0.163E+02
   0.441E+01 -.122E+03 -.407E+02   -.106E+01 0.136E+03 0.401E+02   -.287E+01 -.123E+02 0.531E+00
   0.340E+02 -.119E+03 -.107E+03   -.334E+02 0.131E+03 0.104E+03   -.514E+00 -.107E+02 0.325E+01
   -.441E+01 -.122E+03 -.407E+02   0.106E+01 0.136E+03 0.401E+02   0.287E+01 -.123E+02 0.531E+00
   -.340E+02 -.119E+03 -.107E+03   0.334E+02 0.131E+03 0.104E+03   0.514E+00 -.107E+02 0.325E+01
   0.586E-06 -.132E+03 -.110E+03   -.206E-12 0.146E+03 0.118E+03   0.000E+00 -.137E+02 -.835E+01
 -----------------------------------------------------------------------------------------------
   0.146E-03 -.386E+01 -.233E+02   0.149E-12 0.114E-11 0.526E-12   0.222E-15 0.195E+01 0.189E+02
 
 
 POSITION                                       TOTAL-FORCE (eV/Angst)
 -----------------------------------------------------------------------------------
      0.00000      7.65819     -1.74727        -0.000000      0.026141      0.019975
      0.00000      6.29236     -7.41501        -0.000000      0.079144      0.006056
      3.04520      7.66624     -1.76472        -0.013355      0.027992      0.013809
      3.05037      6.28814     -7.41399        -0.005306      0.081700      0.011759
      6.09750      7.66624     -1.76472         0.013355      0.027992      0.013809
      6.09234      6.28814     -7.41399         0.005306      0.081700      0.011759
      1.49593      9.36506     -3.86274        -0.038197     -0.205134      0.004995
      1.52153      7.99101     -9.52713        -0.000991     -0.056467     -0.015917
      4.57135      9.41452     -3.86891        -0.000000     -0.055404     -0.023215
      4.57135      7.97564     -9.53205        -0.000000     -0.046532     -0.002806
      7.64677      9.36506     -3.86274         0.038197     -0.205134      0.004995
      7.62117      7.99101     -9.52713         0.000991     -0.056467     -0.015917
      1.53942      6.18830     -4.49751        -0.031560     -0.038705      0.024339
      1.52291      4.78170    -10.13470         0.000934     -0.017048      0.016792
      4.57135      6.15759     -4.48022        -0.000000     -0.024624      0.003561
      4.57135      4.76781    -10.13988        -0.000000     -0.009140      0.023658
      7.60329      6.18830     -4.49751         0.031560     -0.038705      0.024339
      7.61979      4.78170    -10.13470        -0.000934     -0.017048      0.016792
      0.00000     10.91203     -1.15806        -0.000000      0.039088     -0.037589
      0.00000      9.49333     -6.80694        -0.000000      0.040088     -0.016938
      3.04397     10.89635     -1.14682        -0.006936      0.023472     -0.013149
      3.05108      9.49776     -6.81861        -0.018346      0.052253     -0.009804
      6.09874     10.89635     -1.14682         0.006936      0.023472     -0.013149
      6.09162      9.49776     -6.81861         0.018346      0.052253     -0.009804
      1.61430      1.55391     -1.64332         0.124919      0.128800      0.124198
      1.55268      0.11561     -7.42575         0.075553      0.020195     -0.046093
      4.57135      1.53180     -1.75072        -0.000000      0.108570      0.031125
      4.57135      0.15069     -7.38519        -0.000000      0.057902     -0.007360
      7.52840      1.55391     -1.64332        -0.124919      0.128800      0.124198
      7.59002      0.11561     -7.42575        -0.075553      0.020195     -0.046093
      0.00000      3.33644     -3.91108        -0.000000      0.184121     -0.031883
      0.00000      1.86221     -9.50329        -0.000000     -0.085943     -0.029136
      3.04940      3.23301     -3.88122         0.007139     -0.074227      0.005191
      3.04951      1.85398     -9.52245         0.021632     -0.090455     -0.043554
      6.09330      3.23301     -3.88122        -0.007139     -0.074227      0.005191
      6.09319      1.85398     -9.52245        -0.021632     -0.090455     -0.043554
      0.00000     -1.35295    -10.11565        -0.000000     -0.059720     -0.023446
      3.01356      0.04448     -4.46877         0.060051      0.119661     -0.028537
      3.06141     -1.36965    -10.09060        -0.003986     -0.007466     -0.023841
      6.12914      0.04448     -4.46877        -0.060051      0.119661     -0.028537
      6.08129     -1.36965    -10.09060         0.003986     -0.007466     -0.023841
      1.51784      4.72978     -1.13936        -0.020339      0.011485     -0.027718
      1.52440      3.36907     -6.79804        -0.002050      0.012152      0.015626
      4.57135      4.73865     -1.14529        -0.000000      0.000300     -0.029251
      4.57135      3.36133     -6.79642        -0.000000      0.016742      0.003426
      7.62487      4.72978     -1.13936         0.020339      0.011485     -0.027718
      7.61830      3.36907     -6.79804         0.002050      0.012152      0.015626
      1.52088     -0.36317     -1.51199         0.032590     -0.192193      0.214593
      1.52168     10.50139     -7.09419         0.019504     -0.149745      0.105985
      4.57135     11.90872     -1.41391        -0.000000     -0.181660      0.097709
      4.57135     10.51574     -7.08043        -0.000000     -0.169831      0.102770
      7.62182     -0.36317     -1.51199        -0.032590     -0.192193      0.214593
      7.62103     10.50139     -7.09419        -0.019504     -0.149745      0.105985
      0.00000      5.20390     -4.21307        -0.000000      0.116572     -0.132758
      0.00000      3.76808     -9.84972        -0.000000      0.173337     -0.111480
      3.04153      5.14553     -4.20029         0.013550      0.182580     -0.131559
      3.04148      3.76420     -9.84930         0.005468      0.170722     -0.115338
      6.10117      5.14553     -4.20029        -0.013550      0.182580     -0.131559
      6.10122      3.76420     -9.84930        -0.005468      0.170722     -0.115338
      1.52678      7.49439     -3.15736         0.013576      0.011052     -0.117390
      1.52058      6.10362     -8.80994        -0.001775     -0.043248     -0.125590
      4.57135      7.51573     -3.17480        -0.000000     -0.013669     -0.093546
      4.57135      6.09389     -8.81026        -0.000000     -0.030691     -0.120896
      7.61592      7.49439     -3.15736        -0.013576      0.011052     -0.117390
      7.62212      6.10362     -8.80994         0.001775     -0.043248     -0.125590
      0.00000      9.57892     -2.48732        -0.000000      0.020312      0.025903
      0.00000      8.18190     -8.13973        -0.000000      0.024758      0.109655
      3.01637      9.59985     -2.49693        -0.001432      0.050374      0.085786
      3.04772      8.17552     -8.13642         0.000642      0.033769      0.122865
      6.12633      9.59985     -2.49693         0.001432      0.050374      0.085786
      6.09499      8.17552     -8.13642        -0.000642      0.033769      0.122865
      0.00000      8.98577     -5.03319        -0.000000      0.401957     -0.014787
      0.00000      7.62140    -10.69950        -0.000000      0.372329     -0.079695
      3.02024      9.10150     -5.01785        -0.012067      0.310985     -0.048904
      3.03967      7.60130    -10.69000         0.014394      0.384080     -0.078001
      6.12246      9.10150     -5.01785         0.012067      0.310985     -0.048904
      6.10303      7.60130    -10.69000        -0.014394      0.384080     -0.078001
      1.52396      8.05927     -0.60715        -0.005561     -0.398463      0.068387
      1.52953      6.70459     -6.26109         0.010763     -0.403896      0.073592
      4.57135      8.06070     -0.61470        -0.000000     -0.393191      0.064911
      4.57135      6.70359     -6.24526        -0.000000     -0.409105      0.062346
      7.61874      8.05927     -0.60715         0.005561     -0.398463      0.068387
      7.61317      6.70459     -6.26109        -0.010763     -0.403896      0.073592
      0.00000      5.73803     -1.43882        -0.000000     -0.125081      0.144137
      0.00000      4.37797     -7.06043        -0.000000     -0.176361      0.089354
      3.03959      5.73508     -1.44406         0.024852     -0.123461      0.142664
      3.04754      4.37195     -7.06408        -0.002327     -0.174751      0.093094
      6.10311      5.73508     -1.44406        -0.024852     -0.123461      0.142664
      6.09516      4.37195     -7.06408         0.002327     -0.174751      0.093094
      1.29281     -0.84059     -4.29525        -0.199489      0.397962     -0.135320
      1.52478     -2.36802     -9.88964         0.022137      0.165690     -0.042320
      4.57135     -0.93710     -4.17972        -0.000000      0.150324     -0.120122
      4.57135     -2.38806     -9.84111        -0.000000      0.186801     -0.091702
      7.84989     -0.84059     -4.29525         0.199489      0.397962     -0.135320
      7.61792     -2.36802     -9.88964        -0.022137      0.165690     -0.042320
      0.00000     -0.04793     -8.74978        -0.000000     -0.022190     -0.020589
      3.01939      1.34505     -3.13106         0.048919     -0.068382     -0.146040
      3.05488     -0.03287     -8.79153        -0.024459     -0.044751     -0.075762
      6.12331      1.34505     -3.13106        -0.048919     -0.068382     -0.146040
      6.08782     -0.03287     -8.79153         0.024459     -0.044751     -0.075762
      1.45751      3.35296     -2.47783         0.055620      0.057347      0.113192
      1.50105      2.00888     -8.08575        -0.007325      0.042279      0.113701
      4.57135      3.40694     -2.47863        -0.000000      0.020255      0.105425
      4.57135      2.02833     -8.11001        -0.000000      0.038996      0.126032
      7.68520      3.35296     -2.47783        -0.055620      0.057347      0.113192
      7.64165      2.00888     -8.08575         0.007325      0.042279      0.113701
      1.50466      2.83038     -5.01949        -0.001755      0.429304     -0.095181
      1.51364      1.43417    -10.66561         0.014249      0.436048     -0.032504
      4.57135      2.81280     -5.02937        -0.000000      0.423650     -0.075322
      4.57135      1.47183    -10.67160        -0.000000      0.404619     -0.041055
      7.63804      2.83038     -5.01949         0.001755      0.429304     -0.095181
      7.62906      1.43417    -10.66561        -0.014249      0.436048     -0.032504
      0.00000      1.86649     -0.64414        -0.000000     -0.335356      0.122744
      0.00000      0.39807     -6.09939        -0.000000     -0.303693      0.459309
      3.09278      1.96510     -0.55059        -0.076722     -0.459600      0.010436
      3.02996      0.52063     -6.23605        -0.003807     -0.392255      0.077447
      6.04992      1.96510     -0.55059         0.076722     -0.459600      0.010436
      6.11274      0.52063     -6.23605         0.003807     -0.392255      0.077447
      0.00000      0.16451     -4.49183        -0.000000     -0.863131     -0.666375
 -----------------------------------------------------------------------------------
    total drift:                                0.000146      0.011847     -0.034330


--------------------------------------------------------------------------------------------------------



  FREE ENERGIE OF THE ION-ELECTRON SYSTEM (eV)
  ---------------------------------------------------
  free  energy   TOTEN  =      -945.88529296 eV

  energy  without entropy=     -945.88111655  energy(sigma->0) =     -945.88320475
 


--------------------------------------------------------------------------------------------------------


    POTLOK:  cpu time      1.9537: real time      1.9605


--------------------------------------------------------------------------------------------------------


 writing wavefunctions
     LOOP+:  cpu time  18473.9634: real time  18471.8508
    4ORBIT:  cpu time      0.0000: real time      0.0000

 total amount of memory used by VASP MPI-rank0  7418514. kBytes
=======================================================================

   base      :      30000. kBytes
   nonlr-proj:      46612. kBytes
   fftplans  :      51012. kBytes
   grid      :     102973. kBytes
   one-center:       1850. kBytes
   HF        :        194. kBytes
   wavefun   :    6956640. kBytes
   fock_wrk  :     229233. kBytes
 
  
  
 General timing and accounting informations for this job:
 ========================================================
  
                  Total CPU time used (sec):    18505.742
                            User time (sec):    18493.442
                          System time (sec):       12.300
                         Elapsed time (sec):    18505.530
  
                   Maximum memory used (kb):    13356096.
                   Average memory used (kb):          N/A
  
                          Minor page faults:      1296706
                          Major page faults:            4
                 Voluntary context switches:       339464
