<?xml version="1.0" encoding="ISO-8859-1"?>
<modeling>
 <generator>
  <i name="program" type="string">vasp </i>
  <i name="version" type="string">6.4.2  </i>
  <i name="subversion" type="string">20Jul23 (build Nov 12 2023 22:16:35) complex                          parallel </i>
  <i name="platform" type="string">LinuxNV </i>
  <i name="date" type="string">2025 03 29 </i>
  <i name="time" type="string">05:51:25 </i>
 </generator>
 <incar>
  <i type="int" name="ISTART">     0</i>
  <i type="string" name="PREC">Normal</i>
  <i type="string" name="ALGO">All</i>
  <i type="int" name="ISPIN">     1</i>
  <i type="int" name="ICHARG">     0</i>
  <i type="int" name="NELM">   500</i>
  <i type="int" name="IBRION">    -1</i>
  <i name="EDIFF">      0.00001000</i>
  <i name="EDIFFG">     -0.00500000</i>
  <i type="int" name="NSW">     0</i>
  <i type="int" name="ISIF">     2</i>
  <i name="ENCUT">    450.00000000</i>
  <i type="string" name="LREAL">Auto</i>
  <i type="logical" name="LPLANE"> T  </i>
  <i name="TIME">      0.40000000</i>
  <i type="int" name="ISMEAR">     0</i>
  <i name="SIGMA">      0.05000000</i>
  <i type="logical" name="LWAVE"> T  </i>
  <i type="logical" name="LCHARG"> T  </i>
  <i name="HFSCREEN">      0.20000000</i>
  <i type="logical" name="LHFCALC"> T  </i>
  <i type="int" name="LMAXFOCK">     4</i>
  <i name="AEXX">      0.32000000</i>
  <i type="string" name="PRECFOCK">Fast</i>
 </incar>
 <primitive_cell>
  <structure name="primitive_cell" >
   <crystal>
    <varray name="basis" >
     <v>       0.00000000      12.28047342       0.00000000 </v>
     <v>       9.14270205       0.00000000       0.00000000 </v>
     <v>       0.00000000      -2.76826177     -11.30069772 </v>
    </varray>
    <i name="volume">   1268.80515525 </i>
    <varray name="rec_basis" >
     <v>       0.00000000       0.08143009      -0.01994742 </v>
     <v>       0.10937686      -0.00000000       0.00000000 </v>
     <v>       0.00000000       0.00000000      -0.08849011 </v>
    </varray>
   </crystal>
   <varray name="positions" >
    <v>       0.65846082       0.00000000       0.15461602 </v>
    <v>       0.66029752       0.00000000       0.65615530 </v>
    <v>       0.65946433       0.33307416       0.15616046 </v>
    <v>       0.65993398       0.33363955       0.65606495 </v>
    <v>       0.65946433       0.66692584       0.15616046 </v>
    <v>       0.65993398       0.66636045       0.65606495 </v>
    <v>       0.83964929       0.16362000       0.34181416 </v>
    <v>       0.84075032       0.16642003       0.84305674 </v>
    <v>       0.84379971       0.50000000       0.34236011 </v>
    <v>       0.83959675       0.50000000       0.84349243 </v>
    <v>       0.83964929       0.83638000       0.34181416 </v>
    <v>       0.84075032       0.83357997       0.84305674 </v>
    <v>       0.59362761       0.16837644       0.39798480 </v>
    <v>       0.59153490       0.16657127       0.89682040 </v>
    <v>       0.59078217       0.50000000       0.39645497 </v>
    <v>       0.59050786       0.50000000       0.89727897 </v>
    <v>       0.59362761       0.83162356       0.39798480 </v>
    <v>       0.59153490       0.83342873       0.89682040 </v>
    <v>       0.91166752       0.00000000       0.10247680 </v>
    <v>       0.90882370       0.00000000       0.60234650 </v>
    <v>       0.91016685       0.33293943       0.10148241 </v>
    <v>       0.90941684       0.33371782       0.60337918 </v>
    <v>       0.91016685       0.66706057       0.10148241 </v>
    <v>       0.90941684       0.66628218       0.60337918 </v>
    <v>       0.15931511       0.17656684       0.14541745 </v>
    <v>       0.15753832       0.16982711       0.65710531 </v>
    <v>       0.15965724       0.50000000       0.15492154 </v>
    <v>       0.15958582       0.50000000       0.65351632 </v>
    <v>       0.15931511       0.82343316       0.14541745 </v>
    <v>       0.15753832       0.83017289       0.65710531 </v>
    <v>       0.34970257       0.00000000       0.34609192 </v>
    <v>       0.34120577       0.00000000       0.84094744 </v>
    <v>       0.34068425       0.33353393       0.34344969 </v>
    <v>       0.34091788       0.33354588       0.84264248 </v>
    <v>       0.34068425       0.66646607       0.34344969 </v>
    <v>       0.34091788       0.66645412       0.84264248 </v>
    <v>       0.09161048       0.00000000       0.89513491 </v>
    <v>       0.09276228       0.32961358       0.39544225 </v>
    <v>       0.08975053       0.33484747       0.89291848 </v>
    <v>       0.09276228       0.67038642       0.39544225 </v>
    <v>       0.08975053       0.66515253       0.89291848 </v>
    <v>       0.40787333       0.16601613       0.10082219 </v>
    <v>       0.40994695       0.16673432       0.60155894 </v>
    <v>       0.40871397       0.50000000       0.10134661 </v>
    <v>       0.40928443       0.50000000       0.60141555 </v>
    <v>       0.40787333       0.83398387       0.10082219 </v>
    <v>       0.40994695       0.83326568       0.60155894 </v>
    <v>       0.00058723       0.16634898       0.13379604 </v>
    <v>       0.99663990       0.16643614       0.62776579 </v>
    <v>       0.99793186       0.50000000       0.12511680 </v>
    <v>       0.99753395       0.50000000       0.62654833 </v>
    <v>       0.00058723       0.83365102       0.13379604 </v>
    <v>       0.99663990       0.83356386       0.62776579 </v>
    <v>       0.50779392       0.00000000       0.37281522 </v>
    <v>       0.50331181       0.00000000       0.87160299 </v>
    <v>       0.50278581       0.33267334       0.37168419 </v>
    <v>       0.50298746       0.33266757       0.87156524 </v>
    <v>       0.50278581       0.66732666       0.37168419 </v>
    <v>       0.50298746       0.66733243       0.87156524 </v>
    <v>       0.67325048       0.16699435       0.27939555 </v>
    <v>       0.67275415       0.16631663       0.77959255 </v>
    <v>       0.67533581       0.50000000       0.28093858 </v>
    <v>       0.67196770       0.50000000       0.77962080 </v>
    <v>       0.67325048       0.83300565       0.27939555 </v>
    <v>       0.67275415       0.83368337       0.77959255 </v>
    <v>       0.82962802       0.00000000       0.22010346 </v>
    <v>       0.82861922       0.00000000       0.72028551 </v>
    <v>       0.83152437       0.32992138       0.22095393 </v>
    <v>       0.82803429       0.33334957       0.71999309 </v>
    <v>       0.83152437       0.67007862       0.22095393 </v>
    <v>       0.82803429       0.66665043       0.71999309 </v>
    <v>       0.83211122       0.00000000       0.44538732 </v>
    <v>       0.83403887       0.00000000       0.94679981 </v>
    <v>       0.84122912       0.33034416       0.44403018 </v>
    <v>       0.83221284       0.33247009       0.94595954 </v>
    <v>       0.84122912       0.66965584       0.44403018 </v>
    <v>       0.83221284       0.66752991       0.94595954 </v>
    <v>       0.66837777       0.16668570       0.05372691 </v>
    <v>       0.67084797       0.16729554       0.55404490 </v>
    <v>       0.66864536       0.50000000       0.05439456 </v>
    <v>       0.67045064       0.50000000       0.55264334 </v>
    <v>       0.66837777       0.83331430       0.05372691 </v>
    <v>       0.67084797       0.83270446       0.55404490 </v>
    <v>       0.49594898       0.00000000       0.12732167 </v>
    <v>       0.49733575       0.00000000       0.62477815 </v>
    <v>       0.49581379       0.33246124       0.12778530 </v>
    <v>       0.49691830       0.33333039       0.62510121 </v>
    <v>       0.49581379       0.66753876       0.12778530 </v>
    <v>       0.49691830       0.66666961       0.62510121 </v>
    <v>       0.01722956       0.14140331       0.38008750 </v>
    <v>       0.00444463       0.16677599       0.87513563 </v>
    <v>       0.00706610       0.50000000       0.36986372 </v>
    <v>       0.00184452       0.50000000       0.87084106 </v>
    <v>       0.01722956       0.85859669       0.38008750 </v>
    <v>       0.00444463       0.83322401       0.87513563 </v>
    <v>       0.17063283       0.00000000       0.77426913 </v>
    <v>       0.17198423       0.33025158       0.27706742 </v>
    <v>       0.17269209       0.33413328       0.77796390 </v>
    <v>       0.17198423       0.66974842       0.27706742 </v>
    <v>       0.17269209       0.66586672       0.77796390 </v>
    <v>       0.32245770       0.15941753       0.21926304 </v>
    <v>       0.32487315       0.16418012       0.71550848 </v>
    <v>       0.32687002       0.50000000       0.21933415 </v>
    <v>       0.32694105       0.50000000       0.71765553 </v>
    <v>       0.32245770       0.84058247       0.21926304 </v>
    <v>       0.32487315       0.83581988       0.71550848 </v>
    <v>       0.33060436       0.16457551       0.44417518 </v>
    <v>       0.32953557       0.16555766       0.94380065 </v>
    <v>       0.32936928       0.50000000       0.44504986 </v>
    <v>       0.33272197       0.50000000       0.94433076 </v>
    <v>       0.33060436       0.83542449       0.44417518 </v>
    <v>       0.32953557       0.83444234       0.94380065 </v>
    <v>       0.16483712       0.00000000       0.05699993 </v>
    <v>       0.15408217       0.00000000       0.53973530 </v>
    <v>       0.17100137       0.33827889       0.04872146 </v>
    <v>       0.16678836       0.33140731       0.55182887 </v>
    <v>       0.17100137       0.66172111       0.04872146 </v>
    <v>       0.16678836       0.66859269       0.55182887 </v>
    <v>       0.10299654       0.00000000       0.39748272 </v>
   </varray>
  </structure>
  <varray name="primitive_index" >
   <v type="int" >        1 </v>
   <v type="int" >        2 </v>
   <v type="int" >        3 </v>
   <v type="int" >        4 </v>
   <v type="int" >        5 </v>
   <v type="int" >        6 </v>
   <v type="int" >        7 </v>
   <v type="int" >        8 </v>
   <v type="int" >        9 </v>
   <v type="int" >       10 </v>
   <v type="int" >       11 </v>
   <v type="int" >       12 </v>
   <v type="int" >       13 </v>
   <v type="int" >       14 </v>
   <v type="int" >       15 </v>
   <v type="int" >       16 </v>
   <v type="int" >       17 </v>
   <v type="int" >       18 </v>
   <v type="int" >       19 </v>
   <v type="int" >       20 </v>
   <v type="int" >       21 </v>
   <v type="int" >       22 </v>
   <v type="int" >       23 </v>
   <v type="int" >       24 </v>
   <v type="int" >       25 </v>
   <v type="int" >       26 </v>
   <v type="int" >       27 </v>
   <v type="int" >       28 </v>
   <v type="int" >       29 </v>
   <v type="int" >       30 </v>
   <v type="int" >       31 </v>
   <v type="int" >       32 </v>
   <v type="int" >       33 </v>
   <v type="int" >       34 </v>
   <v type="int" >       35 </v>
   <v type="int" >       36 </v>
   <v type="int" >       37 </v>
   <v type="int" >       38 </v>
   <v type="int" >       39 </v>
   <v type="int" >       40 </v>
   <v type="int" >       41 </v>
   <v type="int" >       42 </v>
   <v type="int" >       43 </v>
   <v type="int" >       44 </v>
   <v type="int" >       45 </v>
   <v type="int" >       46 </v>
   <v type="int" >       47 </v>
   <v type="int" >       48 </v>
   <v type="int" >       49 </v>
   <v type="int" >       50 </v>
   <v type="int" >       51 </v>
   <v type="int" >       52 </v>
   <v type="int" >       53 </v>
   <v type="int" >       54 </v>
   <v type="int" >       55 </v>
   <v type="int" >       56 </v>
   <v type="int" >       57 </v>
   <v type="int" >       58 </v>
   <v type="int" >       59 </v>
   <v type="int" >       60 </v>
   <v type="int" >       61 </v>
   <v type="int" >       62 </v>
   <v type="int" >       63 </v>
   <v type="int" >       64 </v>
   <v type="int" >       65 </v>
   <v type="int" >       66 </v>
   <v type="int" >       67 </v>
   <v type="int" >       68 </v>
   <v type="int" >       69 </v>
   <v type="int" >       70 </v>
   <v type="int" >       71 </v>
   <v type="int" >       72 </v>
   <v type="int" >       73 </v>
   <v type="int" >       74 </v>
   <v type="int" >       75 </v>
   <v type="int" >       76 </v>
   <v type="int" >       77 </v>
   <v type="int" >       78 </v>
   <v type="int" >       79 </v>
   <v type="int" >       80 </v>
   <v type="int" >       81 </v>
   <v type="int" >       82 </v>
   <v type="int" >       83 </v>
   <v type="int" >       84 </v>
   <v type="int" >       85 </v>
   <v type="int" >       86 </v>
   <v type="int" >       87 </v>
   <v type="int" >       88 </v>
   <v type="int" >       89 </v>
   <v type="int" >       90 </v>
   <v type="int" >       91 </v>
   <v type="int" >       92 </v>
   <v type="int" >       93 </v>
   <v type="int" >       94 </v>
   <v type="int" >       95 </v>
   <v type="int" >       96 </v>
   <v type="int" >       97 </v>
   <v type="int" >       98 </v>
   <v type="int" >       99 </v>
   <v type="int" >      100 </v>
   <v type="int" >      101 </v>
   <v type="int" >      102 </v>
   <v type="int" >      103 </v>
   <v type="int" >      104 </v>
   <v type="int" >      105 </v>
   <v type="int" >      106 </v>
   <v type="int" >      107 </v>
   <v type="int" >      108 </v>
   <v type="int" >      109 </v>
   <v type="int" >      110 </v>
   <v type="int" >      111 </v>
   <v type="int" >      112 </v>
   <v type="int" >      113 </v>
   <v type="int" >      114 </v>
   <v type="int" >      115 </v>
   <v type="int" >      116 </v>
   <v type="int" >      117 </v>
   <v type="int" >      118 </v>
   <v type="int" >      119 </v>
  </varray>
 </primitive_cell>
 <kpoints>
  <generation param="Gamma">
   <v type="int" name="divisions">       2        2        2 </v>
   <v name="usershift">      0.00000000       0.00000000       0.00000000 </v>
   <v name="genvec1">      0.50000000       0.00000000       0.00000000 </v>
   <v name="genvec2">      0.00000000       0.50000000       0.00000000 </v>
   <v name="genvec3">      0.00000000       0.00000000       0.50000000 </v>
   <v name="shift">      0.00000000       0.00000000       0.00000000 </v>
  </generation>
  <varray name="kpointlist" >
   <v>       0.00000000       0.00000000       0.00000000 </v>
   <v>       0.50000000       0.00000000       0.00000000 </v>
   <v>       0.00000000       0.50000000       0.00000000 </v>
   <v>       0.50000000       0.50000000       0.00000000 </v>
   <v>       0.00000000       0.00000000       0.50000000 </v>
   <v>       0.50000000       0.00000000       0.50000000 </v>
   <v>       0.00000000       0.50000000       0.50000000 </v>
   <v>       0.50000000       0.50000000       0.50000000 </v>
  </varray>
  <varray name="weights" >
   <v>       0.12500000 </v>
   <v>       0.12500000 </v>
   <v>       0.12500000 </v>
   <v>       0.12500000 </v>
   <v>       0.12500000 </v>
   <v>       0.12500000 </v>
   <v>       0.12500000 </v>
   <v>       0.12500000 </v>
  </varray>
 </kpoints>
 <parameters>
  <separator name="general" >
   <i type="string" name="SYSTEM">unknown system</i>
   <i type="logical" name="LCOMPAT"> F  </i>
  </separator>
  <separator name="electronic" >
   <i type="string" name="PREC">normal</i>
   <i name="ENMAX">    450.00000000</i>
   <i name="ENAUG">    605.39200000</i>
   <i name="EDIFF">      0.00001000</i>
   <i type="int" name="IALGO">    58</i>
   <i type="int" name="IWAVPR">    10</i>
   <i type="int" name="NBANDS">   625</i>
   <i type="int" name="NBANDSLOW">    -1</i>
   <i type="int" name="NBANDSHIGH">    -1</i>
   <i name="NELECT">   1042.00000000</i>
   <i type="int" name="TURBO">     0</i>
   <i type="int" name="IRESTART">     0</i>
   <i type="int" name="NREBOOT">     0</i>
   <i type="int" name="NMIN">     0</i>
   <i name="EREF">      0.00000000</i>
   <separator name="electronic smearing" >
    <i type="int" name="ISMEAR">     0</i>
    <i name="SIGMA">      0.05000000</i>
    <i name="KSPACING">      0.50000000</i>
    <i type="logical" name="KGAMMA"> T  </i>
    <i type="logical" name="KBLOWUP"> T  </i>
   </separator>
   <separator name="electronic projectors" >
    <i type="logical" name="LREAL"> T  </i>
    <v name="ROPT">     -0.00050000     -0.00050000     -0.00050000</v>
    <i type="int" name="LMAXPAW">  -100</i>
    <i type="int" name="LMAXMIX">     2</i>
    <i type="logical" name="NLSPLINE"> F  </i>
   </separator>
   <separator name="electronic startup" >
    <i type="int" name="ISTART">     0</i>
    <i type="int" name="ICHARG">     0</i>
    <i type="int" name="INIWAV">     1</i>
   </separator>
   <separator name="electronic spin" >
    <i type="int" name="ISPIN">     1</i>
    <i type="logical" name="LNONCOLLINEAR"> F  </i>
    <v name="MAGMOM">      1.00000000      1.00000000      1.00000000      1.00000000      1.00000000      1.00000000      1.00000000      1.00000000      1.00000000      1.00000000      1.00000000      1.00000000      1.00000000      1.00000000      1.00000000      1.00000000      1.00000000      1.00000000      1.00000000      1.00000000
      1.00000000      1.00000000      1.00000000      1.00000000      1.00000000      1.00000000      1.00000000      1.00000000      1.00000000      1.00000000      1.00000000      1.00000000      1.00000000      1.00000000      1.00000000      1.00000000      1.00000000      1.00000000      1.00000000      1.00000000
      1.00000000      1.00000000      1.00000000      1.00000000      1.00000000      1.00000000      1.00000000      1.00000000      1.00000000      1.00000000      1.00000000      1.00000000      1.00000000      1.00000000      1.00000000      1.00000000      1.00000000      1.00000000      1.00000000      1.00000000
      1.00000000      1.00000000      1.00000000      1.00000000      1.00000000      1.00000000      1.00000000      1.00000000      1.00000000      1.00000000      1.00000000      1.00000000      1.00000000      1.00000000      1.00000000      1.00000000      1.00000000      1.00000000      1.00000000      1.00000000
      1.00000000      1.00000000      1.00000000      1.00000000      1.00000000      1.00000000      1.00000000      1.00000000      1.00000000      1.00000000      1.00000000      1.00000000      1.00000000      1.00000000      1.00000000      1.00000000      1.00000000      1.00000000      1.00000000      1.00000000
      1.00000000      1.00000000      1.00000000      1.00000000      1.00000000      1.00000000      1.00000000      1.00000000      1.00000000      1.00000000      1.00000000      1.00000000      1.00000000      1.00000000      1.00000000      1.00000000      1.00000000      1.00000000      1.00000000</v>
    <i name="NUPDOWN">     -1.00000000</i>
    <i type="logical" name="LSORBIT"> F  </i>
    <v name="SAXIS">      0.00000000      0.00000000      1.00000000</v>
    <i type="logical" name="LSPIRAL"> F  </i>
    <v name="QSPIRAL">      0.00000000      0.00000000      0.00000000</v>
    <i type="logical" name="LZEROZ"> F  </i>
   </separator>
   <separator name="electronic exchange-correlation" >
    <i type="logical" name="LASPH"> F  </i>
    <i type="logical" name="LMETAGGA"> F  </i>
   </separator>
   <separator name="electronic convergence" >
    <i type="int" name="NELM">   500</i>
    <i type="int" name="NELMDL">    -5</i>
    <i type="int" name="NELMIN">     2</i>
    <i name="ENINI">    450.00000000</i>
    <separator name="electronic convergence detail" >
     <i type="logical" name="LDIAG"> T  </i>
     <i type="logical" name="LSUBROT"> F  </i>
     <i name="WEIMIN">      0.00000000</i>
     <i name="EBREAK">      0.00000000</i>
     <i name="DEPER">      0.30000000</i>
     <i type="int" name="NRMM">     4</i>
     <i name="TIME">      0.40000000</i>
    </separator>
   </separator>
   <separator name="electronic mixer" >
    <i name="AMIX">      0.40000000</i>
    <i name="BMIX">      1.00000000</i>
    <i name="AMIN">      0.10000000</i>
    <i name="AMIX_MAG">      1.60000000</i>
    <i name="BMIX_MAG">      1.00000000</i>
    <separator name="electronic mixer details" >
     <i type="int" name="IMIX">     4</i>
     <i type="logical" name="MIXFIRST"> F  </i>
     <i type="int" name="MAXMIX">   -45</i>
     <i name="WC">    100.00000000</i>
     <i type="int" name="INIMIX">     1</i>
     <i type="int" name="MIXPRE">     1</i>
     <i type="int" name="MREMOVE">     5</i>
    </separator>
   </separator>
   <separator name="electronic dipolcorrection" >
    <i type="logical" name="LDIPOL"> F  </i>
    <i type="logical" name="LMONO"> F  </i>
    <i type="int" name="IDIPOL">     0</i>
    <i name="EPSILON">      1.00000000</i>
    <v name="DIPOL">   -100.00000000   -100.00000000   -100.00000000</v>
    <i name="EFIELD">      0.00000000</i>
   </separator>
  </separator>
  <separator name="grids" >
   <i type="int" name="NGX">    64</i>
   <i type="int" name="NGY">    48</i>
   <i type="int" name="NGZ">    60</i>
   <i type="int" name="NGXF">   128</i>
   <i type="int" name="NGYF">    96</i>
   <i type="int" name="NGZF">   120</i>
   <i type="logical" name="ADDGRID"> F  </i>
  </separator>
  <separator name="ionic" >
   <i type="int" name="NSW">     0</i>
   <i type="int" name="IBRION">    -1</i>
   <i type="int" name="MDALGO">     0</i>
   <i type="int" name="ISIF">     2</i>
   <i name="PSTRESS">      0.00000000</i>
   <i name="EDIFFG">     -0.00500000</i>
   <i type="int" name="NFREE">     0</i>
   <i name="POTIM">      0.50000000</i>
   <i name="SMASS">     -3.00000000</i>
   <i name="SCALEE">      1.00000000</i>
  </separator>
  <separator name="ionic md" >
   <i name="TEBEG">      0.00010000</i>
   <i name="TEEND">      0.00010000</i>
   <i type="int" name="NBLOCK">     1</i>
   <i type="int" name="KBLOCK">     1</i>
   <i type="int" name="NPACO">   256</i>
   <i name="APACO">     10.00000000</i>
  </separator>
  <separator name="symmetry" >
   <i type="int" name="ISYM">     3</i>
   <i name="SYMPREC">      0.00001000</i>
  </separator>
  <separator name="dos" >
   <i type="int" name="LORBIT">     0</i>
   <v name="RWIGS">     -1.00000000     -1.00000000     -1.00000000</v>
   <i type="int" name="NEDOS">   301</i>
   <i name="EMIN">     10.00000000</i>
   <i name="EMAX">    -10.00000000</i>
   <i name="EFERMI">      0.00000000</i>
  </separator>
  <separator name="writing" >
   <i type="int" name="NWRITE">     2</i>
   <i type="logical" name="LWAVE"> T  </i>
   <i type="logical" name="LDOWNSAMPLE"> F  </i>
   <i type="logical" name="LCHARG"> T  </i>
   <i type="logical" name="LPARD"> F  </i>
   <i type="logical" name="LVTOT"> F  </i>
   <i type="logical" name="LVHAR"> F  </i>
   <i type="logical" name="LELF"> F  </i>
   <i type="logical" name="LOPTICS"> F  </i>
   <v name="STM">      0.00000000      0.00000000      0.00000000      0.00000000      0.00000000      0.00000000      0.00000000</v>
  </separator>
  <separator name="performance" >
   <i type="int" name="NPAR">     1</i>
   <i type="int" name="NSIM">     4</i>
   <i type="int" name="NBLK">    -1</i>
   <i type="logical" name="LPLANE"> T  </i>
   <i type="logical" name="LSCALAPACK"> T  </i>
   <i type="logical" name="LSCAAWARE"> F  </i>
   <i type="logical" name="LSCALU"> F  </i>
   <i type="logical" name="LASYNC"> F  </i>
   <i type="logical" name="LORBITALREAL"> F  </i>
  </separator>
  <separator name="miscellaneous" >
   <i type="int" name="IDIOT">     3</i>
   <i type="int" name="PHON_NSTRUCT">    -1</i>
   <i type="logical" name="LMUSIC"> F  </i>
   <v name="POMASS">     69.72300000     16.00000000     30.97400000</v>
   <v name="DARWINR">      0.00000000      0.00000000      0.00000000</v>
   <v name="DARWINV">      1.00000000      1.00000000      1.00000000</v>
   <i type="logical" name="LCORR"> T  </i>
  </separator>
  <i type="logical" name="GGA_COMPAT"> T  </i>
  <i type="logical" name="LBERRY"> F  </i>
  <i type="int" name="ICORELEVEL">     0</i>
  <i type="logical" name="LDAU"> F  </i>
  <i type="int" name="I_CONSTRAINED_M">     0</i>
  <separator name="electronic exchange-correlation" >
   <i type="string" name="GGA">--</i>
   <i type="int" name="VOSKOWN">     0</i>
   <i type="logical" name="LHFCALC"> T  </i>
   <i type="string" name="PRECFOCK">fast</i>
   <i type="logical" name="LSYMGRAD"> F  </i>
   <i type="logical" name="LHFONE"> F  </i>
   <i type="logical" name="LRHFCALC"> F  </i>
   <i type="logical" name="LTHOMAS"> F  </i>
   <i type="logical" name="LMODELHF"> F  </i>
   <i type="logical" name="LFOCKACE"> T  </i>
   <i name="ENCUT4O">     -1.00000000</i>
   <i type="int" name="EXXOEP">     0</i>
   <i type="int" name="FOURORBIT">     0</i>
   <i name="AEXX">      0.32000000</i>
   <i name="HFALPHA">     -1.00000000</i>
   <i name="MCALPHA">      0.00000000</i>
   <i name="ALDAX">      0.68000000</i>
   <i name="AGGAX">      0.68000000</i>
   <i name="ALDAC">      1.00000000</i>
   <i name="AGGAC">      1.00000000</i>
   <i type="int" name="NKREDX">     1</i>
   <i type="int" name="NKREDY">     1</i>
   <i type="int" name="NKREDZ">     1</i>
   <i type="logical" name="SHIFTRED"> F  </i>
   <i type="logical" name="ODDONLY"> F  </i>
   <i type="logical" name="EVENONLY"> F  </i>
   <i type="int" name="LMAXFOCK">     4</i>
   <i type="int" name="NMAXFOCKAE">     1</i>
   <i type="logical" name="LFOCKAEDFT"> F  </i>
   <i name="HFSCREEN">      0.20000000</i>
   <i name="HFSCREENC">      0.20000000</i>
   <i type="int" name="NBANDSGWLOW">     1</i>
  </separator>
  <separator name="vdW DFT" >
   <i type="logical" name="LUSE_VDW"> F  </i>
   <i type="int" name="IVDW_NL">     1</i>
   <i type="logical" name="LSPIN_VDW"> F  </i>
   <i name="Zab_VDW">     -0.84910000</i>
   <i name="PARAM1">      0.12340000</i>
   <i name="PARAM2">      1.00000000</i>
   <i name="PARAM3">      0.00000000</i>
  </separator>
  <separator name="model GW" >
   <i type="int" name="MODEL_GW">     0</i>
   <i name="MODEL_EPS0">      6.39733692</i>
   <i name="MODEL_ALPHA">      1.00000000</i>
  </separator>
  <separator name="linear response parameters" >
   <i type="logical" name="LEPSILON"> F  </i>
   <i type="logical" name="LRPA"> F  </i>
   <i type="logical" name="LNABLA"> F  </i>
   <i type="logical" name="LVEL"> F  </i>
   <i name="CSHIFT">      0.10000000</i>
   <i name="OMEGAMAX">     -1.00000000</i>
   <i name="DEG_THRESHOLD">      0.00200000</i>
   <i name="RTIME">     -0.10000000</i>
   <i name="WPLASMAI">      0.00000000</i>
   <v name="DFIELD">      0.00000000      0.00000000      0.00000000</v>
   <v name="WPLASMA">      0.00000000      0.00000000      0.00000000      0.00000000      0.00000000      0.00000000      0.00000000      0.00000000      0.00000000</v>
  </separator>
  <separator name="orbital magnetization" >
   <i type="logical" name="NUCIND"> F  </i>
   <v name="MAGPOS">      0.00000000      0.00000000      0.00000000</v>
   <i type="logical" name="LNICSALL"> T  </i>
   <i type="logical" name="ORBITALMAG"> F  </i>
   <i type="logical" name="LMAGBLOCH"> F  </i>
   <i type="logical" name="LCHIMAG"> F  </i>
   <i type="logical" name="LGAUGE"> T  </i>
   <i type="int" name="MAGATOM">     0</i>
   <v name="MAGDIPOL">      0.00000000      0.00000000      0.00000000</v>
   <v name="AVECCONST">      0.00000000      0.00000000      0.00000000</v>
  </separator>
  <separator name="response functions" >
   <i type="logical" name="LALL_IN_ONE"> F  </i>
   <i type="int" name="IALL_IN_ONE">    -1</i>
   <i type="int" name="NBANDS_WAVE">    -1</i>
   <i type="logical" name="LFINITE_TEMPERATURE"> F  </i>
   <i type="logical" name="LADDER"> F  </i>
   <i type="logical" name="LRPAFORCE"> F  </i>
   <i type="logical" name="LFXC"> F  </i>
   <i type="logical" name="LHARTREE"> T  </i>
   <i type="int" name="IBSE">     0</i>
   <v type="int" name="KPOINT">    -1     0     0     0</v>
   <i type="logical" name="LTCTC"> F  </i>
   <i type="logical" name="LTCTE"> F  </i>
   <i type="logical" name="LTETE"> F  </i>
   <i type="logical" name="LTRIPLET"> F  </i>
   <i type="logical" name="LFXCEPS"> F  </i>
   <i type="logical" name="LFXHEG"> F  </i>
   <i type="int" name="NATURALO">     2</i>
   <i type="logical" name="LHOLEGF"> F  </i>
   <i type="logical" name="L2ORDER"> F  </i>
   <i type="logical" name="LDMP1"> F  </i>
   <i type="logical" name="LMP2LT"> F  </i>
   <i type="logical" name="LSMP2LT"> F  </i>
   <i type="logical" name="LGWLF"> F  </i>
   <i name="ENCUTGW">     -1.60000002</i>
   <i name="ENCUTGWSOFT">     -1.60000002</i>
   <i name="ENCUTLF">     -1.00000000</i>
   <i type="logical" name="LESF_SPLINES"> F  </i>
   <i type="int" name="LMAXMP2">    -1</i>
   <i name="SCISSOR">      0.00000000</i>
   <i type="int" name="NOMEGA">     0</i>
   <i type="int" name="NOMEGAR">     0</i>
   <i type="int" name="NBANDSGW">    -1</i>
   <i type="int" name="NBANDSO">    -1</i>
   <i type="int" name="NBANDSV">    -1</i>
   <i type="int" name="NELMGW">     1</i>
   <i type="int" name="NELMHF">     1</i>
   <i type="int" name="DIM">     3</i>
   <i type="int" name="IESPILON">     4</i>
   <i type="int" name="ANTIRES">     0</i>
   <i name="OMEGAMAX">    -30.00000000</i>
   <i name="OMEGAMIN">    -30.00000000</i>
   <i name="OMEGATL">   -200.00000000</i>
   <i type="int" name="OMEGAGRID">     0</i>
   <i name="CSHIFT">     -0.10000000</i>
   <i type="logical" name="LSELFENERGY"> F  </i>
   <i type="logical" name="LSPECTRAL"> F  </i>
   <i type="logical" name="LSPECTRALGW"> F  </i>
   <i type="logical" name="LSINGLES"> F  </i>
   <i type="logical" name="LFERMIGW"> F  </i>
   <i type="logical" name="ODDONLYGW"> F  </i>
   <i type="logical" name="EVENONLYGW"> F  </i>
   <i type="int" name="NKREDLFX">     1</i>
   <i type="int" name="NKREDLFY">     1</i>
   <i type="int" name="NKREDLFZ">     1</i>
   <i type="int" name="MAXMEM">  2800</i>
   <i type="int" name="TELESCOPE">     0</i>
   <i type="int" name="NTAUPAR">    -1</i>
   <i type="int" name="NOMEGAPAR">    -1</i>
   <i name="DAMP_NEWTON">      0.80000001</i>
   <i name="LAMBDA">      1.00000000</i>
  </separator>
  <separator name="External order field" >
   <i name="OFIELD_KAPPA">      0.00000000</i>
   <v name="OFIELD_K">      0.00000000      0.00000000      0.00000000</v>
   <i name="OFIELD_Q6_NEAR">      0.00000000</i>
   <i name="OFIELD_Q6_FAR">      0.00000000</i>
   <i name="OFIELD_A">      0.00000000</i>
  </separator>
  <separator name="optional k-points parameters" >
   <i type="int" name="KPOINTS_OPT_MODE">     1</i>
   <i type="logical" name="LKPOINTS_OPT"> F  </i>
  </separator>
 </parameters>
 <atominfo>
  <atoms>     119 </atoms>
  <types>       3 </types>
  <array name="atoms" >
   <dimension dim="1">ion</dimension>
   <field type="string">element</field>
   <field type="int">atomtype</field>
   <set>
    <rc><c>Ga</c><c>   1</c></rc>
    <rc><c>Ga</c><c>   1</c></rc>
    <rc><c>Ga</c><c>   1</c></rc>
    <rc><c>Ga</c><c>   1</c></rc>
    <rc><c>Ga</c><c>   1</c></rc>
    <rc><c>Ga</c><c>   1</c></rc>
    <rc><c>Ga</c><c>   1</c></rc>
    <rc><c>Ga</c><c>   1</c></rc>
    <rc><c>Ga</c><c>   1</c></rc>
    <rc><c>Ga</c><c>   1</c></rc>
    <rc><c>Ga</c><c>   1</c></rc>
    <rc><c>Ga</c><c>   1</c></rc>
    <rc><c>Ga</c><c>   1</c></rc>
    <rc><c>Ga</c><c>   1</c></rc>
    <rc><c>Ga</c><c>   1</c></rc>
    <rc><c>Ga</c><c>   1</c></rc>
    <rc><c>Ga</c><c>   1</c></rc>
    <rc><c>Ga</c><c>   1</c></rc>
    <rc><c>Ga</c><c>   1</c></rc>
    <rc><c>Ga</c><c>   1</c></rc>
    <rc><c>Ga</c><c>   1</c></rc>
    <rc><c>Ga</c><c>   1</c></rc>
    <rc><c>Ga</c><c>   1</c></rc>
    <rc><c>Ga</c><c>   1</c></rc>
    <rc><c>Ga</c><c>   1</c></rc>
    <rc><c>Ga</c><c>   1</c></rc>
    <rc><c>Ga</c><c>   1</c></rc>
    <rc><c>Ga</c><c>   1</c></rc>
    <rc><c>Ga</c><c>   1</c></rc>
    <rc><c>Ga</c><c>   1</c></rc>
    <rc><c>Ga</c><c>   1</c></rc>
    <rc><c>Ga</c><c>   1</c></rc>
    <rc><c>Ga</c><c>   1</c></rc>
    <rc><c>Ga</c><c>   1</c></rc>
    <rc><c>Ga</c><c>   1</c></rc>
    <rc><c>Ga</c><c>   1</c></rc>
    <rc><c>Ga</c><c>   1</c></rc>
    <rc><c>Ga</c><c>   1</c></rc>
    <rc><c>Ga</c><c>   1</c></rc>
    <rc><c>Ga</c><c>   1</c></rc>
    <rc><c>Ga</c><c>   1</c></rc>
    <rc><c>Ga</c><c>   1</c></rc>
    <rc><c>Ga</c><c>   1</c></rc>
    <rc><c>Ga</c><c>   1</c></rc>
    <rc><c>Ga</c><c>   1</c></rc>
    <rc><c>Ga</c><c>   1</c></rc>
    <rc><c>Ga</c><c>   1</c></rc>
    <rc><c>O </c><c>   2</c></rc>
    <rc><c>O </c><c>   2</c></rc>
    <rc><c>O </c><c>   2</c></rc>
    <rc><c>O </c><c>   2</c></rc>
    <rc><c>O </c><c>   2</c></rc>
    <rc><c>O </c><c>   2</c></rc>
    <rc><c>O </c><c>   2</c></rc>
    <rc><c>O </c><c>   2</c></rc>
    <rc><c>O </c><c>   2</c></rc>
    <rc><c>O </c><c>   2</c></rc>
    <rc><c>O </c><c>   2</c></rc>
    <rc><c>O </c><c>   2</c></rc>
    <rc><c>O </c><c>   2</c></rc>
    <rc><c>O </c><c>   2</c></rc>
    <rc><c>O </c><c>   2</c></rc>
    <rc><c>O </c><c>   2</c></rc>
    <rc><c>O </c><c>   2</c></rc>
    <rc><c>O </c><c>   2</c></rc>
    <rc><c>O </c><c>   2</c></rc>
    <rc><c>O </c><c>   2</c></rc>
    <rc><c>O </c><c>   2</c></rc>
    <rc><c>O </c><c>   2</c></rc>
    <rc><c>O </c><c>   2</c></rc>
    <rc><c>O </c><c>   2</c></rc>
    <rc><c>O </c><c>   2</c></rc>
    <rc><c>O </c><c>   2</c></rc>
    <rc><c>O </c><c>   2</c></rc>
    <rc><c>O </c><c>   2</c></rc>
    <rc><c>O </c><c>   2</c></rc>
    <rc><c>O </c><c>   2</c></rc>
    <rc><c>O </c><c>   2</c></rc>
    <rc><c>O </c><c>   2</c></rc>
    <rc><c>O </c><c>   2</c></rc>
    <rc><c>O </c><c>   2</c></rc>
    <rc><c>O </c><c>   2</c></rc>
    <rc><c>O </c><c>   2</c></rc>
    <rc><c>O </c><c>   2</c></rc>
    <rc><c>O </c><c>   2</c></rc>
    <rc><c>O </c><c>   2</c></rc>
    <rc><c>O </c><c>   2</c></rc>
    <rc><c>O </c><c>   2</c></rc>
    <rc><c>O </c><c>   2</c></rc>
    <rc><c>O </c><c>   2</c></rc>
    <rc><c>O </c><c>   2</c></rc>
    <rc><c>O </c><c>   2</c></rc>
    <rc><c>O </c><c>   2</c></rc>
    <rc><c>O </c><c>   2</c></rc>
    <rc><c>O </c><c>   2</c></rc>
    <rc><c>O </c><c>   2</c></rc>
    <rc><c>O </c><c>   2</c></rc>
    <rc><c>O </c><c>   2</c></rc>
    <rc><c>O </c><c>   2</c></rc>
    <rc><c>O </c><c>   2</c></rc>
    <rc><c>O </c><c>   2</c></rc>
    <rc><c>O </c><c>   2</c></rc>
    <rc><c>O </c><c>   2</c></rc>
    <rc><c>O </c><c>   2</c></rc>
    <rc><c>O </c><c>   2</c></rc>
    <rc><c>O </c><c>   2</c></rc>
    <rc><c>O </c><c>   2</c></rc>
    <rc><c>O </c><c>   2</c></rc>
    <rc><c>O </c><c>   2</c></rc>
    <rc><c>O </c><c>   2</c></rc>
    <rc><c>O </c><c>   2</c></rc>
    <rc><c>O </c><c>   2</c></rc>
    <rc><c>O </c><c>   2</c></rc>
    <rc><c>O </c><c>   2</c></rc>
    <rc><c>O </c><c>   2</c></rc>
    <rc><c>O </c><c>   2</c></rc>
    <rc><c>O </c><c>   2</c></rc>
    <rc><c>O </c><c>   2</c></rc>
    <rc><c>P </c><c>   3</c></rc>
   </set>
  </array>
  <array name="atomtypes" >
   <dimension dim="1">type</dimension>
   <field type="int">atomspertype</field>
   <field type="string">element</field>
   <field>mass</field>
   <field>valence</field>
   <field type="string">pseudopotential</field>
   <set>
    <rc><c>  47</c><c>Ga</c><c>     69.72300000</c><c>     13.00000000</c><c>  PAW_PBE Ga_d 06Jul2010                </c></rc>
    <rc><c>  71</c><c>O </c><c>     16.00000000</c><c>      6.00000000</c><c>   PAW_PBE O 08Apr2002                  </c></rc>
    <rc><c>   1</c><c>P </c><c>     30.97400000</c><c>      5.00000000</c><c>  PAW_PBE P 06Sep2000                   </c></rc>
   </set>
  </array>
 </atominfo>
 <structure name="initialpos" >
  <crystal>
   <varray name="basis" >
    <v>       0.00000000      12.28047342       0.00000000 </v>
    <v>       9.14270205       0.00000000       0.00000000 </v>
    <v>       0.00000000      -2.76826177     -11.30069772 </v>
   </varray>
   <i name="volume">   1268.80515525 </i>
   <varray name="rec_basis" >
    <v>       0.00000000       0.08143009      -0.01994742 </v>
    <v>       0.10937686      -0.00000000       0.00000000 </v>
    <v>       0.00000000       0.00000000      -0.08849011 </v>
   </varray>
  </crystal>
  <varray name="positions" >
   <v>       0.65846082       0.00000000       0.15461602 </v>
   <v>       0.66029752       0.00000000       0.65615530 </v>
   <v>       0.65946433       0.33307416       0.15616046 </v>
   <v>       0.65993398       0.33363955       0.65606495 </v>
   <v>       0.65946433       0.66692584       0.15616046 </v>
   <v>       0.65993398       0.66636045       0.65606495 </v>
   <v>       0.83964929       0.16362000       0.34181416 </v>
   <v>       0.84075032       0.16642003       0.84305674 </v>
   <v>       0.84379971       0.50000000       0.34236011 </v>
   <v>       0.83959675       0.50000000       0.84349243 </v>
   <v>       0.83964929       0.83638000       0.34181416 </v>
   <v>       0.84075032       0.83357997       0.84305674 </v>
   <v>       0.59362761       0.16837644       0.39798480 </v>
   <v>       0.59153490       0.16657127       0.89682040 </v>
   <v>       0.59078217       0.50000000       0.39645497 </v>
   <v>       0.59050786       0.50000000       0.89727897 </v>
   <v>       0.59362761       0.83162356       0.39798480 </v>
   <v>       0.59153490       0.83342873       0.89682040 </v>
   <v>       0.91166752       0.00000000       0.10247680 </v>
   <v>       0.90882370       0.00000000       0.60234650 </v>
   <v>       0.91016685       0.33293943       0.10148241 </v>
   <v>       0.90941684       0.33371782       0.60337918 </v>
   <v>       0.91016685       0.66706057       0.10148241 </v>
   <v>       0.90941684       0.66628218       0.60337918 </v>
   <v>       0.15931511       0.17656684       0.14541745 </v>
   <v>       0.15753832       0.16982711       0.65710531 </v>
   <v>       0.15965724       0.50000000       0.15492154 </v>
   <v>       0.15958582       0.50000000       0.65351632 </v>
   <v>       0.15931511       0.82343316       0.14541745 </v>
   <v>       0.15753832       0.83017289       0.65710531 </v>
   <v>       0.34970257       0.00000000       0.34609192 </v>
   <v>       0.34120577       0.00000000       0.84094744 </v>
   <v>       0.34068425       0.33353393       0.34344969 </v>
   <v>       0.34091788       0.33354588       0.84264248 </v>
   <v>       0.34068425       0.66646607       0.34344969 </v>
   <v>       0.34091788       0.66645412       0.84264248 </v>
   <v>       0.09161048       0.00000000       0.89513491 </v>
   <v>       0.09276228       0.32961358       0.39544225 </v>
   <v>       0.08975053       0.33484747       0.89291848 </v>
   <v>       0.09276228       0.67038642       0.39544225 </v>
   <v>       0.08975053       0.66515253       0.89291848 </v>
   <v>       0.40787333       0.16601613       0.10082219 </v>
   <v>       0.40994695       0.16673432       0.60155894 </v>
   <v>       0.40871397       0.50000000       0.10134661 </v>
   <v>       0.40928443       0.50000000       0.60141555 </v>
   <v>       0.40787333       0.83398387       0.10082219 </v>
   <v>       0.40994695       0.83326568       0.60155894 </v>
   <v>       0.00058723       0.16634898       0.13379604 </v>
   <v>       0.99663990       0.16643614       0.62776579 </v>
   <v>       0.99793186       0.50000000       0.12511680 </v>
   <v>       0.99753395       0.50000000       0.62654833 </v>
   <v>       0.00058723       0.83365102       0.13379604 </v>
   <v>       0.99663990       0.83356386       0.62776579 </v>
   <v>       0.50779392       0.00000000       0.37281522 </v>
   <v>       0.50331181       0.00000000       0.87160299 </v>
   <v>       0.50278581       0.33267334       0.37168419 </v>
   <v>       0.50298746       0.33266757       0.87156524 </v>
   <v>       0.50278581       0.66732666       0.37168419 </v>
   <v>       0.50298746       0.66733243       0.87156524 </v>
   <v>       0.67325048       0.16699435       0.27939555 </v>
   <v>       0.67275415       0.16631663       0.77959255 </v>
   <v>       0.67533581       0.50000000       0.28093858 </v>
   <v>       0.67196770       0.50000000       0.77962080 </v>
   <v>       0.67325048       0.83300565       0.27939555 </v>
   <v>       0.67275415       0.83368337       0.77959255 </v>
   <v>       0.82962802       0.00000000       0.22010346 </v>
   <v>       0.82861922       0.00000000       0.72028551 </v>
   <v>       0.83152437       0.32992138       0.22095393 </v>
   <v>       0.82803429       0.33334957       0.71999309 </v>
   <v>       0.83152437       0.67007862       0.22095393 </v>
   <v>       0.82803429       0.66665043       0.71999309 </v>
   <v>       0.83211122       0.00000000       0.44538732 </v>
   <v>       0.83403887       0.00000000       0.94679981 </v>
   <v>       0.84122912       0.33034416       0.44403018 </v>
   <v>       0.83221284       0.33247009       0.94595954 </v>
   <v>       0.84122912       0.66965584       0.44403018 </v>
   <v>       0.83221284       0.66752991       0.94595954 </v>
   <v>       0.66837777       0.16668570       0.05372691 </v>
   <v>       0.67084797       0.16729554       0.55404490 </v>
   <v>       0.66864536       0.50000000       0.05439456 </v>
   <v>       0.67045064       0.50000000       0.55264334 </v>
   <v>       0.66837777       0.83331430       0.05372691 </v>
   <v>       0.67084797       0.83270446       0.55404490 </v>
   <v>       0.49594898       0.00000000       0.12732167 </v>
   <v>       0.49733575       0.00000000       0.62477815 </v>
   <v>       0.49581379       0.33246124       0.12778530 </v>
   <v>       0.49691830       0.33333039       0.62510121 </v>
   <v>       0.49581379       0.66753876       0.12778530 </v>
   <v>       0.49691830       0.66666961       0.62510121 </v>
   <v>       0.01722956       0.14140331       0.38008750 </v>
   <v>       0.00444463       0.16677599       0.87513563 </v>
   <v>       0.00706610       0.50000000       0.36986372 </v>
   <v>       0.00184452       0.50000000       0.87084106 </v>
   <v>       0.01722956       0.85859669       0.38008750 </v>
   <v>       0.00444463       0.83322401       0.87513563 </v>
   <v>       0.17063283       0.00000000       0.77426913 </v>
   <v>       0.17198423       0.33025158       0.27706742 </v>
   <v>       0.17269209       0.33413328       0.77796390 </v>
   <v>       0.17198423       0.66974842       0.27706742 </v>
   <v>       0.17269209       0.66586672       0.77796390 </v>
   <v>       0.32245770       0.15941753       0.21926304 </v>
   <v>       0.32487315       0.16418012       0.71550848 </v>
   <v>       0.32687002       0.50000000       0.21933415 </v>
   <v>       0.32694105       0.50000000       0.71765553 </v>
   <v>       0.32245770       0.84058247       0.21926304 </v>
   <v>       0.32487315       0.83581988       0.71550848 </v>
   <v>       0.33060436       0.16457551       0.44417518 </v>
   <v>       0.32953557       0.16555766       0.94380065 </v>
   <v>       0.32936928       0.50000000       0.44504986 </v>
   <v>       0.33272197       0.50000000       0.94433076 </v>
   <v>       0.33060436       0.83542449       0.44417518 </v>
   <v>       0.32953557       0.83444234       0.94380065 </v>
   <v>       0.16483712       0.00000000       0.05699993 </v>
   <v>       0.15408217       0.00000000       0.53973530 </v>
   <v>       0.17100137       0.33827889       0.04872146 </v>
   <v>       0.16678836       0.33140731       0.55182887 </v>
   <v>       0.17100137       0.66172111       0.04872146 </v>
   <v>       0.16678836       0.66859269       0.55182887 </v>
   <v>       0.10299654       0.00000000       0.39748272 </v>
  </varray>
 </structure>
 <calculation>
  <scstep>
   <time name="total">    3.86    3.87</time>
   <energy>
    <i name="alphaZ">   5376.25786726 </i>
    <i name="ewald"> -86630.39988638 </i>
    <i name="hartreedc">  -2080.38015315 </i>
    <i name="XCdc">   2751.56796214 </i>
    <i name="pawpsdc"> 332312.58831620 </i>
    <i name="pawaedc">-361061.02021695 </i>
    <i name="eentropy">     -0.01738454 </i>
    <i name="bandstr"> -40651.94316482 </i>
    <i name="atom"> 131500.23896116 </i>
    <i name="e_fr_energy"> -18483.10769908 </i>
    <i name="e_wo_entrp"> -18483.09031455 </i>
    <i name="e_0_energy"> -18483.09900681 </i>
   </energy>
  </scstep>
  <scstep>
   <time name="total">    3.12    3.12</time>
   <energy>
    <i name="e_fr_energy"> -62826.90346382 </i>
    <i name="e_wo_entrp"> -62826.88885886 </i>
    <i name="e_0_energy"> -62826.89616134 </i>
   </energy>
  </scstep>
  <scstep>
   <time name="total">    3.28    3.28</time>
   <energy>
    <i name="e_fr_energy"> -67779.88955352 </i>
    <i name="e_wo_entrp"> -67779.84569160 </i>
    <i name="e_0_energy"> -67779.86762256 </i>
   </energy>
  </scstep>
  <scstep>
   <time name="total">    3.96    3.96</time>
   <energy>
    <i name="e_fr_energy"> -68495.82423914 </i>
    <i name="e_wo_entrp"> -68495.76539196 </i>
    <i name="e_0_energy"> -68495.79481555 </i>
   </energy>
  </scstep>
  <scstep>
   <time name="total">  231.64  231.75</time>
   <energy>
    <i name="e_fr_energy"> -38924.81252335 </i>
    <i name="e_wo_entrp"> -38924.81252335 </i>
    <i name="e_0_energy"> -38924.81252335 </i>
   </energy>
  </scstep>
  <scstep>
   <time name="total">  459.60  459.63</time>
   <energy>
    <i name="e_fr_energy">  32172.63387289 </i>
    <i name="e_wo_entrp">  32172.66938573 </i>
    <i name="e_0_energy">  32172.65162931 </i>
   </energy>
  </scstep>
  <scstep>
   <time name="total">  459.84  459.77</time>
   <energy>
    <i name="e_fr_energy">  13300.72017474 </i>
    <i name="e_wo_entrp">  13300.74972433 </i>
    <i name="e_0_energy">  13300.73494954 </i>
   </energy>
  </scstep>
  <scstep>
   <time name="total">  459.81  459.74</time>
   <energy>
    <i name="e_fr_energy">  10573.19709682 </i>
    <i name="e_wo_entrp">  10573.22493262 </i>
    <i name="e_0_energy">  10573.21101472 </i>
   </energy>
  </scstep>
  <scstep>
   <time name="total">  459.46  459.40</time>
   <energy>
    <i name="e_fr_energy">   7372.89027439 </i>
    <i name="e_wo_entrp">   7372.90641085 </i>
    <i name="e_0_energy">   7372.89834262 </i>
   </energy>
  </scstep>
  <scstep>
   <time name="total">  459.53  459.51</time>
   <energy>
    <i name="e_fr_energy">   5240.32625912 </i>
    <i name="e_wo_entrp">   5240.33739665 </i>
    <i name="e_0_energy">   5240.33182788 </i>
   </energy>
  </scstep>
  <scstep>
   <time name="total">  458.72  458.66</time>
   <energy>
    <i name="e_fr_energy">   2927.10565158 </i>
    <i name="e_wo_entrp">   2927.11684238 </i>
    <i name="e_0_energy">   2927.11124698 </i>
   </energy>
  </scstep>
  <scstep>
   <time name="total">  458.69  458.62</time>
   <energy>
    <i name="e_fr_energy">   1202.02537115 </i>
    <i name="e_wo_entrp">   1202.04030352 </i>
    <i name="e_0_energy">   1202.03283734 </i>
   </energy>
  </scstep>
  <scstep>
   <time name="total">  458.97  458.91</time>
   <energy>
    <i name="e_fr_energy">    184.74323401 </i>
    <i name="e_wo_entrp">    184.75336799 </i>
    <i name="e_0_energy">    184.74830100 </i>
   </energy>
  </scstep>
  <scstep>
   <time name="total">  458.97  458.91</time>
   <energy>
    <i name="e_fr_energy">   -415.99357787 </i>
    <i name="e_wo_entrp">   -415.98544489 </i>
    <i name="e_0_energy">   -415.98951138 </i>
   </energy>
  </scstep>
  <scstep>
   <time name="total">  458.43  458.36</time>
   <energy>
    <i name="e_fr_energy">   -702.91154651 </i>
    <i name="e_wo_entrp">   -702.90243104 </i>
    <i name="e_0_energy">   -702.90698877 </i>
   </energy>
  </scstep>
  <scstep>
   <time name="total">  458.50  458.44</time>
   <energy>
    <i name="e_fr_energy">   -800.03253166 </i>
    <i name="e_wo_entrp">   -800.02516117 </i>
    <i name="e_0_energy">   -800.02884641 </i>
   </energy>
  </scstep>
  <scstep>
   <time name="total">  458.89  458.83</time>
   <energy>
    <i name="e_fr_energy">   -854.30131071 </i>
    <i name="e_wo_entrp">   -854.29662090 </i>
    <i name="e_0_energy">   -854.29896581 </i>
   </energy>
  </scstep>
  <scstep>
   <time name="total">  458.59  458.52</time>
   <energy>
    <i name="e_fr_energy">   -887.40175436 </i>
    <i name="e_wo_entrp">   -887.39772786 </i>
    <i name="e_0_energy">   -887.39974111 </i>
   </energy>
  </scstep>
  <scstep>
   <time name="total">  458.25  458.18</time>
   <energy>
    <i name="e_fr_energy">   -909.23314089 </i>
    <i name="e_wo_entrp">   -909.22727854 </i>
    <i name="e_0_energy">   -909.23020971 </i>
   </energy>
  </scstep>
  <scstep>
   <time name="total">  458.46  458.39</time>
   <energy>
    <i name="e_fr_energy">   -924.85764930 </i>
    <i name="e_wo_entrp">   -924.85565678 </i>
    <i name="e_0_energy">   -924.85665304 </i>
   </energy>
  </scstep>
  <scstep>
   <time name="total">  458.42  458.35</time>
   <energy>
    <i name="e_fr_energy">   -933.35435768 </i>
    <i name="e_wo_entrp">   -933.34982741 </i>
    <i name="e_0_energy">   -933.35209254 </i>
   </energy>
  </scstep>
  <scstep>
   <time name="total">  458.58  458.51</time>
   <energy>
    <i name="e_fr_energy">   -938.48350411 </i>
    <i name="e_wo_entrp">   -938.47316682 </i>
    <i name="e_0_energy">   -938.47833547 </i>
   </energy>
  </scstep>
  <scstep>
   <time name="total">  458.65  458.59</time>
   <energy>
    <i name="e_fr_energy">   -941.38904023 </i>
    <i name="e_wo_entrp">   -941.37727961 </i>
    <i name="e_0_energy">   -941.38315992 </i>
   </energy>
  </scstep>
  <scstep>
   <time name="total">  458.82  458.75</time>
   <energy>
    <i name="e_fr_energy">   -943.01861437 </i>
    <i name="e_wo_entrp">   -943.00929493 </i>
    <i name="e_0_energy">   -943.01395465 </i>
   </energy>
  </scstep>
  <scstep>
   <time name="total">  458.75  458.68</time>
   <energy>
    <i name="e_fr_energy">   -944.11174901 </i>
    <i name="e_wo_entrp">   -944.10401512 </i>
    <i name="e_0_energy">   -944.10788206 </i>
   </energy>
  </scstep>
  <scstep>
   <time name="total">  458.57  458.51</time>
   <energy>
    <i name="e_fr_energy">   -944.79984985 </i>
    <i name="e_wo_entrp">   -944.79337908 </i>
    <i name="e_0_energy">   -944.79661447 </i>
   </energy>
  </scstep>
  <scstep>
   <time name="total">  458.72  458.68</time>
   <energy>
    <i name="e_fr_energy">   -945.21343399 </i>
    <i name="e_wo_entrp">   -945.20720099 </i>
    <i name="e_0_energy">   -945.21031749 </i>
   </energy>
  </scstep>
  <scstep>
   <time name="total">  458.73  458.68</time>
   <energy>
    <i name="e_fr_energy">   -945.48519693 </i>
    <i name="e_wo_entrp">   -945.48027031 </i>
    <i name="e_0_energy">   -945.48273362 </i>
   </energy>
  </scstep>
  <scstep>
   <time name="total">  458.51  458.45</time>
   <energy>
    <i name="e_fr_energy">   -945.64250094 </i>
    <i name="e_wo_entrp">   -945.63869301 </i>
    <i name="e_0_energy">   -945.64059697 </i>
   </energy>
  </scstep>
  <scstep>
   <time name="total">  458.70  458.65</time>
   <energy>
    <i name="e_fr_energy">   -945.73473303 </i>
    <i name="e_wo_entrp">   -945.73126400 </i>
    <i name="e_0_energy">   -945.73299852 </i>
   </energy>
  </scstep>
  <scstep>
   <time name="total">  458.43  458.37</time>
   <energy>
    <i name="e_fr_energy">   -945.79489112 </i>
    <i name="e_wo_entrp">   -945.79140383 </i>
    <i name="e_0_energy">   -945.79314748 </i>
   </energy>
  </scstep>
  <scstep>
   <time name="total">  458.43  458.38</time>
   <energy>
    <i name="e_fr_energy">   -945.82919416 </i>
    <i name="e_wo_entrp">   -945.82551483 </i>
    <i name="e_0_energy">   -945.82735450 </i>
   </energy>
  </scstep>
  <scstep>
   <time name="total">  458.61  458.57</time>
   <energy>
    <i name="e_fr_energy">   -945.85040631 </i>
    <i name="e_wo_entrp">   -945.84652785 </i>
    <i name="e_0_energy">   -945.84846708 </i>
   </energy>
  </scstep>
  <scstep>
   <time name="total">  458.59  458.52</time>
   <energy>
    <i name="e_fr_energy">   -945.86416905 </i>
    <i name="e_wo_entrp">   -945.86010891 </i>
    <i name="e_0_energy">   -945.86213898 </i>
   </energy>
  </scstep>
  <scstep>
   <time name="total">  458.45  458.38</time>
   <energy>
    <i name="e_fr_energy">   -945.87217698 </i>
    <i name="e_wo_entrp">   -945.86797152 </i>
    <i name="e_0_energy">   -945.87007425 </i>
   </energy>
  </scstep>
  <scstep>
   <time name="total">  458.47  458.40</time>
   <energy>
    <i name="e_fr_energy">   -945.87739833 </i>
    <i name="e_wo_entrp">   -945.87311565 </i>
    <i name="e_0_energy">   -945.87525699 </i>
   </energy>
  </scstep>
  <scstep>
   <time name="total">  458.62  458.56</time>
   <energy>
    <i name="e_fr_energy">   -945.88046778 </i>
    <i name="e_wo_entrp">   -945.87621970 </i>
    <i name="e_0_energy">   -945.87834374 </i>
   </energy>
  </scstep>
  <scstep>
   <time name="total">  458.60  458.53</time>
   <energy>
    <i name="e_fr_energy">   -945.88365927 </i>
    <i name="e_wo_entrp">   -945.87945083 </i>
    <i name="e_0_energy">   -945.88155505 </i>
   </energy>
  </scstep>
  <scstep>
   <time name="total">  458.69  458.64</time>
   <energy>
    <i name="e_fr_energy">   -945.88484085 </i>
    <i name="e_wo_entrp">   -945.88065148 </i>
    <i name="e_0_energy">   -945.88274616 </i>
   </energy>
  </scstep>
  <scstep>
   <time name="total">  458.54  458.48</time>
   <energy>
    <i name="e_fr_energy">   -945.88514679 </i>
    <i name="e_wo_entrp">   -945.88096528 </i>
    <i name="e_0_energy">   -945.88305604 </i>
   </energy>
  </scstep>
  <scstep>
   <time name="total">  458.59  458.53</time>
   <energy>
    <i name="e_fr_energy">   -945.88525513 </i>
    <i name="e_wo_entrp">   -945.88107579 </i>
    <i name="e_0_energy">   -945.88316546 </i>
   </energy>
  </scstep>
  <scstep>
   <time name="total">  458.54  458.48</time>
   <energy>
    <i name="e_fr_energy">   -945.88528479 </i>
    <i name="e_wo_entrp">   -945.88110692 </i>
    <i name="e_0_energy">   -945.88319585 </i>
   </energy>
  </scstep>
  <scstep>
   <time name="total">  683.52  683.42</time>
   <energy>
    <i name="alphaZ">   5376.25786726 </i>
    <i name="ewald"> -86630.39988638 </i>
    <i name="hartreedc"> -33914.44802645 </i>
    <i name="XCdc">   2869.44155924 </i>
    <i name="pawpsdc"> 120480.30520756 </i>
    <i name="pawaedc">-135716.22179396 </i>
    <i name="eentropy">     -0.00417640 </i>
    <i name="bandstr">  -8744.63791081 </i>
    <i name="atom"> 131500.23896116 </i>
    <i name="e_fr_energy">   -945.88529296 </i>
    <i name="e_wo_entrp">   -945.88111655 </i>
    <i name="e_0_energy">   -945.88320475 </i>
   </energy>
  </scstep>
  <structure>
   <crystal>
    <varray name="basis" >
     <v>       0.00000000      12.28047342       0.00000000 </v>
     <v>       9.14270205       0.00000000       0.00000000 </v>
     <v>       0.00000000      -2.76826177     -11.30069772 </v>
    </varray>
    <i name="volume">   1268.80515525 </i>
    <varray name="rec_basis" >
     <v>       0.00000000       0.08143009      -0.01994742 </v>
     <v>       0.10937686      -0.00000000       0.00000000 </v>
     <v>       0.00000000       0.00000000      -0.08849011 </v>
    </varray>
   </crystal>
   <varray name="positions" >
    <v>       0.65846082       0.00000000       0.15461602 </v>
    <v>       0.66029752       0.00000000       0.65615530 </v>
    <v>       0.65946433       0.33307416       0.15616046 </v>
    <v>       0.65993398       0.33363955       0.65606495 </v>
    <v>       0.65946433       0.66692584       0.15616046 </v>
    <v>       0.65993398       0.66636045       0.65606495 </v>
    <v>       0.83964929       0.16362000       0.34181416 </v>
    <v>       0.84075032       0.16642003       0.84305674 </v>
    <v>       0.84379971       0.50000000       0.34236011 </v>
    <v>       0.83959675       0.50000000       0.84349243 </v>
    <v>       0.83964929       0.83638000       0.34181416 </v>
    <v>       0.84075032       0.83357997       0.84305674 </v>
    <v>       0.59362761       0.16837644       0.39798480 </v>
    <v>       0.59153490       0.16657127       0.89682040 </v>
    <v>       0.59078217       0.50000000       0.39645497 </v>
    <v>       0.59050786       0.50000000       0.89727897 </v>
    <v>       0.59362761       0.83162356       0.39798480 </v>
    <v>       0.59153490       0.83342873       0.89682040 </v>
    <v>       0.91166752       0.00000000       0.10247680 </v>
    <v>       0.90882370       0.00000000       0.60234650 </v>
    <v>       0.91016685       0.33293943       0.10148241 </v>
    <v>       0.90941684       0.33371782       0.60337918 </v>
    <v>       0.91016685       0.66706057       0.10148241 </v>
    <v>       0.90941684       0.66628218       0.60337918 </v>
    <v>       0.15931511       0.17656684       0.14541745 </v>
    <v>       0.15753832       0.16982711       0.65710531 </v>
    <v>       0.15965724       0.50000000       0.15492154 </v>
    <v>       0.15958582       0.50000000       0.65351632 </v>
    <v>       0.15931511       0.82343316       0.14541745 </v>
    <v>       0.15753832       0.83017289       0.65710531 </v>
    <v>       0.34970257       0.00000000       0.34609192 </v>
    <v>       0.34120577       0.00000000       0.84094744 </v>
    <v>       0.34068425       0.33353393       0.34344969 </v>
    <v>       0.34091788       0.33354588       0.84264248 </v>
    <v>       0.34068425       0.66646607       0.34344969 </v>
    <v>       0.34091788       0.66645412       0.84264248 </v>
    <v>       0.09161048       0.00000000       0.89513491 </v>
    <v>       0.09276228       0.32961358       0.39544225 </v>
    <v>       0.08975053       0.33484747       0.89291848 </v>
    <v>       0.09276228       0.67038642       0.39544225 </v>
    <v>       0.08975053       0.66515253       0.89291848 </v>
    <v>       0.40787333       0.16601613       0.10082219 </v>
    <v>       0.40994695       0.16673432       0.60155894 </v>
    <v>       0.40871397       0.50000000       0.10134661 </v>
    <v>       0.40928443       0.50000000       0.60141555 </v>
    <v>       0.40787333       0.83398387       0.10082219 </v>
    <v>       0.40994695       0.83326568       0.60155894 </v>
    <v>       0.00058723       0.16634898       0.13379604 </v>
    <v>       0.99663990       0.16643614       0.62776579 </v>
    <v>       0.99793186       0.50000000       0.12511680 </v>
    <v>       0.99753395       0.50000000       0.62654833 </v>
    <v>       0.00058723       0.83365102       0.13379604 </v>
    <v>       0.99663990       0.83356386       0.62776579 </v>
    <v>       0.50779392       0.00000000       0.37281522 </v>
    <v>       0.50331181       0.00000000       0.87160299 </v>
    <v>       0.50278581       0.33267334       0.37168419 </v>
    <v>       0.50298746       0.33266757       0.87156524 </v>
    <v>       0.50278581       0.66732666       0.37168419 </v>
    <v>       0.50298746       0.66733243       0.87156524 </v>
    <v>       0.67325048       0.16699435       0.27939555 </v>
    <v>       0.67275415       0.16631663       0.77959255 </v>
    <v>       0.67533581       0.50000000       0.28093858 </v>
    <v>       0.67196770       0.50000000       0.77962080 </v>
    <v>       0.67325048       0.83300565       0.27939555 </v>
    <v>       0.67275415       0.83368337       0.77959255 </v>
    <v>       0.82962802       0.00000000       0.22010346 </v>
    <v>       0.82861922       0.00000000       0.72028551 </v>
    <v>       0.83152437       0.32992138       0.22095393 </v>
    <v>       0.82803429       0.33334957       0.71999309 </v>
    <v>       0.83152437       0.67007862       0.22095393 </v>
    <v>       0.82803429       0.66665043       0.71999309 </v>
    <v>       0.83211122       0.00000000       0.44538732 </v>
    <v>       0.83403887       0.00000000       0.94679981 </v>
    <v>       0.84122912       0.33034416       0.44403018 </v>
    <v>       0.83221284       0.33247009       0.94595954 </v>
    <v>       0.84122912       0.66965584       0.44403018 </v>
    <v>       0.83221284       0.66752991       0.94595954 </v>
    <v>       0.66837777       0.16668570       0.05372691 </v>
    <v>       0.67084797       0.16729554       0.55404490 </v>
    <v>       0.66864536       0.50000000       0.05439456 </v>
    <v>       0.67045064       0.50000000       0.55264334 </v>
    <v>       0.66837777       0.83331430       0.05372691 </v>
    <v>       0.67084797       0.83270446       0.55404490 </v>
    <v>       0.49594898       0.00000000       0.12732167 </v>
    <v>       0.49733575       0.00000000       0.62477815 </v>
    <v>       0.49581379       0.33246124       0.12778530 </v>
    <v>       0.49691830       0.33333039       0.62510121 </v>
    <v>       0.49581379       0.66753876       0.12778530 </v>
    <v>       0.49691830       0.66666961       0.62510121 </v>
    <v>       0.01722956       0.14140331       0.38008750 </v>
    <v>       0.00444463       0.16677599       0.87513563 </v>
    <v>       0.00706610       0.50000000       0.36986372 </v>
    <v>       0.00184452       0.50000000       0.87084106 </v>
    <v>       0.01722956       0.85859669       0.38008750 </v>
    <v>       0.00444463       0.83322401       0.87513563 </v>
    <v>       0.17063283       0.00000000       0.77426913 </v>
    <v>       0.17198423       0.33025158       0.27706742 </v>
    <v>       0.17269209       0.33413328       0.77796390 </v>
    <v>       0.17198423       0.66974842       0.27706742 </v>
    <v>       0.17269209       0.66586672       0.77796390 </v>
    <v>       0.32245770       0.15941753       0.21926304 </v>
    <v>       0.32487315       0.16418012       0.71550848 </v>
    <v>       0.32687002       0.50000000       0.21933415 </v>
    <v>       0.32694105       0.50000000       0.71765553 </v>
    <v>       0.32245770       0.84058247       0.21926304 </v>
    <v>       0.32487315       0.83581988       0.71550848 </v>
    <v>       0.33060436       0.16457551       0.44417518 </v>
    <v>       0.32953557       0.16555766       0.94380065 </v>
    <v>       0.32936928       0.50000000       0.44504986 </v>
    <v>       0.33272197       0.50000000       0.94433076 </v>
    <v>       0.33060436       0.83542449       0.44417518 </v>
    <v>       0.32953557       0.83444234       0.94380065 </v>
    <v>       0.16483712       0.00000000       0.05699993 </v>
    <v>       0.15408217       0.00000000       0.53973530 </v>
    <v>       0.17100137       0.33827889       0.04872146 </v>
    <v>       0.16678836       0.33140731       0.55182887 </v>
    <v>       0.17100137       0.66172111       0.04872146 </v>
    <v>       0.16678836       0.66859269       0.55182887 </v>
    <v>       0.10299654       0.00000000       0.39748272 </v>
   </varray>
  </structure>
  <varray name="forces" >
   <v>      -0.00000000       0.02614090       0.01997517 </v>
   <v>      -0.00000000       0.07914397       0.00605596 </v>
   <v>      -0.01335455       0.02799247       0.01380898 </v>
   <v>      -0.00530619       0.08170041       0.01175851 </v>
   <v>       0.01335455       0.02799247       0.01380898 </v>
   <v>       0.00530619       0.08170041       0.01175851 </v>
   <v>      -0.03819706      -0.20513350       0.00499455 </v>
   <v>      -0.00099071      -0.05646692      -0.01591747 </v>
   <v>      -0.00000000      -0.05540427      -0.02321488 </v>
   <v>      -0.00000000      -0.04653161      -0.00280598 </v>
   <v>       0.03819706      -0.20513350       0.00499455 </v>
   <v>       0.00099071      -0.05646692      -0.01591747 </v>
   <v>      -0.03155982      -0.03870488       0.02433874 </v>
   <v>       0.00093436      -0.01704835       0.01679212 </v>
   <v>      -0.00000000      -0.02462401       0.00356084 </v>
   <v>      -0.00000000      -0.00914050       0.02365814 </v>
   <v>       0.03155982      -0.03870488       0.02433874 </v>
   <v>      -0.00093436      -0.01704835       0.01679212 </v>
   <v>      -0.00000000       0.03908805      -0.03758873 </v>
   <v>      -0.00000000       0.04008812      -0.01693795 </v>
   <v>      -0.00693616       0.02347194      -0.01314932 </v>
   <v>      -0.01834596       0.05225292      -0.00980430 </v>
   <v>       0.00693616       0.02347194      -0.01314932 </v>
   <v>       0.01834596       0.05225292      -0.00980430 </v>
   <v>       0.12491948       0.12879990       0.12419772 </v>
   <v>       0.07555267       0.02019513      -0.04609325 </v>
   <v>      -0.00000000       0.10857042       0.03112452 </v>
   <v>      -0.00000000       0.05790212      -0.00736026 </v>
   <v>      -0.12491948       0.12879990       0.12419772 </v>
   <v>      -0.07555267       0.02019513      -0.04609325 </v>
   <v>      -0.00000000       0.18412138      -0.03188285 </v>
   <v>      -0.00000000      -0.08594314      -0.02913577 </v>
   <v>       0.00713879      -0.07422730       0.00519081 </v>
   <v>       0.02163166      -0.09045500      -0.04355363 </v>
   <v>      -0.00713879      -0.07422730       0.00519081 </v>
   <v>      -0.02163166      -0.09045500      -0.04355363 </v>
   <v>      -0.00000000      -0.05971993      -0.02344618 </v>
   <v>       0.06005122       0.11966143      -0.02853662 </v>
   <v>      -0.00398631      -0.00746626      -0.02384115 </v>
   <v>      -0.06005122       0.11966143      -0.02853662 </v>
   <v>       0.00398631      -0.00746626      -0.02384115 </v>
   <v>      -0.02033949       0.01148543      -0.02771820 </v>
   <v>      -0.00205033       0.01215183       0.01562560 </v>
   <v>      -0.00000000       0.00029979      -0.02925089 </v>
   <v>      -0.00000000       0.01674193       0.00342607 </v>
   <v>       0.02033949       0.01148543      -0.02771820 </v>
   <v>       0.00205033       0.01215183       0.01562560 </v>
   <v>       0.03259015      -0.19219289       0.21459298 </v>
   <v>       0.01950371      -0.14974537       0.10598540 </v>
   <v>      -0.00000000      -0.18165964       0.09770916 </v>
   <v>      -0.00000000      -0.16983079       0.10277025 </v>
   <v>      -0.03259015      -0.19219289       0.21459298 </v>
   <v>      -0.01950371      -0.14974537       0.10598540 </v>
   <v>      -0.00000000       0.11657230      -0.13275783 </v>
   <v>      -0.00000000       0.17333696      -0.11148012 </v>
   <v>       0.01354956       0.18258008      -0.13155899 </v>
   <v>       0.00546801       0.17072159      -0.11533795 </v>
   <v>      -0.01354956       0.18258008      -0.13155899 </v>
   <v>      -0.00546801       0.17072159      -0.11533795 </v>
   <v>       0.01357621       0.01105202      -0.11738986 </v>
   <v>      -0.00177524      -0.04324810      -0.12558995 </v>
   <v>      -0.00000000      -0.01366906      -0.09354576 </v>
   <v>      -0.00000000      -0.03069054      -0.12089608 </v>
   <v>      -0.01357621       0.01105202      -0.11738986 </v>
   <v>       0.00177524      -0.04324810      -0.12558995 </v>
   <v>      -0.00000000       0.02031199       0.02590302 </v>
   <v>      -0.00000000       0.02475757       0.10965501 </v>
   <v>      -0.00143179       0.05037370       0.08578619 </v>
   <v>       0.00064204       0.03376898       0.12286483 </v>
   <v>       0.00143179       0.05037370       0.08578619 </v>
   <v>      -0.00064204       0.03376898       0.12286483 </v>
   <v>      -0.00000000       0.40195710      -0.01478700 </v>
   <v>      -0.00000000       0.37232946      -0.07969494 </v>
   <v>      -0.01206679       0.31098532      -0.04890447 </v>
   <v>       0.01439399       0.38407956      -0.07800125 </v>
   <v>       0.01206679       0.31098532      -0.04890447 </v>
   <v>      -0.01439399       0.38407956      -0.07800125 </v>
   <v>      -0.00556148      -0.39846281       0.06838661 </v>
   <v>       0.01076265      -0.40389625       0.07359235 </v>
   <v>      -0.00000000      -0.39319126       0.06491119 </v>
   <v>      -0.00000000      -0.40910498       0.06234615 </v>
   <v>       0.00556148      -0.39846281       0.06838661 </v>
   <v>      -0.01076265      -0.40389625       0.07359235 </v>
   <v>      -0.00000000      -0.12508108       0.14413679 </v>
   <v>      -0.00000000      -0.17636095       0.08935376 </v>
   <v>       0.02485228      -0.12346067       0.14266393 </v>
   <v>      -0.00232698      -0.17475064       0.09309378 </v>
   <v>      -0.02485228      -0.12346067       0.14266393 </v>
   <v>       0.00232698      -0.17475064       0.09309378 </v>
   <v>      -0.19948892       0.39796214      -0.13532032 </v>
   <v>       0.02213708       0.16569047      -0.04231974 </v>
   <v>      -0.00000000       0.15032440      -0.12012223 </v>
   <v>      -0.00000000       0.18680066      -0.09170249 </v>
   <v>       0.19948892       0.39796214      -0.13532032 </v>
   <v>      -0.02213708       0.16569047      -0.04231974 </v>
   <v>      -0.00000000      -0.02219009      -0.02058888 </v>
   <v>       0.04891878      -0.06838207      -0.14603960 </v>
   <v>      -0.02445929      -0.04475050      -0.07576170 </v>
   <v>      -0.04891878      -0.06838207      -0.14603960 </v>
   <v>       0.02445929      -0.04475050      -0.07576170 </v>
   <v>       0.05561991       0.05734689       0.11319234 </v>
   <v>      -0.00732532       0.04227949       0.11370096 </v>
   <v>      -0.00000000       0.02025521       0.10542499 </v>
   <v>      -0.00000000       0.03899612       0.12603171 </v>
   <v>      -0.05561991       0.05734689       0.11319234 </v>
   <v>       0.00732532       0.04227949       0.11370096 </v>
   <v>      -0.00175478       0.42930420      -0.09518126 </v>
   <v>       0.01424861       0.43604838      -0.03250407 </v>
   <v>      -0.00000000       0.42364969      -0.07532208 </v>
   <v>      -0.00000000       0.40461881      -0.04105482 </v>
   <v>       0.00175478       0.42930420      -0.09518126 </v>
   <v>      -0.01424861       0.43604838      -0.03250407 </v>
   <v>      -0.00000000      -0.33535643       0.12274449 </v>
   <v>      -0.00000000      -0.30369260       0.45930949 </v>
   <v>      -0.07672179      -0.45960013       0.01043626 </v>
   <v>      -0.00380716      -0.39225537       0.07744744 </v>
   <v>       0.07672179      -0.45960013       0.01043626 </v>
   <v>       0.00380716      -0.39225537       0.07744744 </v>
   <v>      -0.00000000      -0.86313065      -0.66637494 </v>
  </varray>
  <varray name="stress" >
   <v>     -42.67379310       0.00000000       0.00000000 </v>
   <v>       0.00000000     -33.24789349       4.28385406 </v>
   <v>       0.00000000       4.28385459     -31.03051390 </v>
  </varray>
  <energy>
   <i name="e_fr_energy">   -945.88529296 </i>
   <i name="e_wo_entrp">   -945.88111655 </i>
   <i name="e_0_energy">   -945.88320475 </i>
  </energy>
  <time name="totalsc">18473.9618471.85</time>
  <eigenvalues>
   <array>
    <dimension dim="1">band</dimension>
    <dimension dim="2">kpoint</dimension>
    <dimension dim="3">spin</dimension>
    <field>eigene</field>
    <field>occ</field>
    <set>
     <set comment="spin 1">
      <set comment="kpoint 1">
       <r>  -19.8350    1.0000 </r>
       <r>  -18.6057    1.0000 </r>
       <r>  -18.4290    1.0000 </r>
       <r>  -18.3432    1.0000 </r>
       <r>  -18.3268    1.0000 </r>
       <r>  -18.2199    1.0000 </r>
       <r>  -18.1030    1.0000 </r>
       <r>  -17.9811    1.0000 </r>
       <r>  -17.9453    1.0000 </r>
       <r>  -17.9230    1.0000 </r>
       <r>  -17.8466    1.0000 </r>
       <r>  -17.8324    1.0000 </r>
       <r>  -17.7925    1.0000 </r>
       <r>  -17.7350    1.0000 </r>
       <r>  -17.7141    1.0000 </r>
       <r>  -17.6839    1.0000 </r>
       <r>  -17.6666    1.0000 </r>
       <r>  -17.6569    1.0000 </r>
       <r>  -17.6490    1.0000 </r>
       <r>  -17.6188    1.0000 </r>
       <r>  -17.6133    1.0000 </r>
       <r>  -17.5263    1.0000 </r>
       <r>  -17.5031    1.0000 </r>
       <r>  -17.5017    1.0000 </r>
       <r>  -17.4869    1.0000 </r>
       <r>  -17.4624    1.0000 </r>
       <r>  -17.4354    1.0000 </r>
       <r>  -17.4221    1.0000 </r>
       <r>  -17.4118    1.0000 </r>
       <r>  -17.3688    1.0000 </r>
       <r>  -17.3559    1.0000 </r>
       <r>  -17.3522    1.0000 </r>
       <r>  -17.3414    1.0000 </r>
       <r>  -17.3242    1.0000 </r>
       <r>  -17.3017    1.0000 </r>
       <r>  -17.2771    1.0000 </r>
       <r>  -17.2684    1.0000 </r>
       <r>  -17.2640    1.0000 </r>
       <r>  -17.2449    1.0000 </r>
       <r>  -17.2257    1.0000 </r>
       <r>  -17.2213    1.0000 </r>
       <r>  -17.2073    1.0000 </r>
       <r>  -17.2007    1.0000 </r>
       <r>  -17.1764    1.0000 </r>
       <r>  -17.1760    1.0000 </r>
       <r>  -17.1552    1.0000 </r>
       <r>  -17.1544    1.0000 </r>
       <r>  -17.1343    1.0000 </r>
       <r>  -17.1128    1.0000 </r>
       <r>  -17.0922    1.0000 </r>
       <r>  -17.0862    1.0000 </r>
       <r>  -17.0596    1.0000 </r>
       <r>  -17.0465    1.0000 </r>
       <r>  -17.0199    1.0000 </r>
       <r>  -17.0007    1.0000 </r>
       <r>  -16.9870    1.0000 </r>
       <r>  -16.9792    1.0000 </r>
       <r>  -16.9692    1.0000 </r>
       <r>  -16.9040    1.0000 </r>
       <r>  -16.8931    1.0000 </r>
       <r>  -16.8770    1.0000 </r>
       <r>  -16.8573    1.0000 </r>
       <r>  -16.8550    1.0000 </r>
       <r>  -16.8472    1.0000 </r>
       <r>  -16.8299    1.0000 </r>
       <r>  -16.8264    1.0000 </r>
       <r>  -16.8207    1.0000 </r>
       <r>  -16.8165    1.0000 </r>
       <r>  -16.8054    1.0000 </r>
       <r>  -16.7862    1.0000 </r>
       <r>  -16.7288    1.0000 </r>
       <r>  -13.2860    1.0000 </r>
       <r>  -13.2357    1.0000 </r>
       <r>  -13.1819    1.0000 </r>
       <r>  -13.1797    1.0000 </r>
       <r>  -13.1776    1.0000 </r>
       <r>  -13.1507    1.0000 </r>
       <r>  -13.1169    1.0000 </r>
       <r>  -13.1081    1.0000 </r>
       <r>  -13.0747    1.0000 </r>
       <r>  -13.0628    1.0000 </r>
       <r>  -13.0531    1.0000 </r>
       <r>  -13.0296    1.0000 </r>
       <r>  -13.0255    1.0000 </r>
       <r>  -13.0189    1.0000 </r>
       <r>  -13.0186    1.0000 </r>
       <r>  -13.0164    1.0000 </r>
       <r>  -12.9919    1.0000 </r>
       <r>  -12.9884    1.0000 </r>
       <r>  -12.9863    1.0000 </r>
       <r>  -12.9841    1.0000 </r>
       <r>  -12.9756    1.0000 </r>
       <r>  -12.9690    1.0000 </r>
       <r>  -12.9655    1.0000 </r>
       <r>  -12.9621    1.0000 </r>
       <r>  -12.9604    1.0000 </r>
       <r>  -12.9580    1.0000 </r>
       <r>  -12.9517    1.0000 </r>
       <r>  -12.9469    1.0000 </r>
       <r>  -12.9464    1.0000 </r>
       <r>  -12.9373    1.0000 </r>
       <r>  -12.9321    1.0000 </r>
       <r>  -12.9250    1.0000 </r>
       <r>  -12.9229    1.0000 </r>
       <r>  -12.9203    1.0000 </r>
       <r>  -12.9183    1.0000 </r>
       <r>  -12.9182    1.0000 </r>
       <r>  -12.9150    1.0000 </r>
       <r>  -12.9126    1.0000 </r>
       <r>  -12.9088    1.0000 </r>
       <r>  -12.9057    1.0000 </r>
       <r>  -12.8998    1.0000 </r>
       <r>  -12.8931    1.0000 </r>
       <r>  -12.8921    1.0000 </r>
       <r>  -12.8860    1.0000 </r>
       <r>  -12.8845    1.0000 </r>
       <r>  -12.8831    1.0000 </r>
       <r>  -12.8756    1.0000 </r>
       <r>  -12.8730    1.0000 </r>
       <r>  -12.8727    1.0000 </r>
       <r>  -12.8700    1.0000 </r>
       <r>  -12.8666    1.0000 </r>
       <r>  -12.8659    1.0000 </r>
       <r>  -12.8616    1.0000 </r>
       <r>  -12.8541    1.0000 </r>
       <r>  -12.8529    1.0000 </r>
       <r>  -12.8523    1.0000 </r>
       <r>  -12.8447    1.0000 </r>
       <r>  -12.8422    1.0000 </r>
       <r>  -12.8405    1.0000 </r>
       <r>  -12.8403    1.0000 </r>
       <r>  -12.8344    1.0000 </r>
       <r>  -12.8327    1.0000 </r>
       <r>  -12.8321    1.0000 </r>
       <r>  -12.8297    1.0000 </r>
       <r>  -12.8256    1.0000 </r>
       <r>  -12.8231    1.0000 </r>
       <r>  -12.8185    1.0000 </r>
       <r>  -12.8154    1.0000 </r>
       <r>  -12.8119    1.0000 </r>
       <r>  -12.8116    1.0000 </r>
       <r>  -12.8069    1.0000 </r>
       <r>  -12.8044    1.0000 </r>
       <r>  -12.8030    1.0000 </r>
       <r>  -12.8024    1.0000 </r>
       <r>  -12.8014    1.0000 </r>
       <r>  -12.7999    1.0000 </r>
       <r>  -12.7974    1.0000 </r>
       <r>  -12.7964    1.0000 </r>
       <r>  -12.7930    1.0000 </r>
       <r>  -12.7863    1.0000 </r>
       <r>  -12.7856    1.0000 </r>
       <r>  -12.7826    1.0000 </r>
       <r>  -12.7798    1.0000 </r>
       <r>  -12.7716    1.0000 </r>
       <r>  -12.7675    1.0000 </r>
       <r>  -12.7642    1.0000 </r>
       <r>  -12.7601    1.0000 </r>
       <r>  -12.7586    1.0000 </r>
       <r>  -12.7559    1.0000 </r>
       <r>  -12.7487    1.0000 </r>
       <r>  -12.7470    1.0000 </r>
       <r>  -12.7431    1.0000 </r>
       <r>  -12.7402    1.0000 </r>
       <r>  -12.7371    1.0000 </r>
       <r>  -12.7330    1.0000 </r>
       <r>  -12.7298    1.0000 </r>
       <r>  -12.7281    1.0000 </r>
       <r>  -12.7259    1.0000 </r>
       <r>  -12.7244    1.0000 </r>
       <r>  -12.7211    1.0000 </r>
       <r>  -12.7174    1.0000 </r>
       <r>  -12.7154    1.0000 </r>
       <r>  -12.7111    1.0000 </r>
       <r>  -12.7084    1.0000 </r>
       <r>  -12.7034    1.0000 </r>
       <r>  -12.6993    1.0000 </r>
       <r>  -12.6981    1.0000 </r>
       <r>  -12.6973    1.0000 </r>
       <r>  -12.6951    1.0000 </r>
       <r>  -12.6931    1.0000 </r>
       <r>  -12.6911    1.0000 </r>
       <r>  -12.6908    1.0000 </r>
       <r>  -12.6827    1.0000 </r>
       <r>  -12.6817    1.0000 </r>
       <r>  -12.6767    1.0000 </r>
       <r>  -12.6764    1.0000 </r>
       <r>  -12.6756    1.0000 </r>
       <r>  -12.6710    1.0000 </r>
       <r>  -12.6702    1.0000 </r>
       <r>  -12.6668    1.0000 </r>
       <r>  -12.6666    1.0000 </r>
       <r>  -12.6627    1.0000 </r>
       <r>  -12.6616    1.0000 </r>
       <r>  -12.6564    1.0000 </r>
       <r>  -12.6550    1.0000 </r>
       <r>  -12.6539    1.0000 </r>
       <r>  -12.6504    1.0000 </r>
       <r>  -12.6503    1.0000 </r>
       <r>  -12.6483    1.0000 </r>
       <r>  -12.6471    1.0000 </r>
       <r>  -12.6415    1.0000 </r>
       <r>  -12.6380    1.0000 </r>
       <r>  -12.6319    1.0000 </r>
       <r>  -12.6303    1.0000 </r>
       <r>  -12.6282    1.0000 </r>
       <r>  -12.6242    1.0000 </r>
       <r>  -12.6221    1.0000 </r>
       <r>  -12.6200    1.0000 </r>
       <r>  -12.6166    1.0000 </r>
       <r>  -12.6127    1.0000 </r>
       <r>  -12.6091    1.0000 </r>
       <r>  -12.6069    1.0000 </r>
       <r>  -12.6047    1.0000 </r>
       <r>  -12.5994    1.0000 </r>
       <r>  -12.5961    1.0000 </r>
       <r>  -12.5920    1.0000 </r>
       <r>  -12.5909    1.0000 </r>
       <r>  -12.5830    1.0000 </r>
       <r>  -12.5829    1.0000 </r>
       <r>  -12.5818    1.0000 </r>
       <r>  -12.5757    1.0000 </r>
       <r>  -12.5746    1.0000 </r>
       <r>  -12.5712    1.0000 </r>
       <r>  -12.5695    1.0000 </r>
       <r>  -12.5656    1.0000 </r>
       <r>  -12.5648    1.0000 </r>
       <r>  -12.5645    1.0000 </r>
       <r>  -12.5554    1.0000 </r>
       <r>  -12.5530    1.0000 </r>
       <r>  -12.5498    1.0000 </r>
       <r>  -12.5483    1.0000 </r>
       <r>  -12.5450    1.0000 </r>
       <r>  -12.5417    1.0000 </r>
       <r>  -12.5401    1.0000 </r>
       <r>  -12.5387    1.0000 </r>
       <r>  -12.5376    1.0000 </r>
       <r>  -12.5308    1.0000 </r>
       <r>  -12.5253    1.0000 </r>
       <r>  -12.5251    1.0000 </r>
       <r>  -12.5113    1.0000 </r>
       <r>  -12.5043    1.0000 </r>
       <r>  -12.5039    1.0000 </r>
       <r>  -12.5017    1.0000 </r>
       <r>  -12.4982    1.0000 </r>
       <r>  -12.4926    1.0000 </r>
       <r>  -12.4887    1.0000 </r>
       <r>  -12.4824    1.0000 </r>
       <r>  -12.4821    1.0000 </r>
[...]
       <r>   -13.4897     0.0000   142.0000 </r>
       <r>   -13.3557     0.8013   142.1074 </r>
       <r>   -13.2218    27.2170   145.7536 </r>
       <r>   -13.0878    96.6812   158.7060 </r>
       <r>   -12.9538   266.4990   194.4090 </r>
       <r>   -12.8198   613.4007   276.5864 </r>
       <r>   -12.6859   677.1580   367.3053 </r>
       <r>   -12.5519   693.9615   460.2755 </r>
       <r>   -12.4179   432.7250   518.2478 </r>
       <r>   -12.2840   181.1155   542.5118 </r>
       <r>   -12.1500   111.6416   557.4685 </r>
       <r>   -12.0160    99.2081   570.7594 </r>
       <r>   -11.8821   106.7358   585.0588 </r>
       <r>   -11.7481   111.3575   599.9774 </r>
       <r>   -11.6141    74.7511   609.9918 </r>
       <r>   -11.4801    14.9076   611.9890 </r>
       <r>   -11.3462     0.0820   612.0000 </r>
       <r>   -11.2122     0.0000   612.0000 </r>
       <r>   -11.0782     0.0000   612.0000 </r>
       <r>   -10.9443     0.0000   612.0000 </r>
       <r>   -10.8103     0.0000   612.0000 </r>
       <r>   -10.6763     0.0000   612.0000 </r>
       <r>   -10.5424     0.0000   612.0000 </r>
       <r>   -10.4084     0.0000   612.0000 </r>
       <r>   -10.2744     0.0000   612.0000 </r>
       <r>   -10.1404     0.0000   612.0000 </r>
       <r>   -10.0065     0.0000   612.0000 </r>
       <r>    -9.8725     0.0000   612.0000 </r>
       <r>    -9.7385     0.0000   612.0000 </r>
       <r>    -9.6046     0.0000   612.0000 </r>
       <r>    -9.4706     0.0000   612.0000 </r>
       <r>    -9.3366     0.0000   612.0000 </r>
       <r>    -9.2027     0.0000   612.0000 </r>
       <r>    -9.0687     0.0000   612.0000 </r>
       <r>    -8.9347     0.0000   612.0000 </r>
       <r>    -8.8007     0.0000   612.0000 </r>
       <r>    -8.6668     0.0000   612.0000 </r>
       <r>    -8.5328     0.0000   612.0000 </r>
       <r>    -8.3988     0.0000   612.0000 </r>
       <r>    -8.2649     0.0000   612.0000 </r>
       <r>    -8.1309     0.0000   612.0000 </r>
       <r>    -7.9969     0.0000   612.0000 </r>
       <r>    -7.8630     0.0000   612.0000 </r>
       <r>    -7.7290     0.0000   612.0000 </r>
       <r>    -7.5950     0.0000   612.0000 </r>
       <r>    -7.4610     0.0000   612.0000 </r>
       <r>    -7.3271     0.0556   612.0075 </r>
       <r>    -7.1931    11.1530   613.5016 </r>
       <r>    -7.0591     3.7198   614.0000 </r>
       <r>    -6.9252     0.0002   614.0000 </r>
       <r>    -6.7912     0.0000   614.0000 </r>
       <r>    -6.6572     0.0000   614.0000 </r>
       <r>    -6.5232     0.0000   614.0000 </r>
       <r>    -6.3893     0.0000   614.0000 </r>
       <r>    -6.2553     0.0000   614.0000 </r>
       <r>    -6.1213     0.0000   614.0000 </r>
       <r>    -5.9874     0.0000   614.0000 </r>
       <r>    -5.8534     0.0000   614.0000 </r>
       <r>    -5.7194     0.0000   614.0000 </r>
       <r>    -5.5855     0.0000   614.0000 </r>
       <r>    -5.4515     0.0000   614.0000 </r>
       <r>    -5.3175     0.0165   614.0022 </r>
       <r>    -5.1835     4.7563   614.6394 </r>
       <r>    -5.0496    11.9778   616.2441 </r>
       <r>    -4.9156    17.0698   618.5309 </r>
       <r>    -4.7816    20.3106   621.2519 </r>
       <r>    -4.6477    32.8262   625.6497 </r>
       <r>    -4.5137    36.2022   630.4997 </r>
       <r>    -4.3797    42.1290   636.1437 </r>
       <r>    -4.2458    41.8486   641.7502 </r>
       <r>    -4.1118    53.5714   648.9271 </r>
       <r>    -3.9778    53.3288   656.0716 </r>
       <r>    -3.8438    41.4046   661.6186 </r>
       <r>    -3.7099    49.9775   668.3141 </r>
       <r>    -3.5759    46.3280   674.5206 </r>
       <r>    -3.4419    36.3368   679.3887 </r>
       <r>    -3.3080    25.2901   682.7768 </r>
       <r>    -3.1740    35.2724   687.5023 </r>
       <r>    -3.0400    38.2758   692.6301 </r>
       <r>    -2.9061    27.8123   696.3561 </r>
       <r>    -2.7721    36.1813   701.2033 </r>
       <r>    -2.6381    43.1871   706.9891 </r>
       <r>    -2.5041    42.2193   712.6452 </r>
       <r>    -2.3702    36.4565   717.5293 </r>
       <r>    -2.2362    36.9555   722.4802 </r>
       <r>    -2.1022    50.1092   729.1934 </r>
       <r>    -1.9683    33.9540   733.7422 </r>
       <r>    -1.8343    48.2597   740.2076 </r>
       <r>    -1.7003    65.6894   749.0080 </r>
       <r>    -1.5664    67.0933   757.9965 </r>
       <r>    -1.4324    57.5215   765.7027 </r>
       <r>    -1.2984    63.8046   774.2506 </r>
       <r>    -1.1644    60.1432   782.3080 </r>
       <r>    -1.0305    49.9198   788.9957 </r>
       <r>    -0.8965    60.1454   797.0534 </r>
       <r>    -0.7625    68.5987   806.2436 </r>
       <r>    -0.6286    71.3152   815.7977 </r>
       <r>    -0.4946    71.8056   825.4175 </r>
       <r>    -0.3606    65.2987   834.1656 </r>
       <r>    -0.2267    63.2209   842.6353 </r>
       <r>    -0.0927    69.9500   852.0065 </r>
       <r>     0.0413    75.3351   862.0992 </r>
       <r>     0.1753    76.8409   872.3936 </r>
       <r>     0.3092    79.9164   883.1000 </r>
       <r>     0.4432    65.0720   891.8177 </r>
       <r>     0.5772    77.3535   902.1808 </r>
       <r>     0.7111    95.5435   914.9807 </r>
       <r>     0.8451    85.9281   926.4925 </r>
       <r>     0.9791    92.8388   938.9302 </r>
       <r>     1.1131    85.3275   950.3615 </r>
       <r>     1.2470   119.9036   966.4250 </r>
       <r>     1.3810   117.4062   982.1540 </r>
       <r>     1.5150   114.4790   997.4907 </r>
       <r>     1.6489   119.8877  1013.5521 </r>
       <r>     1.7829    80.6306  1024.3542 </r>
       <r>     1.9169    39.6326  1029.6638 </r>
       <r>     2.0508    49.9742  1036.3589 </r>
       <r>     2.1848    12.2244  1037.9966 </r>
       <r>     2.3188     0.0257  1038.0000 </r>
       <r>     2.4528     0.0000  1038.0000 </r>
       <r>     2.5867     0.0000  1038.0000 </r>
       <r>     2.7207     0.0000  1038.0000 </r>
       <r>     2.8547     0.4850  1038.0650 </r>
       <r>     2.9886    11.2542  1039.5727 </r>
       <r>     3.1226     3.1892  1040.0000 </r>
       <r>     3.2566     0.0002  1040.0000 </r>
       <r>     3.3905     0.0000  1040.0000 </r>
       <r>     3.5245     0.0000  1040.0000 </r>
       <r>     3.6585     0.0000  1040.0000 </r>
       <r>     3.7925     0.0000  1040.0000 </r>
       <r>     3.9264     0.0000  1040.0000 </r>
       <r>     4.0604     0.0000  1040.0000 </r>
       <r>     4.1944     0.0000  1040.0000 </r>
       <r>     4.3283     0.0000  1040.0000 </r>
       <r>     4.4623     0.0000  1040.0000 </r>
       <r>     4.5963     0.0000  1040.0000 </r>
       <r>     4.7302     0.0000  1040.0000 </r>
       <r>     4.8642     0.0000  1040.0000 </r>
       <r>     4.9982     0.0000  1040.0000 </r>
       <r>     5.1322     0.0000  1040.0000 </r>
       <r>     5.2661     0.0000  1040.0000 </r>
       <r>     5.4001     0.0000  1040.0000 </r>
       <r>     5.5341     0.0000  1040.0000 </r>
       <r>     5.6680     0.0000  1040.0000 </r>
       <r>     5.8020     0.0000  1040.0000 </r>
       <r>     5.9360     0.0000  1040.0000 </r>
       <r>     6.0699     0.0000  1040.0000 </r>
       <r>     6.2039     0.0000  1040.0000 </r>
       <r>     6.3379     0.0000  1040.0000 </r>
       <r>     6.4719     0.0236  1040.0032 </r>
       <r>     6.6058     1.7300  1040.2349 </r>
       <r>     6.7398     0.1125  1040.2500 </r>
       <r>     6.8738     0.0000  1040.2500 </r>
       <r>     7.0077     0.0000  1040.2500 </r>
       <r>     7.1417     0.7968  1040.3568 </r>
       <r>     7.2757     3.2683  1040.7946 </r>
       <r>     7.4096     2.6071  1041.1439 </r>
       <r>     7.5436     1.4202  1041.3341 </r>
       <r>     7.6776     1.6615  1041.5567 </r>
       <r>     7.8116     3.9364  1042.0841 </r>
       <r>     7.9455     6.2043  1042.9153 </r>
       <r>     8.0795     0.8900  1043.0345 </r>
       <r>     8.2135     4.8521  1043.6846 </r>
       <r>     8.3474     5.6474  1044.4411 </r>
       <r>     8.4814     7.3970  1045.4321 </r>
       <r>     8.6154     3.3117  1045.8758 </r>
       <r>     8.7494     6.5270  1046.7502 </r>
       <r>     8.8833     3.6153  1047.2345 </r>
       <r>     9.0173     5.5190  1047.9739 </r>
       <r>     9.1513    11.7648  1049.5501 </r>
       <r>     9.2852     5.5288  1050.2908 </r>
       <r>     9.4192    14.3526  1052.2136 </r>
       <r>     9.5532    12.6277  1053.9053 </r>
       <r>     9.6871     9.7096  1055.2061 </r>
       <r>     9.8211     7.1006  1056.1574 </r>
       <r>     9.9551    18.9442  1058.6953 </r>
       <r>    10.0891    11.0792  1060.1796 </r>
       <r>    10.2230    23.5497  1063.3346 </r>
       <r>    10.3570    26.9348  1066.9430 </r>
       <r>    10.4910    24.8580  1070.2733 </r>
       <r>    10.6249    38.5155  1075.4332 </r>
       <r>    10.7589    39.1146  1080.6734 </r>
       <r>    10.8929    37.1891  1085.6556 </r>
       <r>    11.0268    27.4832  1089.3376 </r>
       <r>    11.1608    35.2460  1094.0595 </r>
       <r>    11.2948    26.3230  1097.5860 </r>
       <r>    11.4288    21.3162  1100.4417 </r>
       <r>    11.5627    39.2555  1105.7008 </r>
       <r>    11.6967    34.8997  1110.3763 </r>
       <r>    11.8307    35.4611  1115.1270 </r>
       <r>    11.9646    32.9496  1119.5413 </r>
       <r>    12.0986    32.0977  1123.8414 </r>
       <r>    12.2326    36.8208  1128.7743 </r>
       <r>    12.3665    44.9019  1134.7898 </r>
       <r>    12.5005    48.5419  1141.2930 </r>
       <r>    12.6345    22.0850  1144.2517 </r>
       <r>    12.7685    26.4867  1147.8001 </r>
       <r>    12.9024    29.9916  1151.8181 </r>
       <r>    13.0364    27.2347  1155.4668 </r>
       <r>    13.1704    36.3530  1160.3370 </r>
       <r>    13.3043    38.2942  1165.4673 </r>
       <r>    13.4383    30.5454  1169.5594 </r>
       <r>    13.5723    33.2289  1174.0111 </r>
       <r>    13.7062    40.5847  1179.4482 </r>
       <r>    13.8402    29.9816  1183.4649 </r>
       <r>    13.9742    32.4096  1187.8068 </r>
       <r>    14.1082    35.2296  1192.5265 </r>
       <r>    14.2421    30.0362  1196.5505 </r>
       <r>    14.3761    28.6213  1200.3849 </r>
       <r>    14.5101    32.8215  1204.7820 </r>
       <r>    14.6440    30.8567  1208.9158 </r>
       <r>    14.7780    25.7834  1212.3701 </r>
       <r>    14.9120    29.2026  1216.2823 </r>
       <r>    15.0460    22.7290  1219.3273 </r>
       <r>    15.1799    23.7222  1222.5054 </r>
       <r>    15.3139    23.3855  1225.6384 </r>
       <r>    15.4479    20.7628  1228.4200 </r>
       <r>    15.5818    23.5290  1231.5722 </r>
       <r>    15.7158    22.8350  1234.6314 </r>
       <r>    15.8498    17.4443  1236.9684 </r>
       <r>    15.9837    20.1352  1239.6659 </r>
       <r>    16.1177    22.1977  1242.6397 </r>
       <r>    16.2517    14.5694  1244.5916 </r>
       <r>    16.3857    13.4159  1246.3889 </r>
       <r>    16.5196    14.1025  1248.2782 </r>
       <r>    16.6536     7.6371  1249.3014 </r>
       <r>    16.7876     5.1856  1249.9961 </r>
       <r>    16.9215     0.0291  1250.0000 </r>
       <r>    17.0555     0.0000  1250.0000 </r>
       <r>    17.1895     0.0000  1250.0000 </r>
       <r>    17.3234     0.0000  1250.0000 </r>
       <r>    17.4574     0.0000  1250.0000 </r>
       <r>    17.5914     0.0000  1250.0000 </r>
       <r>    17.7254     0.0000  1250.0000 </r>
       <r>    17.8593     0.0000  1250.0000 </r>
       <r>    17.9933     0.0000  1250.0000 </r>
       <r>    18.1273     0.0000  1250.0000 </r>
       <r>    18.2612     0.0000  1250.0000 </r>
       <r>    18.3952     0.0000  1250.0000 </r>
       <r>    18.5292     0.0000  1250.0000 </r>
      </set>
     </set>
    </array>
   </total>
  </dos>
 </calculation>
 <structure name="finalpos" >
  <crystal>
   <varray name="basis" >
    <v>       0.00000000      12.28047342       0.00000000 </v>
    <v>       9.14270205       0.00000000       0.00000000 </v>
    <v>       0.00000000      -2.76826177     -11.30069772 </v>
   </varray>
   <i name="volume">   1268.80515525 </i>
   <varray name="rec_basis" >
    <v>       0.00000000       0.08143009      -0.01994742 </v>
    <v>       0.10937686      -0.00000000       0.00000000 </v>
    <v>       0.00000000       0.00000000      -0.08849011 </v>
   </varray>
  </crystal>
  <varray name="positions" >
   <v>       0.65846082       0.00000000       0.15461602 </v>
   <v>       0.66029752       0.00000000       0.65615530 </v>
   <v>       0.65946433       0.33307416       0.15616046 </v>
   <v>       0.65993398       0.33363955       0.65606495 </v>
   <v>       0.65946433       0.66692584       0.15616046 </v>
   <v>       0.65993398       0.66636045       0.65606495 </v>
   <v>       0.83964929       0.16362000       0.34181416 </v>
   <v>       0.84075032       0.16642003       0.84305674 </v>
   <v>       0.84379971       0.50000000       0.34236011 </v>
   <v>       0.83959675       0.50000000       0.84349243 </v>
   <v>       0.83964929       0.83638000       0.34181416 </v>
   <v>       0.84075032       0.83357997       0.84305674 </v>
   <v>       0.59362761       0.16837644       0.39798480 </v>
   <v>       0.59153490       0.16657127       0.89682040 </v>
   <v>       0.59078217       0.50000000       0.39645497 </v>
   <v>       0.59050786       0.50000000       0.89727897 </v>
   <v>       0.59362761       0.83162356       0.39798480 </v>
   <v>       0.59153490       0.83342873       0.89682040 </v>
   <v>       0.91166752       0.00000000       0.10247680 </v>
   <v>       0.90882370       0.00000000       0.60234650 </v>
   <v>       0.91016685       0.33293943       0.10148241 </v>
   <v>       0.90941684       0.33371782       0.60337918 </v>
   <v>       0.91016685       0.66706057       0.10148241 </v>
   <v>       0.90941684       0.66628218       0.60337918 </v>
   <v>       0.15931511       0.17656684       0.14541745 </v>
   <v>       0.15753832       0.16982711       0.65710531 </v>
   <v>       0.15965724       0.50000000       0.15492154 </v>
   <v>       0.15958582       0.50000000       0.65351632 </v>
   <v>       0.15931511       0.82343316       0.14541745 </v>
   <v>       0.15753832       0.83017289       0.65710531 </v>
   <v>       0.34970257       0.00000000       0.34609192 </v>
   <v>       0.34120577       0.00000000       0.84094744 </v>
   <v>       0.34068425       0.33353393       0.34344969 </v>
   <v>       0.34091788       0.33354588       0.84264248 </v>
   <v>       0.34068425       0.66646607       0.34344969 </v>
   <v>       0.34091788       0.66645412       0.84264248 </v>
   <v>       0.09161048       0.00000000       0.89513491 </v>
   <v>       0.09276228       0.32961358       0.39544225 </v>
   <v>       0.08975053       0.33484747       0.89291848 </v>
   <v>       0.09276228       0.67038642       0.39544225 </v>
   <v>       0.08975053       0.66515253       0.89291848 </v>
   <v>       0.40787333       0.16601613       0.10082219 </v>
   <v>       0.40994695       0.16673432       0.60155894 </v>
   <v>       0.40871397       0.50000000       0.10134661 </v>
   <v>       0.40928443       0.50000000       0.60141555 </v>
   <v>       0.40787333       0.83398387       0.10082219 </v>
   <v>       0.40994695       0.83326568       0.60155894 </v>
   <v>       0.00058723       0.16634898       0.13379604 </v>
   <v>       0.99663990       0.16643614       0.62776579 </v>
   <v>       0.99793186       0.50000000       0.12511680 </v>
   <v>       0.99753395       0.50000000       0.62654833 </v>
   <v>       0.00058723       0.83365102       0.13379604 </v>
   <v>       0.99663990       0.83356386       0.62776579 </v>
   <v>       0.50779392       0.00000000       0.37281522 </v>
   <v>       0.50331181       0.00000000       0.87160299 </v>
   <v>       0.50278581       0.33267334       0.37168419 </v>
   <v>       0.50298746       0.33266757       0.87156524 </v>
   <v>       0.50278581       0.66732666       0.37168419 </v>
   <v>       0.50298746       0.66733243       0.87156524 </v>
   <v>       0.67325048       0.16699435       0.27939555 </v>
   <v>       0.67275415       0.16631663       0.77959255 </v>
   <v>       0.67533581       0.50000000       0.28093858 </v>
   <v>       0.67196770       0.50000000       0.77962080 </v>
   <v>       0.67325048       0.83300565       0.27939555 </v>
   <v>       0.67275415       0.83368337       0.77959255 </v>
   <v>       0.82962802       0.00000000       0.22010346 </v>
   <v>       0.82861922       0.00000000       0.72028551 </v>
   <v>       0.83152437       0.32992138       0.22095393 </v>
   <v>       0.82803429       0.33334957       0.71999309 </v>
   <v>       0.83152437       0.67007862       0.22095393 </v>
   <v>       0.82803429       0.66665043       0.71999309 </v>
   <v>       0.83211122       0.00000000       0.44538732 </v>
   <v>       0.83403887       0.00000000       0.94679981 </v>
   <v>       0.84122912       0.33034416       0.44403018 </v>
   <v>       0.83221284       0.33247009       0.94595954 </v>
   <v>       0.84122912       0.66965584       0.44403018 </v>
   <v>       0.83221284       0.66752991       0.94595954 </v>
   <v>       0.66837777       0.16668570       0.05372691 </v>
   <v>       0.67084797       0.16729554       0.55404490 </v>
   <v>       0.66864536       0.50000000       0.05439456 </v>
   <v>       0.67045064       0.50000000       0.55264334 </v>
   <v>       0.66837777       0.83331430       0.05372691 </v>
   <v>       0.67084797       0.83270446       0.55404490 </v>
   <v>       0.49594898       0.00000000       0.12732167 </v>
   <v>       0.49733575       0.00000000       0.62477815 </v>
   <v>       0.49581379       0.33246124       0.12778530 </v>
   <v>       0.49691830       0.33333039       0.62510121 </v>
   <v>       0.49581379       0.66753876       0.12778530 </v>
   <v>       0.49691830       0.66666961       0.62510121 </v>
   <v>       0.01722956       0.14140331       0.38008750 </v>
   <v>       0.00444463       0.16677599       0.87513563 </v>
   <v>       0.00706610       0.50000000       0.36986372 </v>
   <v>       0.00184452       0.50000000       0.87084106 </v>
   <v>       0.01722956       0.85859669       0.38008750 </v>
   <v>       0.00444463       0.83322401       0.87513563 </v>
   <v>       0.17063283       0.00000000       0.77426913 </v>
   <v>       0.17198423       0.33025158       0.27706742 </v>
   <v>       0.17269209       0.33413328       0.77796390 </v>
   <v>       0.17198423       0.66974842       0.27706742 </v>
   <v>       0.17269209       0.66586672       0.77796390 </v>
   <v>       0.32245770       0.15941753       0.21926304 </v>
   <v>       0.32487315       0.16418012       0.71550848 </v>
   <v>       0.32687002       0.50000000       0.21933415 </v>
   <v>       0.32694105       0.50000000       0.71765553 </v>
   <v>       0.32245770       0.84058247       0.21926304 </v>
   <v>       0.32487315       0.83581988       0.71550848 </v>
   <v>       0.33060436       0.16457551       0.44417518 </v>
   <v>       0.32953557       0.16555766       0.94380065 </v>
   <v>       0.32936928       0.50000000       0.44504986 </v>
   <v>       0.33272197       0.50000000       0.94433076 </v>
   <v>       0.33060436       0.83542449       0.44417518 </v>
   <v>       0.32953557       0.83444234       0.94380065 </v>
   <v>       0.16483712       0.00000000       0.05699993 </v>
   <v>       0.15408217       0.00000000       0.53973530 </v>
   <v>       0.17100137       0.33827889       0.04872146 </v>
   <v>       0.16678836       0.33140731       0.55182887 </v>
   <v>       0.17100137       0.66172111       0.04872146 </v>
   <v>       0.16678836       0.66859269       0.55182887 </v>
   <v>       0.10299654       0.00000000       0.39748272 </v>
  </varray>
 </structure>
</modeling>
