 running    4 mpi-ranks, on    1 nodes
 distrk:  each k-point on    1 cores,    4 groups
 distr:  one band on    1 cores,    1 groups
 OpenACC runtime initialized ...    4 GPUs detected
 vasp.6.4.2 20Jul23 (build Nov 12 2023 22:16:35) complex                         
 POSCAR found type information on POSCAR GaO P 
 POSCAR found :  3 types and     120 ions
 scaLAPACK will be used selectively (only on CPU)
 LDA part: xc-table for Pade appr. of Perdew
 POSCAR, INCAR and KPOINTS ok, starting setup
 FFT: planning ... GRIDC
 FFT: planning ... GRID_SOFT
 FFT: planning ... GRID
 WAVECAR not read
 initial charge from wavefunction
 entering main loop
       N       E                     dE             d eps       ncg     rms          ort
DAV:   1    -0.218026545166E+05   -0.21803E+05   -0.54627E+05  5064   0.751E+03
DAV:   2    -0.663910776344E+05   -0.44588E+05   -0.43100E+05  5064   0.124E+03
DAV:   3    -0.714259864970E+05   -0.50349E+04   -0.44917E+04  5064   0.370E+02
DAV:   4    -0.721457851318E+05   -0.71980E+03   -0.64124E+03  5064   0.116E+02
DAV:   5    -0.391031728321E+05    0.33043E+05   -0.74959E+02  5064   0.596E+01
 gam= 0.000 g(H,U,f)=  0.836E+05 0.179E+05 0.597E+04 ort(H,U,f) = 0.000E+00 0.000E+00 0.000E+00
SDA:   6     0.344930781049E+05    0.73596E+05   -0.74959E+02  5064   0.107E+06 0.000E+00
 gam= 0.000 trial= 0.400  step= 0.495 mean= 0.400
 gam= 0.841 g(H,U,f)=  0.483E+05 0.397E+05 0.243E+04 ort(H,U,f) =-0.117E+05-0.224E+05-0.142E+04
CGA:   7     0.117607331360E+05   -0.22732E+05   -0.26581E+05  5064   0.904E+05-0.356E+05
 gam= 0.841 trial= 0.405  step= 0.238 mean= 0.405
 gam= 0.340 g(H,U,f)=  0.237E+05 0.695E+04 0.526E+02 ort(H,U,f) = 0.601E+04 0.431E+04 0.646E+02
CGA:   8     0.757023889194E+04   -0.41905E+04   -0.71926E+04  5064   0.307E+05 0.104E+05
 gam= 0.340 trial= 0.396  step= 0.176 mean= 0.396
 gam= 0.556 g(H,U,f)=  0.148E+05 0.223E+04 0.412E+02 ort(H,U,f) = 0.327E+04-0.409E+03-0.116E+03
CGA:   9     0.445465939430E+04   -0.31156E+04   -0.30240E+04  5064   0.171E+05 0.275E+04
 gam= 0.556 trial= 0.385  step= 0.238 mean= 0.385
 gam= 0.800 g(H,U,f)=  0.100E+05 0.358E+04 0.514E+02 ort(H,U,f) = 0.328E+04-0.192E+04-0.726E+02
CGA:  10     0.272256880448E+04   -0.17321E+04   -0.22187E+04  5064   0.137E+05 0.129E+04
 gam= 0.800 trial= 0.378  step= 0.240 mean= 0.378
 gam= 0.368 g(H,U,f)=  0.449E+04 0.527E+03 0.913E+01 ort(H,U,f) = 0.210E+03 0.593E+03-0.120E+02
CGA:  11     0.131283938843E+04   -0.14097E+04   -0.17631E+04  5064   0.503E+04 0.791E+03
 gam= 0.368 trial= 0.371  step= 0.373 mean= 0.371
 gam= 0.444 g(H,U,f)=  0.190E+04 0.330E+03 0.448E+01 ort(H,U,f) = 0.439E+03 0.199E+03 0.869E+01
CGA:  12     0.318502082775E+03   -0.99434E+03   -0.99280E+03  5064   0.223E+04 0.647E+03
 gam= 0.444 trial= 0.371  step= 0.452 mean= 0.371
 gam= 0.510 g(H,U,f)=  0.101E+04 0.123E+03 0.270E+01 ort(H,U,f) =-0.180E+02 0.221E+03-0.137E+01
CGA:  13    -0.265271625583E+03   -0.58377E+03   -0.56873E+03  5064   0.114E+04 0.202E+03
 gam= 0.510 trial= 0.375  step= 0.574 mean= 0.375
 gam= 0.620 g(H,U,f)=  0.596E+03 0.107E+03 0.225E+01 ort(H,U,f) =-0.215E+03 0.157E+03-0.394E+01
CGA:  14    -0.615987462223E+03   -0.35072E+03   -0.35593E+03  5064   0.705E+03-0.625E+02
 gam= 0.620 trial= 0.385  step= 0.499 mean= 0.385
 gam= 0.602 g(H,U,f)=  0.374E+03 0.497E+02 0.107E+01 ort(H,U,f) =-0.851E+02-0.105E+01 0.364E+01
CGA:  15    -0.776163198362E+03   -0.16018E+03   -0.16644E+03  5064   0.425E+03-0.825E+02
 gam= 0.602 trial= 0.391  step= 0.368 mean= 0.391
 gam= 0.594 g(H,U,f)=  0.193E+03 0.585E+02 0.379E+00 ort(H,U,f) = 0.524E+02-0.619E+02 0.261E+00
CGA:  16    -0.845343040890E+03   -0.69180E+02   -0.69029E+02  5064   0.252E+03-0.925E+01
 gam= 0.594 trial= 0.390  step= 0.365 mean= 0.390
 gam= 0.588 g(H,U,f)=  0.104E+03 0.436E+02 0.180E+00 ort(H,U,f) = 0.130E+02-0.141E+02 0.338E+00
CGA:  17    -0.890365811323E+03   -0.45023E+02   -0.45029E+02  5064   0.148E+03-0.774E+00
 gam= 0.588 trial= 0.389  step= 0.405 mean= 0.389
 gam= 0.654 g(H,U,f)=  0.727E+02 0.242E+02 0.335E-01 ort(H,U,f) =-0.986E+01 0.124E+02 0.514E-01
CGA:  18    -0.920300376316E+03   -0.29935E+02   -0.29904E+02  5064   0.969E+02 0.258E+01
 gam= 0.654 trial= 0.389  step= 0.442 mean= 0.389
 gam= 0.637 g(H,U,f)=  0.474E+02 0.143E+02 0.518E-03 ort(H,U,f) =-0.163E+02 0.162E+02-0.116E-01
CGA:  19    -0.942069026216E+03   -0.21769E+02   -0.21798E+02  5064   0.617E+02-0.449E-01
 gam= 0.637 trial= 0.392  step= 0.444 mean= 0.392
 gam= 0.662 g(H,U,f)=  0.325E+02 0.836E+01 0.125E-02 ort(H,U,f) =-0.105E+02 0.123E+02-0.274E-01
CGA:  20    -0.955809640703E+03   -0.13741E+02   -0.13683E+02  5064   0.409E+02 0.178E+01
 gam= 0.662 trial= 0.395  step= 0.456 mean= 0.395
 gam= 0.617 g(H,U,f)=  0.204E+02 0.475E+01 0.366E-01 ort(H,U,f) =-0.612E+01 0.666E+01-0.196E+00
CGA:  21    -0.965393046412E+03   -0.95834E+01   -0.95790E+01  5064   0.252E+02 0.350E+00
 gam= 0.617 trial= 0.398  step= 0.445 mean= 0.398
 gam= 0.586 g(H,U,f)=  0.119E+02 0.286E+01 0.131E-01 ort(H,U,f) =-0.200E+01 0.251E+01-0.332E-01
CGA:  22    -0.971066479309E+03   -0.56734E+01   -0.56612E+01  5064   0.148E+02 0.483E+00
 gam= 0.586 trial= 0.400  step= 0.459 mean= 0.400
 gam= 0.582 g(H,U,f)=  0.683E+01 0.175E+01 0.787E-02 ort(H,U,f) =-0.495E+00 0.818E+00-0.312E-02
CGA:  23    -0.974533644382E+03   -0.34672E+01   -0.34559E+01  5064   0.859E+01 0.319E+00
 gam= 0.582 trial= 0.403  step= 0.469 mean= 0.403
 gam= 0.617 g(H,U,f)=  0.416E+01 0.113E+01 0.661E-02 ort(H,U,f) =-0.251E+00 0.400E+00 0.480E-02
CGA:  24    -0.976595803615E+03   -0.20622E+01   -0.20557E+01  5064   0.530E+01 0.154E+00
 gam= 0.617 trial= 0.406  step= 0.467 mean= 0.406
 gam= 0.680 g(H,U,f)=  0.286E+01 0.743E+00 0.418E-02 ort(H,U,f) =-0.332E+00 0.378E+00 0.392E-02
CGA:  25    -0.977856190614E+03   -0.12604E+01   -0.12584E+01  5064   0.360E+01 0.502E-01
 gam= 0.680 trial= 0.409  step= 0.441 mean= 0.409
 gam= 0.603 g(H,U,f)=  0.168E+01 0.490E+00 0.431E-02 ort(H,U,f) =-0.365E+00 0.377E+00-0.135E-02
CGA:  26    -0.978658277890E+03   -0.80209E+00   -0.80193E+00  5064   0.217E+01 0.111E-01
 gam= 0.603 trial= 0.411  step= 0.441 mean= 0.411
 gam= 0.602 g(H,U,f)=  0.997E+00 0.307E+00 0.434E-02 ort(H,U,f) =-0.340E+00 0.334E+00 0.473E-02
CGA:  27    -0.979138806149E+03   -0.48053E+00   -0.48062E+00  5064   0.131E+01-0.806E-03
 gam= 0.602 trial= 0.412  step= 0.497 mean= 0.412
 gam= 0.650 g(H,U,f)=  0.681E+00 0.165E+00 0.530E-02 ort(H,U,f) =-0.212E+00 0.203E+00 0.859E-02
CGA:  28    -0.979463732051E+03   -0.32493E+00   -0.32503E+00  5064   0.851E+00-0.530E-03
 gam= 0.650 trial= 0.417  step= 0.512 mean= 0.417
 gam= 0.592 g(H,U,f)=  0.404E+00 0.941E-01 0.529E-02 ort(H,U,f) =-0.812E-01 0.720E-01 0.104E-01
CGA:  29    -0.979681532868E+03   -0.21780E+00   -0.21776E+00  5064   0.503E+00 0.123E-02
 gam= 0.592 trial= 0.421  step= 0.513 mean= 0.421
 gam= 0.643 g(H,U,f)=  0.252E+00 0.679E-01 0.354E-02 ort(H,U,f) =-0.312E-01 0.235E-01 0.865E-02
CGA:  30    -0.979810854763E+03   -0.12932E+00   -0.12928E+00  5064   0.324E+00 0.981E-03
 gam= 0.643 trial= 0.426  step= 0.510 mean= 0.426
 gam= 0.736 g(H,U,f)=  0.185E+00 0.516E-01 0.165E-02 ort(H,U,f) =-0.232E-01 0.182E-01 0.544E-02
CGA:  31    -0.979893624006E+03   -0.82769E-01   -0.82750E-01  5064   0.238E+00 0.505E-03
 gam= 0.736 trial= 0.430  step= 0.470 mean= 0.430
 gam= 0.659 g(H,U,f)=  0.118E+00 0.379E-01 0.730E-03 ort(H,U,f) =-0.207E-01 0.180E-01 0.294E-02
CGA:  32    -0.979949653763E+03   -0.56030E-01   -0.56026E-01  5064   0.157E+00 0.234E-03
 gam= 0.659 trial= 0.432  step= 0.432 mean= 0.432
 gam= 0.612 g(H,U,f)=  0.681E-01 0.275E-01 0.499E-03 ort(H,U,f) =-0.221E-01 0.206E-01 0.162E-02
CGA:  33    -0.979983606468E+03   -0.33953E-01   -0.33953E-01  5064   0.962E-01 0.112E-03
 gam= 0.612 trial= 0.432  step= 0.512 mean= 0.432
 gam= 0.731 g(H,U,f)=  0.520E-01 0.179E-01 0.372E-03 ort(H,U,f) =-0.190E-01 0.182E-01 0.979E-03
CGA:  34    -0.980008225011E+03   -0.24619E-01   -0.24611E-01  5064   0.703E-01 0.194E-03
 gam= 0.731 trial= 0.436  step= 0.529 mean= 0.436
 gam= 0.646 g(H,U,f)=  0.354E-01 0.987E-02 0.192E-03 ort(H,U,f) =-0.118E-01 0.115E-01 0.599E-03
CGA:  35    -0.980026895014E+03   -0.18670E-01   -0.18655E-01  5064   0.455E-01 0.293E-03
 gam= 0.646 trial= 0.441  step= 0.520 mean= 0.441
 gam= 0.666 g(H,U,f)=  0.247E-01 0.549E-02 0.643E-04 ort(H,U,f) =-0.462E-02 0.456E-02 0.245E-03
CGA:  36    -0.980038765129E+03   -0.11870E-01   -0.11862E-01  5064   0.303E-01 0.186E-03
 gam= 0.666 trial= 0.445  step= 0.520 mean= 0.445
 gam= 0.000 g(H,U,f)=  0.184E-01 0.399E-02 0.169E-04 ort(H,U,f) =-0.110E-02 0.107E-02 0.653E-04
SDA:  37    -0.980046683140E+03   -0.79180E-02   -0.79161E-02  5064   0.224E-01 0.408E-04
 gam= 0.000 trial= 0.449  step= 0.843 mean= 0.449
 gam= 0.387 g(H,U,f)=  0.658E-02 0.206E-02 0.155E-04 ort(H,U,f) =-0.257E-02 0.246E-02 0.139E-04
CGA:  38    -0.980056092910E+03   -0.94098E-02   -0.94282E-02  5064   0.866E-02-0.933E-04
 gam= 0.387 trial= 0.468  step= 0.844 mean= 0.468
 gam= 0.383 g(H,U,f)=  0.271E-02 0.601E-03 0.698E-05 ort(H,U,f) =-0.160E-02 0.157E-02 0.126E-04
CGA:  39    -0.980059727672E+03   -0.36348E-02   -0.36381E-02  5064   0.332E-02-0.173E-04
 gam= 0.383 trial= 0.487  step= 0.695 mean= 0.487
 gam= 0.414 g(H,U,f)=  0.118E-02 0.188E-03 0.379E-05 ort(H,U,f) =-0.557E-03 0.550E-03 0.801E-05
CGA:  40    -0.980060878563E+03   -0.11509E-02   -0.11509E-02  5064   0.137E-02 0.690E-06
 gam= 0.414 trial= 0.497  step= 0.687 mean= 0.497
 gam= 0.493 g(H,U,f)=  0.573E-03 0.101E-03 0.337E-05 ort(H,U,f) =-0.215E-03 0.204E-03 0.624E-05
CGA:  41    -0.980061349846E+03   -0.47128E-03   -0.47177E-03  5064   0.677E-03-0.494E-05
 gam= 0.493 trial= 0.507  step= 0.697 mean= 0.507
 gam= 0.411 g(H,U,f)=  0.204E-03 0.709E-04 0.316E-05 ort(H,U,f) =-0.131E-03 0.115E-03 0.602E-05
CGA:  42    -0.980061584147E+03   -0.23430E-03   -0.23524E-03  5064   0.278E-03-0.979E-05
 gam= 0.411 trial= 0.516  step= 0.885 mean= 0.516
 gam= 0.824 g(H,U,f)=  0.178E-03 0.497E-04 0.182E-05 ort(H,U,f) =-0.886E-04 0.828E-04 0.416E-05
CGA:  43    -0.980061705136E+03   -0.12099E-03   -0.12129E-03  5064   0.229E-03-0.162E-05
 gam= 0.824 trial= 0.535  step= 0.859 mean= 0.535
 gam= 0.636 g(H,U,f)=  0.121E-03 0.243E-04 0.579E-06 ort(H,U,f) =-0.723E-04 0.725E-04 0.287E-05
CGA:  44    -0.980061803441E+03   -0.98306E-04   -0.97819E-04  5064   0.146E-03 0.298E-05
 gam= 0.636 trial= 0.551  step= 0.834 mean= 0.551
 gam= 0.588 g(H,U,f)=  0.774E-04 0.816E-05 0.152E-06 ort(H,U,f) =-0.380E-04 0.373E-04 0.121E-05
CGA:  45    -0.980061865090E+03   -0.61649E-04   -0.61579E-04  5064   0.857E-04 0.492E-06
 gam= 0.588 trial= 0.565  step= 0.824 mean= 0.565
 gam= 0.523 g(H,U,f)=  0.428E-04 0.208E-05 0.298E-07 ort(H,U,f) =-0.130E-04 0.113E-04 0.375E-06
CGA:  46    -0.980061900365E+03   -0.35274E-04   -0.35452E-04  5064   0.449E-04-0.137E-05
 gam= 0.523 trial= 0.578  step= 0.556 mean= 0.578
 gam= 0.390 g(H,U,f)=  0.167E-04 0.791E-06 0.384E-08 ort(H,U,f) =-0.282E-05 0.283E-05 0.736E-07
CGA:  47    -0.980061912639E+03   -0.12274E-04   -0.12275E-04  5064   0.175E-04 0.824E-07
 gam= 0.390 trial= 0.577  step= 0.565 mean= 0.577
 gam= 0.334 g(H,U,f)=  0.547E-05 0.373E-06 0.738E-09 ort(H,U,f) = 0.236E-06 0.565E-06-0.460E-08
CGA:  48    -0.980061917594E+03   -0.49555E-05   -0.49603E-05  5064   0.585E-05 0.796E-06
 gam= 0.334 trial= 0.576  step= 0.615 mean= 0.576
 final diagonalization
   1 F= -.98006192E+03 E0= -.98006056E+03  d E =-.271217E-02
 writing wavefunctions
Warning: ieee_invalid is signaling
Warning: ieee_divide_by_zero is signaling
Warning: ieee_underflow is signaling
Warning: ieee_inexact is signaling
FORTRAN STOP
Warning: ieee_invalid is signaling
Warning: ieee_divide_by_zero is signaling
Warning: ieee_underflow is signaling
Warning: ieee_inexact is signaling
FORTRAN STOP
Warning: ieee_invalid is signaling
Warning: ieee_divide_by_zero is signaling
Warning: ieee_underflow is signaling
Warning: ieee_inexact is signaling
FORTRAN STOP
Warning: ieee_invalid is signaling
Warning: ieee_divide_by_zero is signaling
Warning: ieee_underflow is signaling
Warning: ieee_inexact is signaling
FORTRAN STOP
