       N       E                     dE             d eps       ncg     rms          ort
DAV:   1    -0.218026545166E+05   -0.21803E+05   -0.54627E+05  5064   0.751E+03
DAV:   2    -0.663910776344E+05   -0.44588E+05   -0.43100E+05  5064   0.124E+03
DAV:   3    -0.714259864970E+05   -0.50349E+04   -0.44917E+04  5064   0.370E+02
DAV:   4    -0.721457851318E+05   -0.71980E+03   -0.64124E+03  5064   0.116E+02
DAV:   5    -0.391031728321E+05    0.33043E+05   -0.74959E+02  5064   0.596E+01
SDA:   6     0.344930781049E+05    0.73596E+05   -0.74959E+02  5064   0.107E+06 0.000E+00
CGA:   7     0.117607331360E+05   -0.22732E+05   -0.26581E+05  5064   0.904E+05-0.356E+05
CGA:   8     0.757023889194E+04   -0.41905E+04   -0.71926E+04  5064   0.307E+05 0.104E+05
CGA:   9     0.445465939430E+04   -0.31156E+04   -0.30240E+04  5064   0.171E+05 0.275E+04
CGA:  10     0.272256880448E+04   -0.17321E+04   -0.22187E+04  5064   0.137E+05 0.129E+04
CGA:  11     0.131283938843E+04   -0.14097E+04   -0.17631E+04  5064   0.503E+04 0.791E+03
CGA:  12     0.318502082775E+03   -0.99434E+03   -0.99280E+03  5064   0.223E+04 0.647E+03
CGA:  13    -0.265271625583E+03   -0.58377E+03   -0.56873E+03  5064   0.114E+04 0.202E+03
CGA:  14    -0.615987462223E+03   -0.35072E+03   -0.35593E+03  5064   0.705E+03-0.625E+02
CGA:  15    -0.776163198362E+03   -0.16018E+03   -0.16644E+03  5064   0.425E+03-0.825E+02
CGA:  16    -0.845343040890E+03   -0.69180E+02   -0.69029E+02  5064   0.252E+03-0.925E+01
CGA:  17    -0.890365811323E+03   -0.45023E+02   -0.45029E+02  5064   0.148E+03-0.774E+00
CGA:  18    -0.920300376316E+03   -0.29935E+02   -0.29904E+02  5064   0.969E+02 0.258E+01
CGA:  19    -0.942069026216E+03   -0.21769E+02   -0.21798E+02  5064   0.617E+02-0.449E-01
CGA:  20    -0.955809640703E+03   -0.13741E+02   -0.13683E+02  5064   0.409E+02 0.178E+01
CGA:  21    -0.965393046412E+03   -0.95834E+01   -0.95790E+01  5064   0.252E+02 0.350E+00
CGA:  22    -0.971066479309E+03   -0.56734E+01   -0.56612E+01  5064   0.148E+02 0.483E+00
CGA:  23    -0.974533644382E+03   -0.34672E+01   -0.34559E+01  5064   0.859E+01 0.319E+00
CGA:  24    -0.976595803615E+03   -0.20622E+01   -0.20557E+01  5064   0.530E+01 0.154E+00
CGA:  25    -0.977856190614E+03   -0.12604E+01   -0.12584E+01  5064   0.360E+01 0.502E-01
CGA:  26    -0.978658277890E+03   -0.80209E+00   -0.80193E+00  5064   0.217E+01 0.111E-01
CGA:  27    -0.979138806149E+03   -0.48053E+00   -0.48062E+00  5064   0.131E+01-0.806E-03
CGA:  28    -0.979463732051E+03   -0.32493E+00   -0.32503E+00  5064   0.851E+00-0.530E-03
CGA:  29    -0.979681532868E+03   -0.21780E+00   -0.21776E+00  5064   0.503E+00 0.123E-02
CGA:  30    -0.979810854763E+03   -0.12932E+00   -0.12928E+00  5064   0.324E+00 0.981E-03
CGA:  31    -0.979893624006E+03   -0.82769E-01   -0.82750E-01  5064   0.238E+00 0.505E-03
CGA:  32    -0.979949653763E+03   -0.56030E-01   -0.56026E-01  5064   0.157E+00 0.234E-03
CGA:  33    -0.979983606468E+03   -0.33953E-01   -0.33953E-01  5064   0.962E-01 0.112E-03
CGA:  34    -0.980008225011E+03   -0.24619E-01   -0.24611E-01  5064   0.703E-01 0.194E-03
CGA:  35    -0.980026895014E+03   -0.18670E-01   -0.18655E-01  5064   0.455E-01 0.293E-03
CGA:  36    -0.980038765129E+03   -0.11870E-01   -0.11862E-01  5064   0.303E-01 0.186E-03
SDA:  37    -0.980046683140E+03   -0.79180E-02   -0.79161E-02  5064   0.224E-01 0.408E-04
CGA:  38    -0.980056092910E+03   -0.94098E-02   -0.94282E-02  5064   0.866E-02-0.933E-04
CGA:  39    -0.980059727672E+03   -0.36348E-02   -0.36381E-02  5064   0.332E-02-0.173E-04
CGA:  40    -0.980060878563E+03   -0.11509E-02   -0.11509E-02  5064   0.137E-02 0.690E-06
CGA:  41    -0.980061349846E+03   -0.47128E-03   -0.47177E-03  5064   0.677E-03-0.494E-05
CGA:  42    -0.980061584147E+03   -0.23430E-03   -0.23524E-03  5064   0.278E-03-0.979E-05
CGA:  43    -0.980061705136E+03   -0.12099E-03   -0.12129E-03  5064   0.229E-03-0.162E-05
CGA:  44    -0.980061803441E+03   -0.98306E-04   -0.97819E-04  5064   0.146E-03 0.298E-05
CGA:  45    -0.980061865090E+03   -0.61649E-04   -0.61579E-04  5064   0.857E-04 0.492E-06
CGA:  46    -0.980061900365E+03   -0.35274E-04   -0.35452E-04  5064   0.449E-04-0.137E-05
CGA:  47    -0.980061912639E+03   -0.12274E-04   -0.12275E-04  5064   0.175E-04 0.824E-07
CGA:  48    -0.980061917594E+03   -0.49555E-05   -0.49603E-05  5064   0.585E-05 0.796E-06
   1 F= -.98006192E+03 E0= -.98006056E+03  d E =-.271217E-02
