 running    4 mpi-ranks, on    1 nodes
 distrk:  each k-point on    1 cores,    4 groups
 distr:  one band on    1 cores,    1 groups
 OpenACC runtime initialized ...    4 GPUs detected
 vasp.6.4.2 20Jul23 (build Nov 12 2023 22:16:35) complex                         
 POSCAR found type information on POSCAR GaO P 
 POSCAR found :  3 types and     120 ions
 scaLAPACK will be used selectively (only on CPU)
 LDA part: xc-table for Pade appr. of Perdew
 POSCAR, INCAR and KPOINTS ok, starting setup
 FFT: planning ... GRIDC
 FFT: planning ... GRID_SOFT
 FFT: planning ... GRID
 WAVECAR not read
 initial charge from wavefunction
 entering main loop
       N       E                     dE             d eps       ncg     rms          ort
DAV:   1    -0.215671829500E+05   -0.21567E+05   -0.54497E+05  5064   0.749E+03
DAV:   2    -0.660451044638E+05   -0.44478E+05   -0.43091E+05  5064   0.122E+03
DAV:   3    -0.707924411453E+05   -0.47473E+04   -0.42661E+04  5064   0.363E+02
DAV:   4    -0.714037017928E+05   -0.61126E+03   -0.53631E+03  5064   0.110E+02
DAV:   5    -0.382916742102E+05    0.33112E+05   -0.79183E+02  5064   0.583E+01
 gam= 0.000 g(H,U,f)=  0.720E+05 0.251E+05 0.120E+04 ort(H,U,f) = 0.000E+00 0.000E+00 0.000E+00
SDA:   6     0.228463886020E+05    0.61138E+05   -0.79183E+02  5064   0.982E+05 0.000E+00
 gam= 0.000 trial= 0.400  step= 0.339 mean= 0.400
 gam= 0.446 g(H,U,f)=  0.176E+05 0.181E+05 0.801E+04 ort(H,U,f) = 0.282E+03-0.154E+05-0.848E+04
CGA:   7     0.508493078446E+04   -0.17761E+05   -0.16655E+05  5064   0.438E+05-0.236E+05
 gam= 0.446 trial= 0.397  step= 0.218 mean= 0.397
 gam= 0.282 g(H,U,f)=  0.718E+04 0.496E+04 0.198E+03 ort(H,U,f) = 0.959E+03 0.176E+03-0.287E+03
CGA:   8     0.218870022815E+04   -0.28962E+04   -0.36232E+04  5064   0.123E+05 0.849E+03
 gam= 0.282 trial= 0.388  step= 0.196 mean= 0.388
 gam= 0.620 g(H,U,f)=  0.522E+04 0.217E+04 0.259E+03 ort(H,U,f) = 0.725E+03-0.319E+03-0.881E+02
CGA:   9     0.117746056112E+04   -0.10112E+04   -0.12298E+04  5064   0.765E+04 0.318E+03
 gam= 0.620 trial= 0.378  step= 0.235 mean= 0.378
 gam= 0.733 g(H,U,f)=  0.304E+04 0.249E+04 0.727E+02 ort(H,U,f) = 0.184E+03 0.534E+03 0.327E+02
CGA:  10     0.474629579342E+03   -0.70283E+03   -0.92046E+03  5064   0.560E+04 0.751E+03
 gam= 0.733 trial= 0.371  step= 0.248 mean= 0.371
 gam= 0.410 g(H,U,f)=  0.198E+04 0.316E+03 0.298E+01 ort(H,U,f) = 0.562E+02 0.344E+03-0.244E+01
CGA:  11    -0.135889064510E+03   -0.61052E+03   -0.76233E+03  5064   0.230E+04 0.398E+03
 gam= 0.410 trial= 0.365  step= 0.361 mean= 0.365
 gam= 0.381 g(H,U,f)=  0.565E+03 0.295E+03 0.160E+02 ort(H,U,f) = 0.103E+03-0.641E+02-0.118E+02
CGA:  12    -0.580946209724E+03   -0.44506E+03   -0.44515E+03  5064   0.876E+03 0.272E+02
 gam= 0.381 trial= 0.365  step= 0.360 mean= 0.365
 gam= 0.386 g(H,U,f)=  0.297E+03 0.406E+02 0.640E+00 ort(H,U,f) = 0.704E+02 0.654E+02 0.245E+00
CGA:  13    -0.739755062903E+03   -0.15881E+03   -0.15953E+03  5064   0.338E+03 0.136E+03
 gam= 0.386 trial= 0.365  step= 0.628 mean= 0.365
 gam= 0.512 g(H,U,f)=  0.143E+03 0.299E+02 0.715E+00 ort(H,U,f) =-0.591E+02 0.516E+02 0.823E+00
CGA:  14    -0.861907693758E+03   -0.12215E+03   -0.12265E+03  5064   0.173E+03-0.668E+01
 gam= 0.512 trial= 0.378  step= 0.698 mean= 0.378
 gam= 0.647 g(H,U,f)=  0.991E+02 0.128E+02 0.343E+00 ort(H,U,f) =-0.451E+02 0.253E+02 0.928E+00
CGA:  15    -0.918462238586E+03   -0.56555E+02   -0.59304E+02  5064   0.112E+03-0.188E+02
 gam= 0.647 trial= 0.394  step= 0.610 mean= 0.394
 gam= 0.512 g(H,U,f)=  0.517E+02 0.578E+01 0.107E-04 ort(H,U,f) =-0.172E+02 0.250E+01 0.320E-04
CGA:  16    -0.947019489377E+03   -0.28557E+02   -0.30526E+02  5064   0.574E+02-0.147E+02
 gam= 0.512 trial= 0.405  step= 0.492 mean= 0.405
 gam= 0.525 g(H,U,f)=  0.264E+02 0.371E+01 0.551E-13 ort(H,U,f) = 0.195E+01-0.117E+01 0.420E-12
CGA:  17    -0.959381679617E+03   -0.12362E+02   -0.12285E+02  5064   0.301E+02 0.785E+00
 gam= 0.525 trial= 0.409  step= 0.539 mean= 0.409
 gam= 0.506 g(H,U,f)=  0.124E+02 0.280E+01 0.161E-15 ort(H,U,f) =-0.428E+00 0.340E+00 0.720E-16
CGA:  18    -0.967612614823E+03   -0.82309E+01   -0.82377E+01  5064   0.152E+02-0.883E-01
 gam= 0.506 trial= 0.415  step= 0.545 mean= 0.415
 gam= 0.526 g(H,U,f)=  0.651E+01 0.150E+01 0.502E-13 ort(H,U,f) =-0.148E+01 0.157E+01 0.728E-13
CGA:  19    -0.971756656705E+03   -0.41440E+01   -0.41375E+01  5064   0.801E+01 0.898E-01
 gam= 0.526 trial= 0.422  step= 0.584 mean= 0.422
 gam= 0.524 g(H,U,f)=  0.355E+01 0.644E+00 0.331E-13 ort(H,U,f) =-0.103E+01 0.109E+01 0.135E-12
CGA:  20    -0.974114001675E+03   -0.23573E+01   -0.23512E+01  5064   0.419E+01 0.653E-01
 gam= 0.524 trial= 0.430  step= 0.595 mean= 0.430
 gam= 0.515 g(H,U,f)=  0.192E+01 0.246E+00 0.257E-22 ort(H,U,f) =-0.451E+00 0.474E+00 0.113E-20
CGA:  21    -0.975375326530E+03   -0.12613E+01   -0.12590E+01  5064   0.216E+01 0.233E-01
 gam= 0.515 trial= 0.438  step= 0.578 mean= 0.438
 gam= 0.508 g(H,U,f)=  0.997E+00 0.102E+00 0.267E-15 ort(H,U,f) =-0.956E-01 0.992E-01-0.220E-14
CGA:  22    -0.976004397456E+03   -0.62907E+00   -0.62875E+00  5064   0.110E+01 0.360E-02
 gam= 0.508 trial= 0.445  step= 0.547 mean= 0.445
 gam= 0.537 g(H,U,f)=  0.517E+00 0.731E-01 0.144E-17 ort(H,U,f) =-0.949E-02 0.974E-02-0.336E-17
CGA:  23    -0.976305321355E+03   -0.30092E+00   -0.30093E+00  5064   0.590E+00 0.252E-03
 gam= 0.537 trial= 0.450  step= 0.516 mean= 0.450
 gam= 0.449 g(H,U,f)=  0.222E+00 0.429E-01 0.112E-16 ort(H,U,f) =-0.133E-01 0.131E-01 0.512E-17
CGA:  24    -0.976457644668E+03   -0.15232E+00   -0.15234E+00  5064   0.265E+00-0.228E-03
 gam= 0.449 trial= 0.454  step= 0.532 mean= 0.454
 gam= 0.509 g(H,U,f)=  0.109E+00 0.264E-01 0.399E-12 ort(H,U,f) =-0.212E-01 0.206E-01 0.100E-11
CGA:  25    -0.976528133407E+03   -0.70489E-01   -0.70513E-01  5064   0.135E+00-0.567E-03
 gam= 0.509 trial= 0.458  step= 0.616 mean= 0.458
 gam= 0.550 g(H,U,f)=  0.618E-01 0.124E-01 0.170E-20 ort(H,U,f) =-0.185E-01 0.180E-01 0.758E-20
CGA:  26    -0.976569584007E+03   -0.41451E-01   -0.41500E-01  5064   0.742E-01-0.560E-03
 gam= 0.550 trial= 0.465  step= 0.581 mean= 0.465
 gam= 0.511 g(H,U,f)=  0.334E-01 0.455E-02 0.403E-16 ort(H,U,f) =-0.909E-02 0.887E-02 0.445E-15
CGA:  27    -0.976591058442E+03   -0.21474E-01   -0.21490E-01  5064   0.380E-01-0.225E-03
 gam= 0.511 trial= 0.471  step= 0.612 mean= 0.471
 gam= 0.567 g(H,U,f)=  0.195E-01 0.202E-02 0.189E-16 ort(H,U,f) =-0.203E-02 0.197E-02-0.161E-15
CGA:  28    -0.976602630616E+03   -0.11572E-01   -0.11577E-01  5064   0.215E-01-0.565E-04
 gam= 0.567 trial= 0.478  step= 0.562 mean= 0.478
 gam= 0.480 g(H,U,f)=  0.911E-02 0.122E-02 0.541E-15 ort(H,U,f) = 0.904E-04-0.773E-04-0.112E-14
CGA:  29    -0.976608665490E+03   -0.60349E-02   -0.60345E-02  5064   0.103E-01 0.131E-04
 gam= 0.480 trial= 0.482  step= 0.565 mean= 0.482
 gam= 0.528 g(H,U,f)=  0.453E-02 0.933E-03 0.111E-21 ort(H,U,f) = 0.142E-04 0.269E-04 0.152E-22
CGA:  30    -0.976611587309E+03   -0.29218E-02   -0.29201E-02  5064   0.546E-02 0.411E-04
 gam= 0.528 trial= 0.487  step= 0.593 mean= 0.487
 gam= 0.524 g(H,U,f)=  0.225E-02 0.610E-03 0.598E-21 ort(H,U,f) =-0.324E-03 0.367E-03 0.923E-21
CGA:  31    -0.976613216019E+03   -0.16287E-02   -0.16264E-02  5064   0.286E-02 0.432E-04
 gam= 0.524 trial= 0.492  step= 0.586 mean= 0.492
 gam= 0.540 g(H,U,f)=  0.126E-02 0.286E-03 0.105E-20 ort(H,U,f) =-0.345E-03 0.374E-03 0.434E-20
CGA:  32    -0.976614062553E+03   -0.84653E-03   -0.84514E-03  5064   0.155E-02 0.296E-04
 gam= 0.540 trial= 0.497  step= 0.617 mean= 0.497
 gam= 0.579 g(H,U,f)=  0.774E-03 0.120E-03 0.199E-21 ort(H,U,f) =-0.166E-03 0.184E-03 0.656E-20
CGA:  33    -0.976614545447E+03   -0.48289E-03   -0.48178E-03  5064   0.894E-03 0.185E-04
 gam= 0.579 trial= 0.503  step= 0.586 mean= 0.503
 gam= 0.528 g(H,U,f)=  0.428E-03 0.443E-04 0.391E-19 ort(H,U,f) =-0.505E-04 0.580E-04-0.327E-18
CGA:  34    -0.976614810905E+03   -0.26546E-03   -0.26515E-03  5064   0.472E-03 0.749E-05
 gam= 0.528 trial= 0.507  step= 0.558 mean= 0.507
 gam= 0.509 g(H,U,f)=  0.218E-03 0.224E-04 0.183E-17 ort(H,U,f) =-0.356E-05 0.179E-05-0.509E-17
CGA:  35    -0.976614943764E+03   -0.13286E-03   -0.13291E-03  5064   0.240E-03-0.177E-05
 gam= 0.509 trial= 0.509  step= 0.590 mean= 0.509
 gam= 0.519 g(H,U,f)=  0.107E-03 0.179E-04 0.734E-16 ort(H,U,f) =-0.428E-05-0.208E-05-0.271E-16
CGA:  36    -0.976615014134E+03   -0.70370E-04   -0.70627E-04  5064   0.125E-03-0.636E-05
 gam= 0.519 trial= 0.513  step= 0.614 mean= 0.513
 gam= 0.000 g(H,U,f)=  0.536E-04 0.118E-04 0.598E-18 ort(H,U,f) =-0.995E-05 0.485E-05 0.989E-18
SDA:  37    -0.976615051138E+03   -0.37004E-04   -0.37259E-04  5064   0.654E-04-0.509E-05
 gam= 0.000 trial= 0.518  step= 0.948 mean= 0.518
 gam= 0.401 g(H,U,f)=  0.215E-04 0.473E-05 0.707E-19 ort(H,U,f) =-0.558E-05 0.629E-05 0.127E-18
CGA:  38    -0.976615082300E+03   -0.31161E-04   -0.31008E-04  5064   0.263E-04 0.714E-06
 gam= 0.401 trial= 0.540  step= 0.818 mean= 0.540
 gam= 0.501 g(H,U,f)=  0.120E-04 0.112E-05 0.324E-18 ort(H,U,f) =-0.530E-05 0.355E-05 0.115E-17
CGA:  39    -0.976615092906E+03   -0.10606E-04   -0.10849E-04  5064   0.132E-04-0.175E-05
 gam= 0.501 trial= 0.554  step= 0.570 mean= 0.554
 gam= 0.382 g(H,U,f)=  0.480E-05 0.228E-06 0.764E-18 ort(H,U,f) =-0.210E-05 0.116E-05 0.413E-17
CGA:  40    -0.976615096397E+03   -0.34908E-05   -0.34983E-05  5064   0.503E-05-0.935E-06
 gam= 0.382 trial= 0.555  step= 0.615 mean= 0.555
 final diagonalization
   1 F= -.97661510E+03 E0= -.97661510E+03  d E =-.910141E-21
 writing wavefunctions
Warning: ieee_invalid is signaling
Warning: ieee_divide_by_zero is signaling
Warning: ieee_underflow is signaling
Warning: ieee_inexact is signaling
FORTRAN STOP
Warning: ieee_invalid is signaling
Warning: ieee_divide_by_zero is signaling
Warning: ieee_underflow is signaling
Warning: ieee_inexact is signaling
FORTRAN STOP
Warning: ieee_invalid is signaling
Warning: ieee_divide_by_zero is signaling
Warning: ieee_underflow is signaling
Warning: ieee_inexact is signaling
FORTRAN STOP
Warning: ieee_invalid is signaling
Warning: ieee_divide_by_zero is signaling
Warning: ieee_underflow is signaling
Warning: ieee_inexact is signaling
FORTRAN STOP
