<?xml version="1.0" encoding="ISO-8859-1"?>
<modeling>
 <generator>
  <i name="program" type="string">vasp </i>
  <i name="version" type="string">6.4.2  </i>
  <i name="subversion" type="string">20Jul23 (build Nov 12 2023 22:16:35) complex                          parallel </i>
  <i name="platform" type="string">LinuxNV </i>
  <i name="date" type="string">2025 03 11 </i>
  <i name="time" type="string">16:38:07 </i>
 </generator>
 <incar>
  <i type="int" name="ISTART">     0</i>
  <i type="string" name="PREC">Normal</i>
  <i type="string" name="ALGO">All</i>
  <i type="int" name="ISPIN">     1</i>
  <i type="int" name="ICHARG">     0</i>
  <i type="int" name="NELM">   500</i>
  <i type="int" name="IBRION">    -1</i>
  <i name="EDIFF">      0.00001000</i>
  <i name="EDIFFG">     -0.00500000</i>
  <i type="int" name="NSW">     0</i>
  <i type="int" name="ISIF">     2</i>
  <i name="ENCUT">    450.00000000</i>
  <i name="NELECT">   1056.00000000</i>
  <i type="string" name="LREAL">Auto</i>
  <i type="logical" name="LPLANE"> T  </i>
  <i name="TIME">      0.40000000</i>
  <i type="int" name="ISMEAR">     0</i>
  <i name="SIGMA">      0.05000000</i>
  <i type="logical" name="LWAVE"> T  </i>
  <i type="logical" name="LCHARG"> T  </i>
  <i name="HFSCREEN">      0.18000000</i>
  <i type="logical" name="LHFCALC"> T  </i>
  <i type="int" name="LMAXFOCK">     4</i>
  <i name="AEXX">      0.35000000</i>
  <i type="string" name="PRECFOCK">Fast</i>
 </incar>
 <primitive_cell>
  <structure name="primitive_cell" >
   <crystal>
    <varray name="basis" >
     <v>       0.00000000      12.28047342       0.00000000 </v>
     <v>       9.14270205       0.00000000       0.00000000 </v>
     <v>       0.00000000      -2.76826177     -11.30069772 </v>
    </varray>
    <i name="volume">   1268.80515525 </i>
    <varray name="rec_basis" >
     <v>       0.00000000       0.08143009      -0.01994742 </v>
     <v>       0.10937686      -0.00000000       0.00000000 </v>
     <v>       0.00000000       0.00000000      -0.08849011 </v>
    </varray>
   </crystal>
   <varray name="positions" >
    <v>       0.66049639       0.00000000       0.15639329 </v>
    <v>       0.65643737       0.00000000       0.65542243 </v>
    <v>       0.66067274       0.33341592       0.15689050 </v>
    <v>       0.65437469       0.33256098       0.65609938 </v>
    <v>       0.66067274       0.66658408       0.15689050 </v>
    <v>       0.65437469       0.66743902       0.65609938 </v>
    <v>       0.83925189       0.16750052       0.34319112 </v>
    <v>       0.83790536       0.16712163       0.84208700 </v>
    <v>       0.84254304       0.50000000       0.34262216 </v>
    <v>       0.83837300       0.50000000       0.84182081 </v>
    <v>       0.83925189       0.83249948       0.34319112 </v>
    <v>       0.83790536       0.83287837       0.84208700 </v>
    <v>       0.59015885       0.16723807       0.39739394 </v>
    <v>       0.59024951       0.16666492       0.89819656 </v>
    <v>       0.59478373       0.50000000       0.39766374 </v>
    <v>       0.59473272       0.50000000       0.90052082 </v>
    <v>       0.59015885       0.83276193       0.39739394 </v>
    <v>       0.59024951       0.83333508       0.89819656 </v>
    <v>       0.90768376       0.00000000       0.10056464 </v>
    <v>       0.90754956       0.00000000       0.60226327 </v>
    <v>       0.90809928       0.33280611       0.10159025 </v>
    <v>       0.90567710       0.33404634       0.60229757 </v>
    <v>       0.90809928       0.66719389       0.10159025 </v>
    <v>       0.90567710       0.66595366       0.60229757 </v>
    <v>       0.15967355       0.16652082       0.15393778 </v>
    <v>       0.15735287       0.17294761       0.66228444 </v>
    <v>       0.15722538       0.50000000       0.15807204 </v>
    <v>       0.15801256       0.50000000       0.65821769 </v>
    <v>       0.15967355       0.83347918       0.15393778 </v>
    <v>       0.15735287       0.82705239       0.66228444 </v>
    <v>       0.34156199       0.00000000       0.34089427 </v>
    <v>       0.34012563       0.00000000       0.84806986 </v>
    <v>       0.34315911       0.33592182       0.34119376 </v>
    <v>       0.34379225       0.33423310       0.84666661 </v>
    <v>       0.34315911       0.66407818       0.34119376 </v>
    <v>       0.34379225       0.66576690       0.84666661 </v>
    <v>       0.08399303       0.00000000       0.38273439 </v>
    <v>       0.08714133       0.00000000       0.89811704 </v>
    <v>       0.09177316       0.33260573       0.39897000 </v>
    <v>       0.08812392       0.33328929       0.89780328 </v>
    <v>       0.09177316       0.66739427       0.39897000 </v>
    <v>       0.08812392       0.66671071       0.89780328 </v>
    <v>       0.41191394       0.16681160       0.10391322 </v>
    <v>       0.40154393       0.16168913       0.60292702 </v>
    <v>       0.41079190       0.50000000       0.10298223 </v>
    <v>       0.40760331       0.50000000       0.60311756 </v>
    <v>       0.41191394       0.83318840       0.10391322 </v>
    <v>       0.40154393       0.83831087       0.60292702 </v>
    <v>       0.99561844       0.16635496       0.12435898 </v>
    <v>       0.99321939       0.16783842       0.62752206 </v>
    <v>       0.99482780       0.50000000       0.12654432 </v>
    <v>       0.99376828       0.50000000       0.62844333 </v>
    <v>       0.99561844       0.83364504       0.12435898 </v>
    <v>       0.99321939       0.83216158       0.62752206 </v>
    <v>       0.50479882       0.00000000       0.36910298 </v>
    <v>       0.50402731       0.00000000       0.87771646 </v>
    <v>       0.50622301       0.33577890       0.36914532 </v>
    <v>       0.50680123       0.33562191       0.87880384 </v>
    <v>       0.50622301       0.66422110       0.36914532 </v>
    <v>       0.50680123       0.66437809       0.87880384 </v>
    <v>       0.67290351       0.16674526       0.28048922 </v>
    <v>       0.67058458       0.16688150       0.78018832 </v>
    <v>       0.67487841       0.50000000       0.28012892 </v>
    <v>       0.67051837       0.50000000       0.77952483 </v>
    <v>       0.67290351       0.83325474       0.28048922 </v>
    <v>       0.67058458       0.83311850       0.78018832 </v>
    <v>       0.82762045       0.00000000       0.21892872 </v>
    <v>       0.82496664       0.00000000       0.71867153 </v>
    <v>       0.82770389       0.33345443       0.21923836 </v>
    <v>       0.82429043       0.33358416       0.71918886 </v>
    <v>       0.82770389       0.66654557       0.21923836 </v>
    <v>       0.82429043       0.66641584       0.71918886 </v>
    <v>       0.83191730       0.00000000       0.44532089 </v>
    <v>       0.82981283       0.00000000       0.94451602 </v>
    <v>       0.83052579       0.33441440       0.44540078 </v>
    <v>       0.83007467       0.33374470       0.94524834 </v>
    <v>       0.83052579       0.66558560       0.44540078 </v>
    <v>       0.83007467       0.66625530       0.94524834 </v>
    <v>       0.66950726       0.16676280       0.05450864 </v>
    <v>       0.66746550       0.16711544       0.55369720 </v>
    <v>       0.67242700       0.50000000       0.05613976 </v>
    <v>       0.66645011       0.50000000       0.55532637 </v>
    <v>       0.66950726       0.83323720       0.05450864 </v>
    <v>       0.66746550       0.83288456       0.55369720 </v>
    <v>       0.49891286       0.00000000       0.12821402 </v>
    <v>       0.49664105       0.00000000       0.62852197 </v>
    <v>       0.49866900       0.33424731       0.12778754 </v>
    <v>       0.49268162       0.33080269       0.62696137 </v>
    <v>       0.49866900       0.66575269       0.12778754 </v>
    <v>       0.49268162       0.66919731       0.62696137 </v>
    <v>       0.99932794       0.16988675       0.36605688 </v>
    <v>       0.00012175       0.16731549       0.87175811 </v>
    <v>       0.00393735       0.50000000       0.37199065 </v>
    <v>       0.00091152       0.50000000       0.87248077 </v>
    <v>       0.99932794       0.83011325       0.36605688 </v>
    <v>       0.00012175       0.83268451       0.87175811 </v>
    <v>       0.17192381       0.00000000       0.27021892 </v>
    <v>       0.17319015       0.00000000       0.78866843 </v>
    <v>       0.17254567       0.33299957       0.28038479 </v>
    <v>       0.17065028       0.33442681       0.78198060 </v>
    <v>       0.17254567       0.66700043       0.28038479 </v>
    <v>       0.17065028       0.66557319       0.78198060 </v>
    <v>       0.32771951       0.16807608       0.21693792 </v>
    <v>       0.33661785       0.17483031       0.73388034 </v>
    <v>       0.32704338       0.50000000       0.21782965 </v>
    <v>       0.32755113       0.50000000       0.72215808 </v>
    <v>       0.32771951       0.83192392       0.21693792 </v>
    <v>       0.33661785       0.82516969       0.73388034 </v>
    <v>       0.34343489       0.17157955       0.44005818 </v>
    <v>       0.33207333       0.16848661       0.95037424 </v>
    <v>       0.33374513       0.50000000       0.44490085 </v>
    <v>       0.33162968       0.50000000       0.94759625 </v>
    <v>       0.34343489       0.82842045       0.44005818 </v>
    <v>       0.33207333       0.83151339       0.95037424 </v>
    <v>       0.16684174       0.00000000       0.05156765 </v>
    <v>       0.16540185       0.33484203       0.05372453 </v>
    <v>       0.16744500       0.33968379       0.55514004 </v>
    <v>       0.16540185       0.66515797       0.05372453 </v>
    <v>       0.16744500       0.66031621       0.55514004 </v>
    <v>       0.21194708       0.00000000       0.54945865 </v>
   </varray>
  </structure>
  <varray name="primitive_index" >
   <v type="int" >        1 </v>
   <v type="int" >        2 </v>
   <v type="int" >        3 </v>
   <v type="int" >        4 </v>
   <v type="int" >        5 </v>
   <v type="int" >        6 </v>
   <v type="int" >        7 </v>
   <v type="int" >        8 </v>
   <v type="int" >        9 </v>
   <v type="int" >       10 </v>
   <v type="int" >       11 </v>
   <v type="int" >       12 </v>
   <v type="int" >       13 </v>
   <v type="int" >       14 </v>
   <v type="int" >       15 </v>
   <v type="int" >       16 </v>
   <v type="int" >       17 </v>
   <v type="int" >       18 </v>
   <v type="int" >       19 </v>
   <v type="int" >       20 </v>
   <v type="int" >       21 </v>
   <v type="int" >       22 </v>
   <v type="int" >       23 </v>
   <v type="int" >       24 </v>
   <v type="int" >       25 </v>
   <v type="int" >       26 </v>
   <v type="int" >       27 </v>
   <v type="int" >       28 </v>
   <v type="int" >       29 </v>
   <v type="int" >       30 </v>
   <v type="int" >       31 </v>
   <v type="int" >       32 </v>
   <v type="int" >       33 </v>
   <v type="int" >       34 </v>
   <v type="int" >       35 </v>
   <v type="int" >       36 </v>
   <v type="int" >       37 </v>
   <v type="int" >       38 </v>
   <v type="int" >       39 </v>
   <v type="int" >       40 </v>
   <v type="int" >       41 </v>
   <v type="int" >       42 </v>
   <v type="int" >       43 </v>
   <v type="int" >       44 </v>
   <v type="int" >       45 </v>
   <v type="int" >       46 </v>
   <v type="int" >       47 </v>
   <v type="int" >       48 </v>
   <v type="int" >       49 </v>
   <v type="int" >       50 </v>
   <v type="int" >       51 </v>
   <v type="int" >       52 </v>
   <v type="int" >       53 </v>
   <v type="int" >       54 </v>
   <v type="int" >       55 </v>
   <v type="int" >       56 </v>
   <v type="int" >       57 </v>
   <v type="int" >       58 </v>
   <v type="int" >       59 </v>
   <v type="int" >       60 </v>
   <v type="int" >       61 </v>
   <v type="int" >       62 </v>
   <v type="int" >       63 </v>
   <v type="int" >       64 </v>
   <v type="int" >       65 </v>
   <v type="int" >       66 </v>
   <v type="int" >       67 </v>
   <v type="int" >       68 </v>
   <v type="int" >       69 </v>
   <v type="int" >       70 </v>
   <v type="int" >       71 </v>
   <v type="int" >       72 </v>
   <v type="int" >       73 </v>
   <v type="int" >       74 </v>
   <v type="int" >       75 </v>
   <v type="int" >       76 </v>
   <v type="int" >       77 </v>
   <v type="int" >       78 </v>
   <v type="int" >       79 </v>
   <v type="int" >       80 </v>
   <v type="int" >       81 </v>
   <v type="int" >       82 </v>
   <v type="int" >       83 </v>
   <v type="int" >       84 </v>
   <v type="int" >       85 </v>
   <v type="int" >       86 </v>
   <v type="int" >       87 </v>
   <v type="int" >       88 </v>
   <v type="int" >       89 </v>
   <v type="int" >       90 </v>
   <v type="int" >       91 </v>
   <v type="int" >       92 </v>
   <v type="int" >       93 </v>
   <v type="int" >       94 </v>
   <v type="int" >       95 </v>
   <v type="int" >       96 </v>
   <v type="int" >       97 </v>
   <v type="int" >       98 </v>
   <v type="int" >       99 </v>
   <v type="int" >      100 </v>
   <v type="int" >      101 </v>
   <v type="int" >      102 </v>
   <v type="int" >      103 </v>
   <v type="int" >      104 </v>
   <v type="int" >      105 </v>
   <v type="int" >      106 </v>
   <v type="int" >      107 </v>
   <v type="int" >      108 </v>
   <v type="int" >      109 </v>
   <v type="int" >      110 </v>
   <v type="int" >      111 </v>
   <v type="int" >      112 </v>
   <v type="int" >      113 </v>
   <v type="int" >      114 </v>
   <v type="int" >      115 </v>
   <v type="int" >      116 </v>
   <v type="int" >      117 </v>
   <v type="int" >      118 </v>
   <v type="int" >      119 </v>
   <v type="int" >      120 </v>
  </varray>
 </primitive_cell>
 <kpoints>
  <generation param="Gamma">
   <v type="int" name="divisions">       2        2        2 </v>
   <v name="usershift">      0.00000000       0.00000000       0.00000000 </v>
   <v name="genvec1">      0.50000000       0.00000000       0.00000000 </v>
   <v name="genvec2">      0.00000000       0.50000000       0.00000000 </v>
   <v name="genvec3">      0.00000000       0.00000000       0.50000000 </v>
   <v name="shift">      0.00000000       0.00000000       0.00000000 </v>
  </generation>
  <varray name="kpointlist" >
   <v>       0.00000000       0.00000000       0.00000000 </v>
   <v>       0.50000000       0.00000000       0.00000000 </v>
   <v>       0.00000000       0.50000000       0.00000000 </v>
   <v>       0.50000000       0.50000000       0.00000000 </v>
   <v>       0.00000000       0.00000000       0.50000000 </v>
   <v>       0.50000000       0.00000000       0.50000000 </v>
   <v>       0.00000000       0.50000000       0.50000000 </v>
   <v>       0.50000000       0.50000000       0.50000000 </v>
  </varray>
  <varray name="weights" >
   <v>       0.12500000 </v>
   <v>       0.12500000 </v>
   <v>       0.12500000 </v>
   <v>       0.12500000 </v>
   <v>       0.12500000 </v>
   <v>       0.12500000 </v>
   <v>       0.12500000 </v>
   <v>       0.12500000 </v>
  </varray>
 </kpoints>
 <parameters>
  <separator name="general" >
   <i type="string" name="SYSTEM">unknown system</i>
   <i type="logical" name="LCOMPAT"> F  </i>
  </separator>
  <separator name="electronic" >
   <i type="string" name="PREC">normal</i>
   <i name="ENMAX">    450.00000000</i>
   <i name="ENAUG">    605.39200000</i>
   <i name="EDIFF">      0.00001000</i>
   <i type="int" name="IALGO">    58</i>
   <i type="int" name="IWAVPR">    10</i>
   <i type="int" name="NBANDS">   633</i>
   <i type="int" name="NBANDSLOW">    -1</i>
   <i type="int" name="NBANDSHIGH">    -1</i>
   <i name="NELECT">   1056.00000000</i>
   <i type="int" name="TURBO">     0</i>
   <i type="int" name="IRESTART">     0</i>
   <i type="int" name="NREBOOT">     0</i>
   <i type="int" name="NMIN">     0</i>
   <i name="EREF">      0.00000000</i>
   <separator name="electronic smearing" >
    <i type="int" name="ISMEAR">     0</i>
    <i name="SIGMA">      0.05000000</i>
    <i name="KSPACING">      0.50000000</i>
    <i type="logical" name="KGAMMA"> T  </i>
    <i type="logical" name="KBLOWUP"> T  </i>
   </separator>
   <separator name="electronic projectors" >
    <i type="logical" name="LREAL"> T  </i>
    <v name="ROPT">     -0.00050000     -0.00050000     -0.00050000</v>
    <i type="int" name="LMAXPAW">  -100</i>
    <i type="int" name="LMAXMIX">     2</i>
    <i type="logical" name="NLSPLINE"> F  </i>
   </separator>
   <separator name="electronic startup" >
    <i type="int" name="ISTART">     0</i>
    <i type="int" name="ICHARG">     0</i>
    <i type="int" name="INIWAV">     1</i>
   </separator>
   <separator name="electronic spin" >
    <i type="int" name="ISPIN">     1</i>
    <i type="logical" name="LNONCOLLINEAR"> F  </i>
    <v name="MAGMOM">      1.00000000      1.00000000      1.00000000      1.00000000      1.00000000      1.00000000      1.00000000      1.00000000      1.00000000      1.00000000      1.00000000      1.00000000      1.00000000      1.00000000      1.00000000      1.00000000      1.00000000      1.00000000      1.00000000      1.00000000
      1.00000000      1.00000000      1.00000000      1.00000000      1.00000000      1.00000000      1.00000000      1.00000000      1.00000000      1.00000000      1.00000000      1.00000000      1.00000000      1.00000000      1.00000000      1.00000000      1.00000000      1.00000000      1.00000000      1.00000000
      1.00000000      1.00000000      1.00000000      1.00000000      1.00000000      1.00000000      1.00000000      1.00000000      1.00000000      1.00000000      1.00000000      1.00000000      1.00000000      1.00000000      1.00000000      1.00000000      1.00000000      1.00000000      1.00000000      1.00000000
      1.00000000      1.00000000      1.00000000      1.00000000      1.00000000      1.00000000      1.00000000      1.00000000      1.00000000      1.00000000      1.00000000      1.00000000      1.00000000      1.00000000      1.00000000      1.00000000      1.00000000      1.00000000      1.00000000      1.00000000
      1.00000000      1.00000000      1.00000000      1.00000000      1.00000000      1.00000000      1.00000000      1.00000000      1.00000000      1.00000000      1.00000000      1.00000000      1.00000000      1.00000000      1.00000000      1.00000000      1.00000000      1.00000000      1.00000000      1.00000000
      1.00000000      1.00000000      1.00000000      1.00000000      1.00000000      1.00000000      1.00000000      1.00000000      1.00000000      1.00000000      1.00000000      1.00000000      1.00000000      1.00000000      1.00000000      1.00000000      1.00000000      1.00000000      1.00000000      1.00000000
</v>
    <i name="NUPDOWN">     -1.00000000</i>
    <i type="logical" name="LSORBIT"> F  </i>
    <v name="SAXIS">      0.00000000      0.00000000      1.00000000</v>
    <i type="logical" name="LSPIRAL"> F  </i>
    <v name="QSPIRAL">      0.00000000      0.00000000      0.00000000</v>
    <i type="logical" name="LZEROZ"> F  </i>
   </separator>
   <separator name="electronic exchange-correlation" >
    <i type="logical" name="LASPH"> F  </i>
    <i type="logical" name="LMETAGGA"> F  </i>
   </separator>
   <separator name="electronic convergence" >
    <i type="int" name="NELM">   500</i>
    <i type="int" name="NELMDL">    -5</i>
    <i type="int" name="NELMIN">     2</i>
    <i name="ENINI">    450.00000000</i>
    <separator name="electronic convergence detail" >
     <i type="logical" name="LDIAG"> T  </i>
     <i type="logical" name="LSUBROT"> F  </i>
     <i name="WEIMIN">      0.00000000</i>
     <i name="EBREAK">      0.00000000</i>
     <i name="DEPER">      0.30000000</i>
     <i type="int" name="NRMM">     4</i>
     <i name="TIME">      0.40000000</i>
    </separator>
   </separator>
   <separator name="electronic mixer" >
    <i name="AMIX">      0.40000000</i>
    <i name="BMIX">      1.00000000</i>
    <i name="AMIN">      0.10000000</i>
    <i name="AMIX_MAG">      1.60000000</i>
    <i name="BMIX_MAG">      1.00000000</i>
    <separator name="electronic mixer details" >
     <i type="int" name="IMIX">     4</i>
     <i type="logical" name="MIXFIRST"> F  </i>
     <i type="int" name="MAXMIX">   -45</i>
     <i name="WC">    100.00000000</i>
     <i type="int" name="INIMIX">     1</i>
     <i type="int" name="MIXPRE">     1</i>
     <i type="int" name="MREMOVE">     5</i>
    </separator>
   </separator>
   <separator name="electronic dipolcorrection" >
    <i type="logical" name="LDIPOL"> F  </i>
    <i type="logical" name="LMONO"> F  </i>
    <i type="int" name="IDIPOL">     0</i>
    <i name="EPSILON">      1.00000000</i>
    <v name="DIPOL">   -100.00000000   -100.00000000   -100.00000000</v>
    <i name="EFIELD">      0.00000000</i>
   </separator>
  </separator>
  <separator name="grids" >
   <i type="int" name="NGX">    64</i>
   <i type="int" name="NGY">    48</i>
   <i type="int" name="NGZ">    60</i>
   <i type="int" name="NGXF">   128</i>
   <i type="int" name="NGYF">    96</i>
   <i type="int" name="NGZF">   120</i>
   <i type="logical" name="ADDGRID"> F  </i>
  </separator>
  <separator name="ionic" >
   <i type="int" name="NSW">     0</i>
   <i type="int" name="IBRION">    -1</i>
   <i type="int" name="MDALGO">     0</i>
   <i type="int" name="ISIF">     2</i>
   <i name="PSTRESS">      0.00000000</i>
   <i name="EDIFFG">     -0.00500000</i>
   <i type="int" name="NFREE">     0</i>
   <i name="POTIM">      0.50000000</i>
   <i name="SMASS">     -3.00000000</i>
   <i name="SCALEE">      1.00000000</i>
  </separator>
  <separator name="ionic md" >
   <i name="TEBEG">      0.00010000</i>
   <i name="TEEND">      0.00010000</i>
   <i type="int" name="NBLOCK">     1</i>
   <i type="int" name="KBLOCK">     1</i>
   <i type="int" name="NPACO">   256</i>
   <i name="APACO">     10.00000000</i>
  </separator>
  <separator name="symmetry" >
   <i type="int" name="ISYM">     3</i>
   <i name="SYMPREC">      0.00001000</i>
  </separator>
  <separator name="dos" >
   <i type="int" name="LORBIT">     0</i>
   <v name="RWIGS">     -1.00000000     -1.00000000     -1.00000000</v>
   <i type="int" name="NEDOS">   301</i>
   <i name="EMIN">     10.00000000</i>
   <i name="EMAX">    -10.00000000</i>
   <i name="EFERMI">      0.00000000</i>
  </separator>
  <separator name="writing" >
   <i type="int" name="NWRITE">     2</i>
   <i type="logical" name="LWAVE"> T  </i>
   <i type="logical" name="LDOWNSAMPLE"> F  </i>
   <i type="logical" name="LCHARG"> T  </i>
   <i type="logical" name="LPARD"> F  </i>
   <i type="logical" name="LVTOT"> F  </i>
   <i type="logical" name="LVHAR"> F  </i>
   <i type="logical" name="LELF"> F  </i>
   <i type="logical" name="LOPTICS"> F  </i>
   <v name="STM">      0.00000000      0.00000000      0.00000000      0.00000000      0.00000000      0.00000000      0.00000000</v>
  </separator>
  <separator name="performance" >
   <i type="int" name="NPAR">     1</i>
   <i type="int" name="NSIM">     4</i>
   <i type="int" name="NBLK">    -1</i>
   <i type="logical" name="LPLANE"> T  </i>
   <i type="logical" name="LSCALAPACK"> T  </i>
   <i type="logical" name="LSCAAWARE"> F  </i>
   <i type="logical" name="LSCALU"> F  </i>
   <i type="logical" name="LASYNC"> F  </i>
   <i type="logical" name="LORBITALREAL"> F  </i>
  </separator>
  <separator name="miscellaneous" >
   <i type="int" name="IDIOT">     3</i>
   <i type="int" name="PHON_NSTRUCT">    -1</i>
   <i type="logical" name="LMUSIC"> F  </i>
   <v name="POMASS">     69.72300000     16.00000000     30.97400000</v>
   <v name="DARWINR">      0.00000000      0.00000000      0.00000000</v>
   <v name="DARWINV">      1.00000000      1.00000000      1.00000000</v>
   <i type="logical" name="LCORR"> T  </i>
  </separator>
  <i type="logical" name="GGA_COMPAT"> T  </i>
  <i type="logical" name="LBERRY"> F  </i>
  <i type="int" name="ICORELEVEL">     0</i>
  <i type="logical" name="LDAU"> F  </i>
  <i type="int" name="I_CONSTRAINED_M">     0</i>
  <separator name="electronic exchange-correlation" >
   <i type="string" name="GGA">--</i>
   <i type="int" name="VOSKOWN">     0</i>
   <i type="logical" name="LHFCALC"> T  </i>
   <i type="string" name="PRECFOCK">fast</i>
   <i type="logical" name="LSYMGRAD"> F  </i>
   <i type="logical" name="LHFONE"> F  </i>
   <i type="logical" name="LRHFCALC"> F  </i>
   <i type="logical" name="LTHOMAS"> F  </i>
   <i type="logical" name="LMODELHF"> F  </i>
   <i type="logical" name="LFOCKACE"> T  </i>
   <i name="ENCUT4O">     -1.00000000</i>
   <i type="int" name="EXXOEP">     0</i>
   <i type="int" name="FOURORBIT">     0</i>
   <i name="AEXX">      0.35000000</i>
   <i name="HFALPHA">     -1.00000000</i>
   <i name="MCALPHA">      0.00000000</i>
   <i name="ALDAX">      0.65000000</i>
   <i name="AGGAX">      0.65000000</i>
   <i name="ALDAC">      1.00000000</i>
   <i name="AGGAC">      1.00000000</i>
   <i type="int" name="NKREDX">     1</i>
   <i type="int" name="NKREDY">     1</i>
   <i type="int" name="NKREDZ">     1</i>
   <i type="logical" name="SHIFTRED"> F  </i>
   <i type="logical" name="ODDONLY"> F  </i>
   <i type="logical" name="EVENONLY"> F  </i>
   <i type="int" name="LMAXFOCK">     4</i>
   <i type="int" name="NMAXFOCKAE">     1</i>
   <i type="logical" name="LFOCKAEDFT"> F  </i>
   <i name="HFSCREEN">      0.18000000</i>
   <i name="HFSCREENC">      0.18000000</i>
   <i type="int" name="NBANDSGWLOW">     1</i>
  </separator>
  <separator name="vdW DFT" >
   <i type="logical" name="LUSE_VDW"> F  </i>
   <i type="int" name="IVDW_NL">     1</i>
   <i type="logical" name="LSPIN_VDW"> F  </i>
   <i name="Zab_VDW">     -0.84910000</i>
   <i name="PARAM1">      0.12340000</i>
   <i name="PARAM2">      1.00000000</i>
   <i name="PARAM3">      0.00000000</i>
  </separator>
  <separator name="model GW" >
   <i type="int" name="MODEL_GW">     0</i>
   <i name="MODEL_EPS0">      6.34402578</i>
   <i name="MODEL_ALPHA">      1.00000000</i>
  </separator>
  <separator name="linear response parameters" >
   <i type="logical" name="LEPSILON"> F  </i>
   <i type="logical" name="LRPA"> F  </i>
   <i type="logical" name="LNABLA"> F  </i>
   <i type="logical" name="LVEL"> F  </i>
   <i name="CSHIFT">      0.10000000</i>
   <i name="OMEGAMAX">     -1.00000000</i>
   <i name="DEG_THRESHOLD">      0.00200000</i>
   <i name="RTIME">     -0.10000000</i>
   <i name="WPLASMAI">      0.00000000</i>
   <v name="DFIELD">      0.00000000      0.00000000      0.00000000</v>
   <v name="WPLASMA">      0.00000000      0.00000000      0.00000000      0.00000000      0.00000000      0.00000000      0.00000000      0.00000000      0.00000000</v>
  </separator>
  <separator name="orbital magnetization" >
   <i type="logical" name="NUCIND"> F  </i>
   <v name="MAGPOS">      0.00000000      0.00000000      0.00000000</v>
   <i type="logical" name="LNICSALL"> T  </i>
   <i type="logical" name="ORBITALMAG"> F  </i>
   <i type="logical" name="LMAGBLOCH"> F  </i>
   <i type="logical" name="LCHIMAG"> F  </i>
   <i type="logical" name="LGAUGE"> T  </i>
   <i type="int" name="MAGATOM">     0</i>
   <v name="MAGDIPOL">      0.00000000      0.00000000      0.00000000</v>
   <v name="AVECCONST">      0.00000000      0.00000000      0.00000000</v>
  </separator>
  <separator name="response functions" >
   <i type="logical" name="LALL_IN_ONE"> F  </i>
   <i type="int" name="IALL_IN_ONE">    -1</i>
   <i type="int" name="NBANDS_WAVE">    -1</i>
   <i type="logical" name="LFINITE_TEMPERATURE"> F  </i>
   <i type="logical" name="LADDER"> F  </i>
   <i type="logical" name="LRPAFORCE"> F  </i>
   <i type="logical" name="LFXC"> F  </i>
   <i type="logical" name="LHARTREE"> T  </i>
   <i type="int" name="IBSE">     0</i>
   <v type="int" name="KPOINT">    -1     0     0     0</v>
   <i type="logical" name="LTCTC"> F  </i>
   <i type="logical" name="LTCTE"> F  </i>
   <i type="logical" name="LTETE"> F  </i>
   <i type="logical" name="LTRIPLET"> F  </i>
   <i type="logical" name="LFXCEPS"> F  </i>
   <i type="logical" name="LFXHEG"> F  </i>
   <i type="int" name="NATURALO">     2</i>
   <i type="logical" name="LHOLEGF"> F  </i>
   <i type="logical" name="L2ORDER"> F  </i>
   <i type="logical" name="LDMP1"> F  </i>
   <i type="logical" name="LMP2LT"> F  </i>
   <i type="logical" name="LSMP2LT"> F  </i>
   <i type="logical" name="LGWLF"> F  </i>
   <i name="ENCUTGW">     -1.60000002</i>
   <i name="ENCUTGWSOFT">     -1.60000002</i>
   <i name="ENCUTLF">     -1.00000000</i>
   <i type="logical" name="LESF_SPLINES"> F  </i>
   <i type="int" name="LMAXMP2">    -1</i>
   <i name="SCISSOR">      0.00000000</i>
   <i type="int" name="NOMEGA">     0</i>
   <i type="int" name="NOMEGAR">     0</i>
   <i type="int" name="NBANDSGW">    -1</i>
   <i type="int" name="NBANDSO">    -1</i>
   <i type="int" name="NBANDSV">    -1</i>
   <i type="int" name="NELMGW">     1</i>
   <i type="int" name="NELMHF">     1</i>
   <i type="int" name="DIM">     3</i>
   <i type="int" name="IESPILON">     4</i>
   <i type="int" name="ANTIRES">     0</i>
   <i name="OMEGAMAX">    -30.00000000</i>
   <i name="OMEGAMIN">    -30.00000000</i>
   <i name="OMEGATL">   -200.00000000</i>
   <i type="int" name="OMEGAGRID">     0</i>
   <i name="CSHIFT">     -0.10000000</i>
   <i type="logical" name="LSELFENERGY"> F  </i>
   <i type="logical" name="LSPECTRAL"> F  </i>
   <i type="logical" name="LSPECTRALGW"> F  </i>
   <i type="logical" name="LSINGLES"> F  </i>
   <i type="logical" name="LFERMIGW"> F  </i>
   <i type="logical" name="ODDONLYGW"> F  </i>
   <i type="logical" name="EVENONLYGW"> F  </i>
   <i type="int" name="NKREDLFX">     1</i>
   <i type="int" name="NKREDLFY">     1</i>
   <i type="int" name="NKREDLFZ">     1</i>
   <i type="int" name="MAXMEM">  2800</i>
   <i type="int" name="TELESCOPE">     0</i>
   <i type="int" name="NTAUPAR">    -1</i>
   <i type="int" name="NOMEGAPAR">    -1</i>
   <i name="DAMP_NEWTON">      0.80000001</i>
   <i name="LAMBDA">      1.00000000</i>
  </separator>
  <separator name="External order field" >
   <i name="OFIELD_KAPPA">      0.00000000</i>
   <v name="OFIELD_K">      0.00000000      0.00000000      0.00000000</v>
   <i name="OFIELD_Q6_NEAR">      0.00000000</i>
   <i name="OFIELD_Q6_FAR">      0.00000000</i>
   <i name="OFIELD_A">      0.00000000</i>
  </separator>
  <separator name="optional k-points parameters" >
   <i type="int" name="KPOINTS_OPT_MODE">     1</i>
   <i type="logical" name="LKPOINTS_OPT"> F  </i>
  </separator>
 </parameters>
 <atominfo>
  <atoms>     120 </atoms>
  <types>       3 </types>
  <array name="atoms" >
   <dimension dim="1">ion</dimension>
   <field type="string">element</field>
   <field type="int">atomtype</field>
   <set>
    <rc><c>Ga</c><c>   1</c></rc>
    <rc><c>Ga</c><c>   1</c></rc>
    <rc><c>Ga</c><c>   1</c></rc>
    <rc><c>Ga</c><c>   1</c></rc>
    <rc><c>Ga</c><c>   1</c></rc>
    <rc><c>Ga</c><c>   1</c></rc>
    <rc><c>Ga</c><c>   1</c></rc>
    <rc><c>Ga</c><c>   1</c></rc>
    <rc><c>Ga</c><c>   1</c></rc>
    <rc><c>Ga</c><c>   1</c></rc>
    <rc><c>Ga</c><c>   1</c></rc>
    <rc><c>Ga</c><c>   1</c></rc>
    <rc><c>Ga</c><c>   1</c></rc>
    <rc><c>Ga</c><c>   1</c></rc>
    <rc><c>Ga</c><c>   1</c></rc>
    <rc><c>Ga</c><c>   1</c></rc>
    <rc><c>Ga</c><c>   1</c></rc>
    <rc><c>Ga</c><c>   1</c></rc>
    <rc><c>Ga</c><c>   1</c></rc>
    <rc><c>Ga</c><c>   1</c></rc>
    <rc><c>Ga</c><c>   1</c></rc>
    <rc><c>Ga</c><c>   1</c></rc>
    <rc><c>Ga</c><c>   1</c></rc>
    <rc><c>Ga</c><c>   1</c></rc>
    <rc><c>Ga</c><c>   1</c></rc>
    <rc><c>Ga</c><c>   1</c></rc>
    <rc><c>Ga</c><c>   1</c></rc>
    <rc><c>Ga</c><c>   1</c></rc>
    <rc><c>Ga</c><c>   1</c></rc>
    <rc><c>Ga</c><c>   1</c></rc>
    <rc><c>Ga</c><c>   1</c></rc>
    <rc><c>Ga</c><c>   1</c></rc>
    <rc><c>Ga</c><c>   1</c></rc>
    <rc><c>Ga</c><c>   1</c></rc>
    <rc><c>Ga</c><c>   1</c></rc>
    <rc><c>Ga</c><c>   1</c></rc>
    <rc><c>Ga</c><c>   1</c></rc>
    <rc><c>Ga</c><c>   1</c></rc>
    <rc><c>Ga</c><c>   1</c></rc>
    <rc><c>Ga</c><c>   1</c></rc>
    <rc><c>Ga</c><c>   1</c></rc>
    <rc><c>Ga</c><c>   1</c></rc>
    <rc><c>Ga</c><c>   1</c></rc>
    <rc><c>Ga</c><c>   1</c></rc>
    <rc><c>Ga</c><c>   1</c></rc>
    <rc><c>Ga</c><c>   1</c></rc>
    <rc><c>Ga</c><c>   1</c></rc>
    <rc><c>Ga</c><c>   1</c></rc>
    <rc><c>O </c><c>   2</c></rc>
    <rc><c>O </c><c>   2</c></rc>
    <rc><c>O </c><c>   2</c></rc>
    <rc><c>O </c><c>   2</c></rc>
    <rc><c>O </c><c>   2</c></rc>
    <rc><c>O </c><c>   2</c></rc>
    <rc><c>O </c><c>   2</c></rc>
    <rc><c>O </c><c>   2</c></rc>
    <rc><c>O </c><c>   2</c></rc>
    <rc><c>O </c><c>   2</c></rc>
    <rc><c>O </c><c>   2</c></rc>
    <rc><c>O </c><c>   2</c></rc>
    <rc><c>O </c><c>   2</c></rc>
    <rc><c>O </c><c>   2</c></rc>
    <rc><c>O </c><c>   2</c></rc>
    <rc><c>O </c><c>   2</c></rc>
    <rc><c>O </c><c>   2</c></rc>
    <rc><c>O </c><c>   2</c></rc>
    <rc><c>O </c><c>   2</c></rc>
    <rc><c>O </c><c>   2</c></rc>
    <rc><c>O </c><c>   2</c></rc>
    <rc><c>O </c><c>   2</c></rc>
    <rc><c>O </c><c>   2</c></rc>
    <rc><c>O </c><c>   2</c></rc>
    <rc><c>O </c><c>   2</c></rc>
    <rc><c>O </c><c>   2</c></rc>
    <rc><c>O </c><c>   2</c></rc>
    <rc><c>O </c><c>   2</c></rc>
    <rc><c>O </c><c>   2</c></rc>
    <rc><c>O </c><c>   2</c></rc>
    <rc><c>O </c><c>   2</c></rc>
    <rc><c>O </c><c>   2</c></rc>
    <rc><c>O </c><c>   2</c></rc>
    <rc><c>O </c><c>   2</c></rc>
    <rc><c>O </c><c>   2</c></rc>
    <rc><c>O </c><c>   2</c></rc>
    <rc><c>O </c><c>   2</c></rc>
    <rc><c>O </c><c>   2</c></rc>
    <rc><c>O </c><c>   2</c></rc>
    <rc><c>O </c><c>   2</c></rc>
    <rc><c>O </c><c>   2</c></rc>
    <rc><c>O </c><c>   2</c></rc>
    <rc><c>O </c><c>   2</c></rc>
    <rc><c>O </c><c>   2</c></rc>
    <rc><c>O </c><c>   2</c></rc>
    <rc><c>O </c><c>   2</c></rc>
    <rc><c>O </c><c>   2</c></rc>
    <rc><c>O </c><c>   2</c></rc>
    <rc><c>O </c><c>   2</c></rc>
    <rc><c>O </c><c>   2</c></rc>
    <rc><c>O </c><c>   2</c></rc>
    <rc><c>O </c><c>   2</c></rc>
    <rc><c>O </c><c>   2</c></rc>
    <rc><c>O </c><c>   2</c></rc>
    <rc><c>O </c><c>   2</c></rc>
    <rc><c>O </c><c>   2</c></rc>
    <rc><c>O </c><c>   2</c></rc>
    <rc><c>O </c><c>   2</c></rc>
    <rc><c>O </c><c>   2</c></rc>
    <rc><c>O </c><c>   2</c></rc>
    <rc><c>O </c><c>   2</c></rc>
    <rc><c>O </c><c>   2</c></rc>
    <rc><c>O </c><c>   2</c></rc>
    <rc><c>O </c><c>   2</c></rc>
    <rc><c>O </c><c>   2</c></rc>
    <rc><c>O </c><c>   2</c></rc>
    <rc><c>O </c><c>   2</c></rc>
    <rc><c>O </c><c>   2</c></rc>
    <rc><c>O </c><c>   2</c></rc>
    <rc><c>O </c><c>   2</c></rc>
    <rc><c>O </c><c>   2</c></rc>
    <rc><c>P </c><c>   3</c></rc>
   </set>
  </array>
  <array name="atomtypes" >
   <dimension dim="1">type</dimension>
   <field type="int">atomspertype</field>
   <field type="string">element</field>
   <field>mass</field>
   <field>valence</field>
   <field type="string">pseudopotential</field>
   <set>
    <rc><c>  48</c><c>Ga</c><c>     69.72300000</c><c>     13.00000000</c><c>  PAW_PBE Ga_d 06Jul2010                </c></rc>
    <rc><c>  71</c><c>O </c><c>     16.00000000</c><c>      6.00000000</c><c>   PAW_PBE O 08Apr2002                  </c></rc>
    <rc><c>   1</c><c>P </c><c>     30.97400000</c><c>      5.00000000</c><c>  PAW_PBE P 06Sep2000                   </c></rc>
   </set>
  </array>
 </atominfo>
 <structure name="initialpos" >
  <crystal>
   <varray name="basis" >
    <v>       0.00000000      12.28047342       0.00000000 </v>
    <v>       9.14270205       0.00000000       0.00000000 </v>
    <v>       0.00000000      -2.76826177     -11.30069772 </v>
   </varray>
   <i name="volume">   1268.80515525 </i>
   <varray name="rec_basis" >
    <v>       0.00000000       0.08143009      -0.01994742 </v>
    <v>       0.10937686      -0.00000000       0.00000000 </v>
    <v>       0.00000000       0.00000000      -0.08849011 </v>
   </varray>
  </crystal>
  <varray name="positions" >
   <v>       0.66049639       0.00000000       0.15639329 </v>
   <v>       0.65643737       0.00000000       0.65542243 </v>
   <v>       0.66067274       0.33341592       0.15689050 </v>
   <v>       0.65437469       0.33256098       0.65609938 </v>
   <v>       0.66067274       0.66658408       0.15689050 </v>
   <v>       0.65437469       0.66743902       0.65609938 </v>
   <v>       0.83925189       0.16750052       0.34319112 </v>
   <v>       0.83790536       0.16712163       0.84208700 </v>
   <v>       0.84254304       0.50000000       0.34262216 </v>
   <v>       0.83837300       0.50000000       0.84182081 </v>
   <v>       0.83925189       0.83249948       0.34319112 </v>
   <v>       0.83790536       0.83287837       0.84208700 </v>
   <v>       0.59015885       0.16723807       0.39739394 </v>
   <v>       0.59024951       0.16666492       0.89819656 </v>
   <v>       0.59478373       0.50000000       0.39766374 </v>
   <v>       0.59473272       0.50000000       0.90052082 </v>
   <v>       0.59015885       0.83276193       0.39739394 </v>
   <v>       0.59024951       0.83333508       0.89819656 </v>
   <v>       0.90768376       0.00000000       0.10056464 </v>
   <v>       0.90754956       0.00000000       0.60226327 </v>
   <v>       0.90809928       0.33280611       0.10159025 </v>
   <v>       0.90567710       0.33404634       0.60229757 </v>
   <v>       0.90809928       0.66719389       0.10159025 </v>
   <v>       0.90567710       0.66595366       0.60229757 </v>
   <v>       0.15967355       0.16652082       0.15393778 </v>
   <v>       0.15735287       0.17294761       0.66228444 </v>
   <v>       0.15722538       0.50000000       0.15807204 </v>
   <v>       0.15801256       0.50000000       0.65821769 </v>
   <v>       0.15967355       0.83347918       0.15393778 </v>
   <v>       0.15735287       0.82705239       0.66228444 </v>
   <v>       0.34156199       0.00000000       0.34089427 </v>
   <v>       0.34012563       0.00000000       0.84806986 </v>
   <v>       0.34315911       0.33592182       0.34119376 </v>
   <v>       0.34379225       0.33423310       0.84666661 </v>
   <v>       0.34315911       0.66407818       0.34119376 </v>
   <v>       0.34379225       0.66576690       0.84666661 </v>
   <v>       0.08399303       0.00000000       0.38273439 </v>
   <v>       0.08714133       0.00000000       0.89811704 </v>
   <v>       0.09177316       0.33260573       0.39897000 </v>
   <v>       0.08812392       0.33328929       0.89780328 </v>
   <v>       0.09177316       0.66739427       0.39897000 </v>
   <v>       0.08812392       0.66671071       0.89780328 </v>
   <v>       0.41191394       0.16681160       0.10391322 </v>
   <v>       0.40154393       0.16168913       0.60292702 </v>
   <v>       0.41079190       0.50000000       0.10298223 </v>
   <v>       0.40760331       0.50000000       0.60311756 </v>
   <v>       0.41191394       0.83318840       0.10391322 </v>
   <v>       0.40154393       0.83831087       0.60292702 </v>
   <v>       0.99561844       0.16635496       0.12435898 </v>
   <v>       0.99321939       0.16783842       0.62752206 </v>
   <v>       0.99482780       0.50000000       0.12654432 </v>
   <v>       0.99376828       0.50000000       0.62844333 </v>
   <v>       0.99561844       0.83364504       0.12435898 </v>
   <v>       0.99321939       0.83216158       0.62752206 </v>
   <v>       0.50479882       0.00000000       0.36910298 </v>
   <v>       0.50402731       0.00000000       0.87771646 </v>
   <v>       0.50622301       0.33577890       0.36914532 </v>
   <v>       0.50680123       0.33562191       0.87880384 </v>
   <v>       0.50622301       0.66422110       0.36914532 </v>
   <v>       0.50680123       0.66437809       0.87880384 </v>
   <v>       0.67290351       0.16674526       0.28048922 </v>
   <v>       0.67058458       0.16688150       0.78018832 </v>
   <v>       0.67487841       0.50000000       0.28012892 </v>
   <v>       0.67051837       0.50000000       0.77952483 </v>
   <v>       0.67290351       0.83325474       0.28048922 </v>
   <v>       0.67058458       0.83311850       0.78018832 </v>
   <v>       0.82762045       0.00000000       0.21892872 </v>
   <v>       0.82496664       0.00000000       0.71867153 </v>
   <v>       0.82770389       0.33345443       0.21923836 </v>
   <v>       0.82429043       0.33358416       0.71918886 </v>
   <v>       0.82770389       0.66654557       0.21923836 </v>
   <v>       0.82429043       0.66641584       0.71918886 </v>
   <v>       0.83191730       0.00000000       0.44532089 </v>
   <v>       0.82981283       0.00000000       0.94451602 </v>
   <v>       0.83052579       0.33441440       0.44540078 </v>
   <v>       0.83007467       0.33374470       0.94524834 </v>
   <v>       0.83052579       0.66558560       0.44540078 </v>
   <v>       0.83007467       0.66625530       0.94524834 </v>
   <v>       0.66950726       0.16676280       0.05450864 </v>
   <v>       0.66746550       0.16711544       0.55369720 </v>
   <v>       0.67242700       0.50000000       0.05613976 </v>
   <v>       0.66645011       0.50000000       0.55532637 </v>
   <v>       0.66950726       0.83323720       0.05450864 </v>
   <v>       0.66746550       0.83288456       0.55369720 </v>
   <v>       0.49891286       0.00000000       0.12821402 </v>
   <v>       0.49664105       0.00000000       0.62852197 </v>
   <v>       0.49866900       0.33424731       0.12778754 </v>
   <v>       0.49268162       0.33080269       0.62696137 </v>
   <v>       0.49866900       0.66575269       0.12778754 </v>
   <v>       0.49268162       0.66919731       0.62696137 </v>
   <v>       0.99932794       0.16988675       0.36605688 </v>
   <v>       0.00012175       0.16731549       0.87175811 </v>
   <v>       0.00393735       0.50000000       0.37199065 </v>
   <v>       0.00091152       0.50000000       0.87248077 </v>
   <v>       0.99932794       0.83011325       0.36605688 </v>
   <v>       0.00012175       0.83268451       0.87175811 </v>
   <v>       0.17192381       0.00000000       0.27021892 </v>
   <v>       0.17319015       0.00000000       0.78866843 </v>
   <v>       0.17254567       0.33299957       0.28038479 </v>
   <v>       0.17065028       0.33442681       0.78198060 </v>
   <v>       0.17254567       0.66700043       0.28038479 </v>
   <v>       0.17065028       0.66557319       0.78198060 </v>
   <v>       0.32771951       0.16807608       0.21693792 </v>
   <v>       0.33661785       0.17483031       0.73388034 </v>
   <v>       0.32704338       0.50000000       0.21782965 </v>
   <v>       0.32755113       0.50000000       0.72215808 </v>
   <v>       0.32771951       0.83192392       0.21693792 </v>
   <v>       0.33661785       0.82516969       0.73388034 </v>
   <v>       0.34343489       0.17157955       0.44005818 </v>
   <v>       0.33207333       0.16848661       0.95037424 </v>
   <v>       0.33374513       0.50000000       0.44490085 </v>
   <v>       0.33162968       0.50000000       0.94759625 </v>
   <v>       0.34343489       0.82842045       0.44005818 </v>
   <v>       0.33207333       0.83151339       0.95037424 </v>
   <v>       0.16684174       0.00000000       0.05156765 </v>
   <v>       0.16540185       0.33484203       0.05372453 </v>
   <v>       0.16744500       0.33968379       0.55514004 </v>
   <v>       0.16540185       0.66515797       0.05372453 </v>
   <v>       0.16744500       0.66031621       0.55514004 </v>
   <v>       0.21194708       0.00000000       0.54945865 </v>
  </varray>
 </structure>
 <calculation>
  <scstep>
   <time name="total">    3.91    3.92</time>
   <energy>
    <i name="alphaZ">   5529.70323211 </i>
    <i name="ewald"> -88683.86560705 </i>
    <i name="hartreedc">  -2119.95244232 </i>
    <i name="XCdc">   2796.62679937 </i>
    <i name="pawpsdc"> 343096.95847695 </i>
    <i name="pawaedc">-375050.22476350 </i>
    <i name="eentropy">     -0.00867477 </i>
    <i name="bandstr"> -40742.22970871 </i>
    <i name="atom"> 133605.80973787 </i>
    <i name="e_fr_energy"> -21567.18295005 </i>
    <i name="e_wo_entrp"> -21567.17427527 </i>
    <i name="e_0_energy"> -21567.17861266 </i>
   </energy>
  </scstep>
  <scstep>
   <time name="total">    3.14    3.14</time>
   <energy>
    <i name="e_fr_energy"> -66045.10446381 </i>
    <i name="e_wo_entrp"> -66045.09209203 </i>
    <i name="e_0_energy"> -66045.09827792 </i>
   </energy>
  </scstep>
  <scstep>
   <time name="total">    3.29    3.29</time>
   <energy>
    <i name="e_fr_energy"> -70792.44114529 </i>
    <i name="e_wo_entrp"> -70792.41410432 </i>
    <i name="e_0_energy"> -70792.42762481 </i>
   </energy>
  </scstep>
  <scstep>
   <time name="total">    3.72    3.72</time>
   <energy>
    <i name="e_fr_energy"> -71403.70179278 </i>
    <i name="e_wo_entrp"> -71403.66035408 </i>
    <i name="e_0_energy"> -71403.68107343 </i>
   </energy>
  </scstep>
  <scstep>
   <time name="total">  236.63  236.58</time>
   <energy>
    <i name="e_fr_energy"> -38291.67421020 </i>
    <i name="e_wo_entrp"> -38291.67063471 </i>
    <i name="e_0_energy"> -38291.67242245 </i>
   </energy>
  </scstep>
  <scstep>
   <time name="total">  471.71  471.63</time>
   <energy>
    <i name="e_fr_energy">  22846.38860204 </i>
    <i name="e_wo_entrp">  22846.40159843 </i>
    <i name="e_0_energy">  22846.39510023 </i>
   </energy>
  </scstep>
  <scstep>
   <time name="total">  472.72  472.63</time>
   <energy>
    <i name="e_fr_energy">   5084.93078446 </i>
    <i name="e_wo_entrp">   5084.95982098 </i>
    <i name="e_0_energy">   5084.94530272 </i>
   </energy>
  </scstep>
  <scstep>
   <time name="total">  472.93  472.86</time>
   <energy>
    <i name="e_fr_energy">   2188.70022815 </i>
    <i name="e_wo_entrp">   2188.74950439 </i>
    <i name="e_0_energy">   2188.72486627 </i>
   </energy>
  </scstep>
  <scstep>
   <time name="total">  472.34  472.26</time>
   <energy>
    <i name="e_fr_energy">   1177.46056112 </i>
    <i name="e_wo_entrp">   1177.50018044 </i>
    <i name="e_0_energy">   1177.48037078 </i>
   </energy>
  </scstep>
  <scstep>
   <time name="total">  472.13  472.03</time>
   <energy>
    <i name="e_fr_energy">    474.62957934 </i>
    <i name="e_wo_entrp">    474.64120674 </i>
    <i name="e_0_energy">    474.63539304 </i>
   </energy>
  </scstep>
  <scstep>
   <time name="total">  471.37  471.28</time>
   <energy>
    <i name="e_fr_energy">   -135.88906451 </i>
    <i name="e_wo_entrp">   -135.87727670 </i>
    <i name="e_0_energy">   -135.88317061 </i>
   </energy>
  </scstep>
  <scstep>
   <time name="total">  471.30  471.21</time>
   <energy>
    <i name="e_fr_energy">   -580.94620972 </i>
    <i name="e_wo_entrp">   -580.93926375 </i>
    <i name="e_0_energy">   -580.94273674 </i>
   </energy>
  </scstep>
  <scstep>
   <time name="total">  471.06  471.01</time>
   <energy>
    <i name="e_fr_energy">   -739.75506290 </i>
    <i name="e_wo_entrp">   -739.74649982 </i>
    <i name="e_0_energy">   -739.75078136 </i>
   </energy>
  </scstep>
  <scstep>
   <time name="total">  470.50  470.42</time>
   <energy>
    <i name="e_fr_energy">   -861.90769376 </i>
    <i name="e_wo_entrp">   -861.90027740 </i>
    <i name="e_0_energy">   -861.90398558 </i>
   </energy>
  </scstep>
  <scstep>
   <time name="total">  470.47  470.39</time>
   <energy>
    <i name="e_fr_energy">   -918.46223859 </i>
    <i name="e_wo_entrp">   -918.46223856 </i>
    <i name="e_0_energy">   -918.46223857 </i>
   </energy>
  </scstep>
  <scstep>
   <time name="total">  470.59  470.51</time>
   <energy>
    <i name="e_fr_energy">   -947.01948938 </i>
    <i name="e_wo_entrp">   -947.01948938 </i>
    <i name="e_0_energy">   -947.01948938 </i>
   </energy>
  </scstep>
  <scstep>
   <time name="total">  470.28  470.20</time>
   <energy>
    <i name="e_fr_energy">   -959.38167962 </i>
    <i name="e_wo_entrp">   -959.38167962 </i>
    <i name="e_0_energy">   -959.38167962 </i>
   </energy>
  </scstep>
  <scstep>
   <time name="total">  470.40  470.32</time>
   <energy>
    <i name="e_fr_energy">   -967.61261482 </i>
    <i name="e_wo_entrp">   -967.61261482 </i>
    <i name="e_0_energy">   -967.61261482 </i>
   </energy>
  </scstep>
  <scstep>
   <time name="total">  470.40  470.32</time>
   <energy>
    <i name="e_fr_energy">   -971.75665670 </i>
    <i name="e_wo_entrp">   -971.75665670 </i>
    <i name="e_0_energy">   -971.75665670 </i>
   </energy>
  </scstep>
  <scstep>
   <time name="total">  470.56  470.47</time>
   <energy>
    <i name="e_fr_energy">   -974.11400167 </i>
    <i name="e_wo_entrp">   -974.11400167 </i>
    <i name="e_0_energy">   -974.11400167 </i>
   </energy>
  </scstep>
  <scstep>
   <time name="total">  470.17  470.10</time>
   <energy>
    <i name="e_fr_energy">   -975.37532653 </i>
    <i name="e_wo_entrp">   -975.37532653 </i>
    <i name="e_0_energy">   -975.37532653 </i>
   </energy>
  </scstep>
  <scstep>
   <time name="total">  470.75  470.68</time>
   <energy>
    <i name="e_fr_energy">   -976.00439746 </i>
    <i name="e_wo_entrp">   -976.00439746 </i>
    <i name="e_0_energy">   -976.00439746 </i>
   </energy>
  </scstep>
  <scstep>
   <time name="total">  470.53  470.46</time>
   <energy>
    <i name="e_fr_energy">   -976.30532135 </i>
    <i name="e_wo_entrp">   -976.30532135 </i>
    <i name="e_0_energy">   -976.30532135 </i>
   </energy>
  </scstep>
  <scstep>
   <time name="total">  470.58  470.51</time>
   <energy>
    <i name="e_fr_energy">   -976.45764467 </i>
    <i name="e_wo_entrp">   -976.45764467 </i>
    <i name="e_0_energy">   -976.45764467 </i>
   </energy>
  </scstep>
  <scstep>
   <time name="total">  470.22  470.13</time>
   <energy>
    <i name="e_fr_energy">   -976.52813341 </i>
    <i name="e_wo_entrp">   -976.52813341 </i>
    <i name="e_0_energy">   -976.52813341 </i>
   </energy>
  </scstep>
  <scstep>
   <time name="total">  470.77  470.69</time>
   <energy>
    <i name="e_fr_energy">   -976.56958401 </i>
    <i name="e_wo_entrp">   -976.56958401 </i>
    <i name="e_0_energy">   -976.56958401 </i>
   </energy>
  </scstep>
  <scstep>
   <time name="total">  470.45  470.38</time>
   <energy>
    <i name="e_fr_energy">   -976.59105844 </i>
    <i name="e_wo_entrp">   -976.59105844 </i>
    <i name="e_0_energy">   -976.59105844 </i>
   </energy>
  </scstep>
  <scstep>
   <time name="total">  470.56  470.48</time>
   <energy>
    <i name="e_fr_energy">   -976.60263062 </i>
    <i name="e_wo_entrp">   -976.60263062 </i>
    <i name="e_0_energy">   -976.60263062 </i>
   </energy>
  </scstep>
  <scstep>
   <time name="total">  470.31  470.23</time>
   <energy>
    <i name="e_fr_energy">   -976.60866549 </i>
    <i name="e_wo_entrp">   -976.60866549 </i>
    <i name="e_0_energy">   -976.60866549 </i>
   </energy>
  </scstep>
  <scstep>
   <time name="total">  470.41  470.33</time>
   <energy>
    <i name="e_fr_energy">   -976.61158731 </i>
    <i name="e_wo_entrp">   -976.61158731 </i>
    <i name="e_0_energy">   -976.61158731 </i>
   </energy>
  </scstep>
  <scstep>
   <time name="total">  469.98  469.91</time>
   <energy>
    <i name="e_fr_energy">   -976.61321602 </i>
    <i name="e_wo_entrp">   -976.61321602 </i>
    <i name="e_0_energy">   -976.61321602 </i>
   </energy>
  </scstep>
  <scstep>
   <time name="total">  470.46  470.38</time>
   <energy>
    <i name="e_fr_energy">   -976.61406255 </i>
    <i name="e_wo_entrp">   -976.61406255 </i>
    <i name="e_0_energy">   -976.61406255 </i>
   </energy>
  </scstep>
  <scstep>
   <time name="total">  470.27  470.19</time>
   <energy>
    <i name="e_fr_energy">   -976.61454545 </i>
    <i name="e_wo_entrp">   -976.61454545 </i>
    <i name="e_0_energy">   -976.61454545 </i>
   </energy>
  </scstep>
  <scstep>
   <time name="total">  470.47  470.38</time>
   <energy>
    <i name="e_fr_energy">   -976.61481090 </i>
    <i name="e_wo_entrp">   -976.61481090 </i>
    <i name="e_0_energy">   -976.61481090 </i>
   </energy>
  </scstep>
  <scstep>
   <time name="total">  470.64  470.55</time>
   <energy>
    <i name="e_fr_energy">   -976.61494376 </i>
    <i name="e_wo_entrp">   -976.61494376 </i>
    <i name="e_0_energy">   -976.61494376 </i>
   </energy>
  </scstep>
  <scstep>
   <time name="total">  470.57  470.48</time>
   <energy>
    <i name="e_fr_energy">   -976.61501413 </i>
    <i name="e_wo_entrp">   -976.61501413 </i>
    <i name="e_0_energy">   -976.61501413 </i>
   </energy>
  </scstep>
  <scstep>
   <time name="total">  470.29  470.20</time>
   <energy>
    <i name="e_fr_energy">   -976.61505114 </i>
    <i name="e_wo_entrp">   -976.61505114 </i>
    <i name="e_0_energy">   -976.61505114 </i>
   </energy>
  </scstep>
  <scstep>
   <time name="total">  470.44  470.37</time>
   <energy>
    <i name="e_fr_energy">   -976.61508230 </i>
    <i name="e_wo_entrp">   -976.61508230 </i>
    <i name="e_0_energy">   -976.61508230 </i>
   </energy>
  </scstep>
  <scstep>
   <time name="total">  470.16  470.08</time>
   <energy>
    <i name="e_fr_energy">   -976.61509291 </i>
    <i name="e_wo_entrp">   -976.61509291 </i>
    <i name="e_0_energy">   -976.61509291 </i>
   </energy>
  </scstep>
  <scstep>
   <time name="total">  701.75  701.63</time>
   <energy>
    <i name="alphaZ">   5529.70323211 </i>
    <i name="ewald"> -88683.86560705 </i>
    <i name="hartreedc"> -33934.52308082 </i>
    <i name="XCdc">   2786.87989885 </i>
    <i name="pawpsdc"> 122509.19817618 </i>
    <i name="pawaedc">-138004.19556585 </i>
    <i name="eentropy">     -0.00000000 </i>
    <i name="bandstr">  -9094.70786643 </i>
    <i name="atom"> 133605.80973787 </i>
    <i name="e_fr_energy">   -976.61509640 </i>
    <i name="e_wo_entrp">   -976.61509640 </i>
    <i name="e_0_energy">   -976.61509640 </i>
   </energy>
  </scstep>
  <structure>
   <crystal>
    <varray name="basis" >
     <v>       0.00000000      12.28047342       0.00000000 </v>
     <v>       9.14270205       0.00000000       0.00000000 </v>
     <v>       0.00000000      -2.76826177     -11.30069772 </v>
    </varray>
    <i name="volume">   1268.80515525 </i>
    <varray name="rec_basis" >
     <v>       0.00000000       0.08143009      -0.01994742 </v>
     <v>       0.10937686      -0.00000000       0.00000000 </v>
     <v>       0.00000000       0.00000000      -0.08849011 </v>
    </varray>
   </crystal>
   <varray name="positions" >
    <v>       0.66049639       0.00000000       0.15639329 </v>
    <v>       0.65643737       0.00000000       0.65542243 </v>
    <v>       0.66067274       0.33341592       0.15689050 </v>
    <v>       0.65437469       0.33256098       0.65609938 </v>
    <v>       0.66067274       0.66658408       0.15689050 </v>
    <v>       0.65437469       0.66743902       0.65609938 </v>
    <v>       0.83925189       0.16750052       0.34319112 </v>
    <v>       0.83790536       0.16712163       0.84208700 </v>
    <v>       0.84254304       0.50000000       0.34262216 </v>
    <v>       0.83837300       0.50000000       0.84182081 </v>
    <v>       0.83925189       0.83249948       0.34319112 </v>
    <v>       0.83790536       0.83287837       0.84208700 </v>
    <v>       0.59015885       0.16723807       0.39739394 </v>
    <v>       0.59024951       0.16666492       0.89819656 </v>
    <v>       0.59478373       0.50000000       0.39766374 </v>
    <v>       0.59473272       0.50000000       0.90052082 </v>
    <v>       0.59015885       0.83276193       0.39739394 </v>
    <v>       0.59024951       0.83333508       0.89819656 </v>
    <v>       0.90768376       0.00000000       0.10056464 </v>
    <v>       0.90754956       0.00000000       0.60226327 </v>
    <v>       0.90809928       0.33280611       0.10159025 </v>
    <v>       0.90567710       0.33404634       0.60229757 </v>
    <v>       0.90809928       0.66719389       0.10159025 </v>
    <v>       0.90567710       0.66595366       0.60229757 </v>
    <v>       0.15967355       0.16652082       0.15393778 </v>
    <v>       0.15735287       0.17294761       0.66228444 </v>
    <v>       0.15722538       0.50000000       0.15807204 </v>
    <v>       0.15801256       0.50000000       0.65821769 </v>
    <v>       0.15967355       0.83347918       0.15393778 </v>
    <v>       0.15735287       0.82705239       0.66228444 </v>
    <v>       0.34156199       0.00000000       0.34089427 </v>
    <v>       0.34012563       0.00000000       0.84806986 </v>
    <v>       0.34315911       0.33592182       0.34119376 </v>
    <v>       0.34379225       0.33423310       0.84666661 </v>
    <v>       0.34315911       0.66407818       0.34119376 </v>
    <v>       0.34379225       0.66576690       0.84666661 </v>
    <v>       0.08399303       0.00000000       0.38273439 </v>
    <v>       0.08714133       0.00000000       0.89811704 </v>
    <v>       0.09177316       0.33260573       0.39897000 </v>
    <v>       0.08812392       0.33328929       0.89780328 </v>
    <v>       0.09177316       0.66739427       0.39897000 </v>
    <v>       0.08812392       0.66671071       0.89780328 </v>
    <v>       0.41191394       0.16681160       0.10391322 </v>
    <v>       0.40154393       0.16168913       0.60292702 </v>
    <v>       0.41079190       0.50000000       0.10298223 </v>
    <v>       0.40760331       0.50000000       0.60311756 </v>
    <v>       0.41191394       0.83318840       0.10391322 </v>
    <v>       0.40154393       0.83831087       0.60292702 </v>
    <v>       0.99561844       0.16635496       0.12435898 </v>
    <v>       0.99321939       0.16783842       0.62752206 </v>
    <v>       0.99482780       0.50000000       0.12654432 </v>
    <v>       0.99376828       0.50000000       0.62844333 </v>
    <v>       0.99561844       0.83364504       0.12435898 </v>
    <v>       0.99321939       0.83216158       0.62752206 </v>
    <v>       0.50479882       0.00000000       0.36910298 </v>
    <v>       0.50402731       0.00000000       0.87771646 </v>
    <v>       0.50622301       0.33577890       0.36914532 </v>
    <v>       0.50680123       0.33562191       0.87880384 </v>
    <v>       0.50622301       0.66422110       0.36914532 </v>
    <v>       0.50680123       0.66437809       0.87880384 </v>
    <v>       0.67290351       0.16674526       0.28048922 </v>
    <v>       0.67058458       0.16688150       0.78018832 </v>
    <v>       0.67487841       0.50000000       0.28012892 </v>
    <v>       0.67051837       0.50000000       0.77952483 </v>
    <v>       0.67290351       0.83325474       0.28048922 </v>
    <v>       0.67058458       0.83311850       0.78018832 </v>
    <v>       0.82762045       0.00000000       0.21892872 </v>
    <v>       0.82496664       0.00000000       0.71867153 </v>
    <v>       0.82770389       0.33345443       0.21923836 </v>
    <v>       0.82429043       0.33358416       0.71918886 </v>
    <v>       0.82770389       0.66654557       0.21923836 </v>
    <v>       0.82429043       0.66641584       0.71918886 </v>
    <v>       0.83191730       0.00000000       0.44532089 </v>
    <v>       0.82981283       0.00000000       0.94451602 </v>
    <v>       0.83052579       0.33441440       0.44540078 </v>
    <v>       0.83007467       0.33374470       0.94524834 </v>
    <v>       0.83052579       0.66558560       0.44540078 </v>
    <v>       0.83007467       0.66625530       0.94524834 </v>
    <v>       0.66950726       0.16676280       0.05450864 </v>
    <v>       0.66746550       0.16711544       0.55369720 </v>
    <v>       0.67242700       0.50000000       0.05613976 </v>
    <v>       0.66645011       0.50000000       0.55532637 </v>
    <v>       0.66950726       0.83323720       0.05450864 </v>
    <v>       0.66746550       0.83288456       0.55369720 </v>
    <v>       0.49891286       0.00000000       0.12821402 </v>
    <v>       0.49664105       0.00000000       0.62852197 </v>
    <v>       0.49866900       0.33424731       0.12778754 </v>
    <v>       0.49268162       0.33080269       0.62696137 </v>
    <v>       0.49866900       0.66575269       0.12778754 </v>
    <v>       0.49268162       0.66919731       0.62696137 </v>
    <v>       0.99932794       0.16988675       0.36605688 </v>
    <v>       0.00012175       0.16731549       0.87175811 </v>
    <v>       0.00393735       0.50000000       0.37199065 </v>
    <v>       0.00091152       0.50000000       0.87248077 </v>
    <v>       0.99932794       0.83011325       0.36605688 </v>
    <v>       0.00012175       0.83268451       0.87175811 </v>
    <v>       0.17192381       0.00000000       0.27021892 </v>
    <v>       0.17319015       0.00000000       0.78866843 </v>
    <v>       0.17254567       0.33299957       0.28038479 </v>
    <v>       0.17065028       0.33442681       0.78198060 </v>
    <v>       0.17254567       0.66700043       0.28038479 </v>
    <v>       0.17065028       0.66557319       0.78198060 </v>
    <v>       0.32771951       0.16807608       0.21693792 </v>
    <v>       0.33661785       0.17483031       0.73388034 </v>
    <v>       0.32704338       0.50000000       0.21782965 </v>
    <v>       0.32755113       0.50000000       0.72215808 </v>
    <v>       0.32771951       0.83192392       0.21693792 </v>
    <v>       0.33661785       0.82516969       0.73388034 </v>
    <v>       0.34343489       0.17157955       0.44005818 </v>
    <v>       0.33207333       0.16848661       0.95037424 </v>
    <v>       0.33374513       0.50000000       0.44490085 </v>
    <v>       0.33162968       0.50000000       0.94759625 </v>
    <v>       0.34343489       0.82842045       0.44005818 </v>
    <v>       0.33207333       0.83151339       0.95037424 </v>
    <v>       0.16684174       0.00000000       0.05156765 </v>
    <v>       0.16540185       0.33484203       0.05372453 </v>
    <v>       0.16744500       0.33968379       0.55514004 </v>
    <v>       0.16540185       0.66515797       0.05372453 </v>
    <v>       0.16744500       0.66031621       0.55514004 </v>
    <v>       0.21194708       0.00000000       0.54945865 </v>
   </varray>
  </structure>
  <varray name="forces" >
   <v>      -0.00000000       0.06618707       0.01166089 </v>
   <v>      -0.00000000       0.02104053       0.01943778 </v>
   <v>       0.00870158       0.08082180       0.00209830 </v>
   <v>      -0.00907789       0.04977167       0.01209355 </v>
   <v>      -0.00870158       0.08082180       0.00209830 </v>
   <v>       0.00907789       0.04977167       0.01209355 </v>
   <v>       0.01009959      -0.04049593       0.01026506 </v>
   <v>       0.00184469      -0.07994203      -0.00467589 </v>
   <v>      -0.00000000      -0.07644248       0.00530606 </v>
   <v>      -0.00000000      -0.07584498      -0.00371150 </v>
   <v>      -0.01009959      -0.04049593       0.01026506 </v>
   <v>      -0.00184469      -0.07994203      -0.00467589 </v>
   <v>      -0.00965006      -0.04704233       0.03253090 </v>
   <v>       0.00142016      -0.04982849       0.00878207 </v>
   <v>      -0.00000000      -0.08376755       0.05281618 </v>
   <v>      -0.00000000      -0.07787209       0.01315540 </v>
   <v>       0.00965006      -0.04704233       0.03253090 </v>
   <v>      -0.00142016      -0.04982849       0.00878207 </v>
   <v>      -0.00000000       0.02849900      -0.00735951 </v>
   <v>      -0.00000000       0.02501035      -0.01176020 </v>
   <v>       0.00801109       0.02461471      -0.02619666 </v>
   <v>      -0.00686783       0.03800066      -0.02230722 </v>
   <v>      -0.00801109       0.02461471      -0.02619666 </v>
   <v>       0.00686783       0.03800066      -0.02230722 </v>
   <v>      -0.04453342       0.09799706      -0.02036895 </v>
   <v>       0.22358691      -0.00130004      -0.07436282 </v>
   <v>      -0.00000000       0.07778196       0.02189007 </v>
   <v>      -0.00000000       0.11874599       0.08628623 </v>
   <v>       0.04453342       0.09799706      -0.02036895 </v>
   <v>      -0.22358691      -0.00130004      -0.07436282 </v>
   <v>      -0.00000000      -0.02019740      -0.07955755 </v>
   <v>      -0.00000000      -0.07379894       0.00687443 </v>
   <v>      -0.07717630      -0.05165474      -0.09593675 </v>
   <v>      -0.09663443      -0.00893058       0.06068883 </v>
   <v>       0.07717630      -0.05165474      -0.09593675 </v>
   <v>       0.09663443      -0.00893058       0.06068883 </v>
   <v>      -0.00000000      -0.02613057       0.29458741 </v>
   <v>      -0.00000000       0.07849867       0.01175571 </v>
   <v>       0.01768972      -0.02128563       0.02606984 </v>
   <v>       0.01578639       0.00133037       0.00485906 </v>
   <v>      -0.01768972      -0.02128563       0.02606984 </v>
   <v>      -0.01578639       0.00133037       0.00485906 </v>
   <v>       0.00784687      -0.03823466       0.01170158 </v>
   <v>      -0.02412367       0.08738228       0.00020835 </v>
   <v>      -0.00000000       0.00268461      -0.00278481 </v>
   <v>      -0.00000000       0.01588078      -0.00429478 </v>
   <v>      -0.00784687      -0.03823466       0.01170158 </v>
   <v>       0.02412367       0.08738228       0.00020835 </v>
   <v>       0.00042961      -0.22371391       0.12331462 </v>
   <v>       0.02451097      -0.23774722       0.09967417 </v>
   <v>      -0.00000000      -0.18583201       0.12630522 </v>
   <v>      -0.00000000      -0.23348896       0.13351086 </v>
   <v>      -0.00042961      -0.22371391       0.12331462 </v>
   <v>      -0.02451097      -0.23774722       0.09967417 </v>
   <v>      -0.00000000       0.22762168      -0.14808806 </v>
   <v>      -0.00000000       0.23764546      -0.11681318 </v>
   <v>      -0.00557435       0.22081463      -0.15226123 </v>
   <v>      -0.00721022       0.22631275      -0.10658257 </v>
   <v>       0.00557435       0.22081463      -0.15226123 </v>
   <v>       0.00721022       0.22631275      -0.10658257 </v>
   <v>       0.00868359       0.00700517      -0.12124599 </v>
   <v>       0.01200921      -0.01623336      -0.13292460 </v>
   <v>      -0.00000000      -0.03325017      -0.13424973 </v>
   <v>      -0.00000000      -0.02611785      -0.15535361 </v>
   <v>      -0.00868359       0.00700517      -0.12124599 </v>
   <v>      -0.01200921      -0.01623336      -0.13292460 </v>
   <v>      -0.00000000       0.01819669       0.16013961 </v>
   <v>      -0.00000000       0.04463307       0.12061093 </v>
   <v>       0.00540694       0.02017617       0.13560551 </v>
   <v>       0.00274119       0.06771391       0.11061477 </v>
   <v>      -0.00540694       0.02017617       0.13560551 </v>
   <v>      -0.00274119       0.06771391       0.11061477 </v>
   <v>      -0.00000000       0.41446612      -0.08546477 </v>
   <v>      -0.00000000       0.43599694      -0.08235612 </v>
   <v>      -0.00818735       0.43151979      -0.09239600 </v>
   <v>      -0.00656976       0.43076632      -0.07057760 </v>
   <v>       0.00818735       0.43151979      -0.09239600 </v>
   <v>       0.00656976       0.43076632      -0.07057760 </v>
   <v>      -0.00282603      -0.43496730       0.06044572 </v>
   <v>      -0.00058686      -0.44124586       0.08205549 </v>
   <v>      -0.00000000      -0.45590080       0.08919795 </v>
   <v>      -0.00000000      -0.41806026       0.10455926 </v>
   <v>       0.00282603      -0.43496730       0.06044572 </v>
   <v>       0.00058686      -0.44124586       0.08205549 </v>
   <v>      -0.00000000      -0.16664730       0.12544705 </v>
   <v>      -0.00000000      -0.14515702       0.10430815 </v>
   <v>       0.00068914      -0.17097131       0.12146882 </v>
   <v>       0.09101782      -0.10644421       0.09183301 </v>
   <v>      -0.00068914      -0.17097131       0.12146882 </v>
   <v>      -0.09101782      -0.10644421       0.09183301 </v>
   <v>      -0.02399981       0.13810828      -0.11365295 </v>
   <v>       0.00082584       0.17921926      -0.14083299 </v>
   <v>      -0.00000000       0.14071977      -0.13158059 </v>
   <v>      -0.00000000       0.17487316      -0.12379667 </v>
   <v>       0.02399981       0.13810828      -0.11365295 </v>
   <v>      -0.00082584       0.17921926      -0.14083299 </v>
   <v>      -0.00000000      -0.05817877       0.00636990 </v>
   <v>      -0.00000000      -0.09635333      -0.23973015 </v>
   <v>       0.03953908      -0.06109529      -0.10125272 </v>
   <v>      -0.06557110      -0.11990285      -0.04515099 </v>
   <v>      -0.03953908      -0.06109529      -0.10125272 </v>
   <v>       0.06557110      -0.11990285      -0.04515099 </v>
   <v>      -0.00924248       0.07990412       0.16289719 </v>
   <v>       0.06698816       0.05045305       0.02792491 </v>
   <v>      -0.00000000       0.07258952       0.06842532 </v>
   <v>      -0.00000000       0.05277554       0.09688032 </v>
   <v>       0.00924248       0.07990412       0.16289719 </v>
   <v>      -0.06698816       0.05045305       0.02792491 </v>
   <v>       0.05210604       0.30441272       0.01292280 </v>
   <v>      -0.01451332       0.46590067      -0.13705358 </v>
   <v>      -0.00000000       0.42074628      -0.04074391 </v>
   <v>      -0.00000000       0.48014520      -0.08014795 </v>
   <v>      -0.05210604       0.30441272       0.01292280 </v>
   <v>       0.01451332       0.46590067      -0.13705358 </v>
   <v>      -0.00000000      -0.46097992       0.11140883 </v>
   <v>      -0.03583731      -0.44024738       0.08216992 </v>
   <v>       0.08435931      -0.44439064       0.06894913 </v>
   <v>       0.03583731      -0.44024738       0.08216992 </v>
   <v>      -0.08435931      -0.44439064       0.06894913 </v>
   <v>      -0.00000000      -0.37382129      -0.10592866 </v>
  </varray>
  <varray name="stress" >
   <v>     -30.82555172       0.00000000       0.00000000 </v>
   <v>       0.00000000     -28.42449225       3.71004257 </v>
   <v>       0.00000000       3.71004273      -9.27636493 </v>
  </varray>
  <energy>
   <i name="e_fr_energy">   -976.61509640 </i>
   <i name="e_wo_entrp">   -976.61509640 </i>
   <i name="e_0_energy">   -976.61509640 </i>
  </energy>
  <time name="totalsc">17551.4617550.74</time>
  <eigenvalues>
   <array>
    <dimension dim="1">band</dimension>
    <dimension dim="2">kpoint</dimension>
    <dimension dim="3">spin</dimension>
    <field>eigene</field>
    <field>occ</field>
    <set>
     <set comment="spin 1">
      <set comment="kpoint 1">
       <r>  -19.0090    1.0000 </r>
       <r>  -18.7415    1.0000 </r>
       <r>  -18.6610    1.0000 </r>
       <r>  -18.5422    1.0000 </r>
       <r>  -18.4571    1.0000 </r>
       <r>  -18.3147    1.0000 </r>
       <r>  -18.3112    1.0000 </r>
       <r>  -18.2224    1.0000 </r>
       <r>  -18.1586    1.0000 </r>
       <r>  -18.1486    1.0000 </r>
       <r>  -18.1473    1.0000 </r>
       <r>  -18.0799    1.0000 </r>
       <r>  -18.0288    1.0000 </r>
       <r>  -18.0112    1.0000 </r>
       <r>  -18.0061    1.0000 </r>
       <r>  -17.9851    1.0000 </r>
       <r>  -17.9688    1.0000 </r>
       <r>  -17.9198    1.0000 </r>
       <r>  -17.8591    1.0000 </r>
       <r>  -17.8462    1.0000 </r>
       <r>  -17.8378    1.0000 </r>
       <r>  -17.8356    1.0000 </r>
       <r>  -17.8237    1.0000 </r>
       <r>  -17.8161    1.0000 </r>
       <r>  -17.7912    1.0000 </r>
       <r>  -17.7234    1.0000 </r>
       <r>  -17.7119    1.0000 </r>
       <r>  -17.6994    1.0000 </r>
       <r>  -17.6850    1.0000 </r>
       <r>  -17.6704    1.0000 </r>
       <r>  -17.6579    1.0000 </r>
       <r>  -17.6402    1.0000 </r>
       <r>  -17.6226    1.0000 </r>
       <r>  -17.6183    1.0000 </r>
       <r>  -17.6053    1.0000 </r>
       <r>  -17.5791    1.0000 </r>
       <r>  -17.5355    1.0000 </r>
       <r>  -17.5286    1.0000 </r>
       <r>  -17.5217    1.0000 </r>
       <r>  -17.5178    1.0000 </r>
       <r>  -17.5058    1.0000 </r>
       <r>  -17.5008    1.0000 </r>
       <r>  -17.4723    1.0000 </r>
       <r>  -17.4613    1.0000 </r>
       <r>  -17.4601    1.0000 </r>
       <r>  -17.4074    1.0000 </r>
       <r>  -17.4067    1.0000 </r>
       <r>  -17.3882    1.0000 </r>
       <r>  -17.3779    1.0000 </r>
       <r>  -17.3332    1.0000 </r>
       <r>  -17.3208    1.0000 </r>
       <r>  -17.3077    1.0000 </r>
       <r>  -17.2867    1.0000 </r>
       <r>  -17.2776    1.0000 </r>
       <r>  -17.2610    1.0000 </r>
       <r>  -17.2525    1.0000 </r>
       <r>  -17.2402    1.0000 </r>
       <r>  -17.2369    1.0000 </r>
       <r>  -17.2367    1.0000 </r>
       <r>  -17.2323    1.0000 </r>
       <r>  -17.2277    1.0000 </r>
       <r>  -17.2261    1.0000 </r>
       <r>  -17.2107    1.0000 </r>
       <r>  -17.1556    1.0000 </r>
       <r>  -17.1470    1.0000 </r>
       <r>  -17.1335    1.0000 </r>
       <r>  -17.1236    1.0000 </r>
       <r>  -17.1065    1.0000 </r>
       <r>  -17.0525    1.0000 </r>
       <r>  -17.0342    1.0000 </r>
       <r>  -16.9530    1.0000 </r>
       <r>  -13.4273    1.0000 </r>
       <r>  -13.4096    1.0000 </r>
       <r>  -13.3936    1.0000 </r>
       <r>  -13.3842    1.0000 </r>
       <r>  -13.3784    1.0000 </r>
       <r>  -13.3750    1.0000 </r>
       <r>  -13.3574    1.0000 </r>
       <r>  -13.3421    1.0000 </r>
       <r>  -13.3356    1.0000 </r>
       <r>  -13.3325    1.0000 </r>
       <r>  -13.3273    1.0000 </r>
       <r>  -13.3238    1.0000 </r>
       <r>  -13.3231    1.0000 </r>
       <r>  -13.3224    1.0000 </r>
       <r>  -13.3179    1.0000 </r>
       <r>  -13.3138    1.0000 </r>
       <r>  -13.3128    1.0000 </r>
       <r>  -13.3090    1.0000 </r>
       <r>  -13.2969    1.0000 </r>
       <r>  -13.2939    1.0000 </r>
       <r>  -13.2932    1.0000 </r>
       <r>  -13.2868    1.0000 </r>
       <r>  -13.2855    1.0000 </r>
       <r>  -13.2835    1.0000 </r>
       <r>  -13.2788    1.0000 </r>
       <r>  -13.2726    1.0000 </r>
       <r>  -13.2712    1.0000 </r>
       <r>  -13.2629    1.0000 </r>
       <r>  -13.2625    1.0000 </r>
       <r>  -13.2574    1.0000 </r>
       <r>  -13.2557    1.0000 </r>
       <r>  -13.2522    1.0000 </r>
       <r>  -13.2512    1.0000 </r>
       <r>  -13.2484    1.0000 </r>
       <r>  -13.2466    1.0000 </r>
       <r>  -13.2456    1.0000 </r>
       <r>  -13.2436    1.0000 </r>
       <r>  -13.2380    1.0000 </r>
       <r>  -13.2342    1.0000 </r>
       <r>  -13.2329    1.0000 </r>
       <r>  -13.2298    1.0000 </r>
       <r>  -13.2293    1.0000 </r>
       <r>  -13.2268    1.0000 </r>
       <r>  -13.2242    1.0000 </r>
       <r>  -13.2124    1.0000 </r>
       <r>  -13.2116    1.0000 </r>
       <r>  -13.2094    1.0000 </r>
       <r>  -13.2072    1.0000 </r>
       <r>  -13.1958    1.0000 </r>
       <r>  -13.1955    1.0000 </r>
       <r>  -13.1943    1.0000 </r>
       <r>  -13.1892    1.0000 </r>
       <r>  -13.1850    1.0000 </r>
       <r>  -13.1831    1.0000 </r>
       <r>  -13.1818    1.0000 </r>
       <r>  -13.1753    1.0000 </r>
       <r>  -13.1729    1.0000 </r>
       <r>  -13.1715    1.0000 </r>
       <r>  -13.1678    1.0000 </r>
       <r>  -13.1658    1.0000 </r>
       <r>  -13.1617    1.0000 </r>
       <r>  -13.1592    1.0000 </r>
       <r>  -13.1564    1.0000 </r>
       <r>  -13.1551    1.0000 </r>
       <r>  -13.1495    1.0000 </r>
       <r>  -13.1474    1.0000 </r>
       <r>  -13.1451    1.0000 </r>
       <r>  -13.1411    1.0000 </r>
       <r>  -13.1400    1.0000 </r>
       <r>  -13.1369    1.0000 </r>
       <r>  -13.1356    1.0000 </r>
       <r>  -13.1325    1.0000 </r>
       <r>  -13.1290    1.0000 </r>
       <r>  -13.1269    1.0000 </r>
       <r>  -13.1267    1.0000 </r>
       <r>  -13.1182    1.0000 </r>
       <r>  -13.1154    1.0000 </r>
       <r>  -13.1151    1.0000 </r>
       <r>  -13.1087    1.0000 </r>
       <r>  -13.1077    1.0000 </r>
       <r>  -13.1034    1.0000 </r>
       <r>  -13.1003    1.0000 </r>
       <r>  -13.0982    1.0000 </r>
       <r>  -13.0972    1.0000 </r>
       <r>  -13.0948    1.0000 </r>
       <r>  -13.0921    1.0000 </r>
       <r>  -13.0913    1.0000 </r>
       <r>  -13.0858    1.0000 </r>
       <r>  -13.0790    1.0000 </r>
       <r>  -13.0785    1.0000 </r>
       <r>  -13.0738    1.0000 </r>
       <r>  -13.0715    1.0000 </r>
       <r>  -13.0684    1.0000 </r>
       <r>  -13.0666    1.0000 </r>
       <r>  -13.0656    1.0000 </r>
       <r>  -13.0642    1.0000 </r>
       <r>  -13.0615    1.0000 </r>
       <r>  -13.0581    1.0000 </r>
       <r>  -13.0558    1.0000 </r>
       <r>  -13.0533    1.0000 </r>
       <r>  -13.0516    1.0000 </r>
       <r>  -13.0485    1.0000 </r>
       <r>  -13.0471    1.0000 </r>
       <r>  -13.0439    1.0000 </r>
       <r>  -13.0423    1.0000 </r>
       <r>  -13.0397    1.0000 </r>
       <r>  -13.0368    1.0000 </r>
       <r>  -13.0318    1.0000 </r>
       <r>  -13.0315    1.0000 </r>
       <r>  -13.0276    1.0000 </r>
       <r>  -13.0252    1.0000 </r>
       <r>  -13.0183    1.0000 </r>
       <r>  -13.0118    1.0000 </r>
       <r>  -13.0116    1.0000 </r>
       <r>  -13.0085    1.0000 </r>
       <r>  -13.0064    1.0000 </r>
       <r>  -13.0060    1.0000 </r>
       <r>  -13.0011    1.0000 </r>
       <r>  -12.9975    1.0000 </r>
       <r>  -12.9959    1.0000 </r>
       <r>  -12.9918    1.0000 </r>
       <r>  -12.9893    1.0000 </r>
       <r>  -12.9822    1.0000 </r>
       <r>  -12.9804    1.0000 </r>
       <r>  -12.9781    1.0000 </r>
       <r>  -12.9772    1.0000 </r>
       <r>  -12.9770    1.0000 </r>
       <r>  -12.9710    1.0000 </r>
       <r>  -12.9662    1.0000 </r>
       <r>  -12.9640    1.0000 </r>
       <r>  -12.9627    1.0000 </r>
       <r>  -12.9604    1.0000 </r>
       <r>  -12.9572    1.0000 </r>
       <r>  -12.9560    1.0000 </r>
       <r>  -12.9537    1.0000 </r>
       <r>  -12.9528    1.0000 </r>
       <r>  -12.9503    1.0000 </r>
       <r>  -12.9487    1.0000 </r>
       <r>  -12.9467    1.0000 </r>
       <r>  -12.9456    1.0000 </r>
       <r>  -12.9397    1.0000 </r>
       <r>  -12.9375    1.0000 </r>
       <r>  -12.9360    1.0000 </r>
       <r>  -12.9330    1.0000 </r>
       <r>  -12.9320    1.0000 </r>
       <r>  -12.9298    1.0000 </r>
       <r>  -12.9249    1.0000 </r>
       <r>  -12.9246    1.0000 </r>
       <r>  -12.9236    1.0000 </r>
       <r>  -12.9190    1.0000 </r>
       <r>  -12.9177    1.0000 </r>
       <r>  -12.9121    1.0000 </r>
       <r>  -12.9082    1.0000 </r>
       <r>  -12.8991    1.0000 </r>
       <r>  -12.8975    1.0000 </r>
       <r>  -12.8947    1.0000 </r>
       <r>  -12.8941    1.0000 </r>
       <r>  -12.8889    1.0000 </r>
       <r>  -12.8832    1.0000 </r>
       <r>  -12.8832    1.0000 </r>
       <r>  -12.8819    1.0000 </r>
       <r>  -12.8809    1.0000 </r>
       <r>  -12.8730    1.0000 </r>
       <r>  -12.8711    1.0000 </r>
       <r>  -12.8695    1.0000 </r>
       <r>  -12.8671    1.0000 </r>
       <r>  -12.8604    1.0000 </r>
       <r>  -12.8603    1.0000 </r>
       <r>  -12.8526    1.0000 </r>
       <r>  -12.8420    1.0000 </r>
       <r>  -12.8396    1.0000 </r>
       <r>  -12.8371    1.0000 </r>
       <r>  -12.8252    1.0000 </r>
       <r>  -12.8219    1.0000 </r>
       <r>  -12.8188    1.0000 </r>
       <r>  -12.8186    1.0000 </r>
       <r>  -12.8134    1.0000 </r>
       <r>  -12.8100    1.0000 </r>
       <r>  -12.7984    1.0000 </r>
       <r>  -12.7958    1.0000 </r>
       <r>  -12.7936    1.0000 </r>
       <r>  -12.7868    1.0000 </r>
       <r>  -12.7816    1.0000 </r>
       <r>  -12.7774    1.0000 </r>
       <r>  -12.7702    1.0000 </r>
       <r>  -12.7663    1.0000 </r>
       <r>  -12.7597    1.0000 </r>
[...]
       <r>   -12.3370   106.0849   579.1884 </r>
       <r>   -12.1990   107.7619   594.0548 </r>
       <r>   -12.0611   105.1619   608.5624 </r>
       <r>   -11.9231    80.9451   619.7293 </r>
       <r>   -11.7851    16.2937   621.9771 </r>
       <r>   -11.6472     0.1661   622.0000 </r>
       <r>   -11.5092     0.0000   622.0000 </r>
       <r>   -11.3713     0.0000   622.0000 </r>
       <r>   -11.2333     0.0000   622.0000 </r>
       <r>   -11.0954     0.0000   622.0000 </r>
       <r>   -10.9574     0.0000   622.0000 </r>
       <r>   -10.8195     0.0000   622.0000 </r>
       <r>   -10.6815     0.0000   622.0000 </r>
       <r>   -10.5435     0.0000   622.0000 </r>
       <r>   -10.4056     0.0000   622.0000 </r>
       <r>   -10.2676     0.0000   622.0000 </r>
       <r>   -10.1297     0.0000   622.0000 </r>
       <r>    -9.9917     0.0000   622.0000 </r>
       <r>    -9.8538     0.0000   622.0000 </r>
       <r>    -9.7158     0.0000   622.0000 </r>
       <r>    -9.5779     0.0000   622.0000 </r>
       <r>    -9.4399     0.0000   622.0000 </r>
       <r>    -9.3019     0.0000   622.0000 </r>
       <r>    -9.1640     0.0000   622.0000 </r>
       <r>    -9.0260     0.0000   622.0000 </r>
       <r>    -8.8881     0.0000   622.0000 </r>
       <r>    -8.7501     0.0000   622.0000 </r>
       <r>    -8.6122     0.0000   622.0000 </r>
       <r>    -8.4742     0.0000   622.0000 </r>
       <r>    -8.3362     0.0000   622.0000 </r>
       <r>    -8.1983     0.0000   622.0000 </r>
       <r>    -8.0603     0.0000   622.0000 </r>
       <r>    -7.9224     0.0000   622.0000 </r>
       <r>    -7.7844     0.0000   622.0000 </r>
       <r>    -7.6465     0.0000   622.0000 </r>
       <r>    -7.5085     0.0000   622.0000 </r>
       <r>    -7.3706     0.0000   622.0000 </r>
       <r>    -7.2326     0.0000   622.0000 </r>
       <r>    -7.0946     3.0557   622.4216 </r>
       <r>    -6.9567    11.4227   623.9974 </r>
       <r>    -6.8187     0.0190   624.0000 </r>
       <r>    -6.6808     0.0000   624.0000 </r>
       <r>    -6.5428     0.0000   624.0000 </r>
       <r>    -6.4049     0.0000   624.0000 </r>
       <r>    -6.2669     0.0000   624.0000 </r>
       <r>    -6.1290     0.0000   624.0000 </r>
       <r>    -5.9910     0.0000   624.0000 </r>
       <r>    -5.8530     0.0000   624.0000 </r>
       <r>    -5.7151     0.0000   624.0000 </r>
       <r>    -5.5771     0.0000   624.0000 </r>
       <r>    -5.4392     0.0007   624.0001 </r>
       <r>    -5.3012     2.6876   624.3709 </r>
       <r>    -5.1633    10.1011   625.7644 </r>
       <r>    -5.0253    19.5556   628.4622 </r>
       <r>    -4.8874    29.7070   632.5604 </r>
       <r>    -4.7494    29.2446   636.5949 </r>
       <r>    -4.6114    38.7921   641.9465 </r>
       <r>    -4.4735    38.4869   647.2560 </r>
       <r>    -4.3355    55.2617   654.8796 </r>
       <r>    -4.1976    52.6887   662.1483 </r>
       <r>    -4.0596    44.0283   668.2223 </r>
       <r>    -3.9217    44.0406   674.2980 </r>
       <r>    -3.7837    48.3191   680.9638 </r>
       <r>    -3.6458    35.6393   685.8805 </r>
       <r>    -3.5078    30.5750   690.0985 </r>
       <r>    -3.3698    28.5670   694.0395 </r>
       <r>    -3.2319    37.0997   699.1576 </r>
       <r>    -3.0939    36.9291   704.2522 </r>
       <r>    -2.9560    39.8847   709.7545 </r>
       <r>    -2.8180    28.1851   713.6428 </r>
       <r>    -2.6801    32.3660   718.1078 </r>
       <r>    -2.5421    40.5829   723.7065 </r>
       <r>    -2.4042    37.8061   728.9221 </r>
       <r>    -2.2662    49.3705   735.7330 </r>
       <r>    -2.1282    33.7298   740.3862 </r>
       <r>    -1.9903    48.4023   747.0636 </r>
       <r>    -1.8523    72.0853   757.0082 </r>
       <r>    -1.7144    65.0304   765.9795 </r>
       <r>    -1.5764    53.2633   773.3274 </r>
       <r>    -1.4385    67.1714   782.5941 </r>
       <r>    -1.3005    60.9776   791.0063 </r>
       <r>    -1.1626    46.5001   797.4213 </r>
       <r>    -1.0246    57.9260   805.4125 </r>
       <r>    -0.8866    70.3637   815.1196 </r>
       <r>    -0.7487    67.3587   824.4121 </r>
       <r>    -0.6107    75.5664   834.8369 </r>
       <r>    -0.4728    60.1609   843.1364 </r>
       <r>    -0.3348    63.6103   851.9119 </r>
       <r>    -0.1969    66.9484   861.1478 </r>
       <r>    -0.0589    76.5815   871.7126 </r>
       <r>     0.0790    79.3507   882.6595 </r>
       <r>     0.2170    73.2249   892.7613 </r>
       <r>     0.3550    65.8262   901.8424 </r>
       <r>     0.4929    80.3471   912.9267 </r>
       <r>     0.6309    90.4056   925.3987 </r>
       <r>     0.7688    91.8277   938.0668 </r>
       <r>     0.9068    86.4130   949.9880 </r>
       <r>     1.0447    94.2657   962.9925 </r>
       <r>     1.1827   125.3848   980.2900 </r>
       <r>     1.3206   118.3816   996.6215 </r>
       <r>     1.4586   124.7182  1013.8271 </r>
       <r>     1.5966   105.6583  1028.4032 </r>
       <r>     1.7345    66.3701  1037.5594 </r>
       <r>     1.8725    51.5178  1044.6665 </r>
       <r>     2.0104    37.5200  1049.8426 </r>
       <r>     2.1484     1.1408  1050.0000 </r>
       <r>     2.2863     0.0000  1050.0000 </r>
       <r>     2.4243     0.0000  1050.0000 </r>
       <r>     2.5623     0.0000  1050.0000 </r>
       <r>     2.7002     0.0000  1050.0000 </r>
       <r>     2.8382     0.0000  1050.0000 </r>
       <r>     2.9761     0.0000  1050.0000 </r>
       <r>     3.1141     0.0000  1050.0000 </r>
       <r>     3.2520     1.3433  1050.1853 </r>
       <r>     3.3900    10.8739  1051.6854 </r>
       <r>     3.5279     2.2801  1052.0000 </r>
       <r>     3.6659     0.0110  1052.0015 </r>
       <r>     3.8039     5.7384  1052.7931 </r>
       <r>     3.9418     1.8494  1053.0483 </r>
       <r>     4.0798    18.1773  1055.5559 </r>
       <r>     4.2177     3.2188  1056.0000 </r>
       <r>     4.3557     0.0001  1056.0000 </r>
       <r>     4.4936     0.0000  1056.0000 </r>
       <r>     4.6316     0.0000  1056.0000 </r>
       <r>     4.7695     0.0000  1056.0000 </r>
       <r>     4.9075     0.0000  1056.0000 </r>
       <r>     5.0455     0.0000  1056.0000 </r>
       <r>     5.1834     0.0000  1056.0000 </r>
       <r>     5.3214     0.0000  1056.0000 </r>
       <r>     5.4593     0.0000  1056.0000 </r>
       <r>     5.5973     0.0000  1056.0000 </r>
       <r>     5.7352     0.0000  1056.0000 </r>
       <r>     5.8732     0.0000  1056.0000 </r>
       <r>     6.0111     0.0000  1056.0000 </r>
       <r>     6.1491     0.0000  1056.0000 </r>
       <r>     6.2871     0.0000  1056.0000 </r>
       <r>     6.4250     0.0000  1056.0000 </r>
       <r>     6.5630     0.0000  1056.0000 </r>
       <r>     6.7009     0.0000  1056.0000 </r>
       <r>     6.8389     0.0000  1056.0000 </r>
       <r>     6.9768     0.0151  1056.0021 </r>
       <r>     7.1148     1.6780  1056.2336 </r>
       <r>     7.2527     0.1191  1056.2500 </r>
       <r>     7.3907     0.0000  1056.2500 </r>
       <r>     7.5287     0.0000  1056.2500 </r>
       <r>     7.6666     0.0000  1056.2500 </r>
       <r>     7.8046     0.3411  1056.2971 </r>
       <r>     7.9425     3.5609  1056.7883 </r>
       <r>     8.0805     3.3409  1057.2492 </r>
       <r>     8.2184     0.5881  1057.3303 </r>
       <r>     8.3564     4.7666  1057.9879 </r>
       <r>     8.4943     1.8985  1058.2498 </r>
       <r>     8.6323     0.0333  1058.2544 </r>
       <r>     8.7703     2.5532  1058.6066 </r>
       <r>     8.9082     6.9683  1059.5680 </r>
       <r>     9.0462     6.9925  1060.5326 </r>
       <r>     9.1841     3.9287  1061.0746 </r>
       <r>     9.3221     5.5719  1061.8433 </r>
       <r>     9.4600     3.7909  1062.3662 </r>
       <r>     9.5980     9.9217  1063.7350 </r>
       <r>     9.7359     8.5042  1064.9082 </r>
       <r>     9.8739     1.8356  1065.1614 </r>
       <r>    10.0119     9.3913  1066.4570 </r>
       <r>    10.1498    14.1972  1068.4156 </r>
       <r>    10.2878    22.7450  1071.5534 </r>
       <r>    10.4257    15.7363  1073.7243 </r>
       <r>    10.5637    15.6035  1075.8769 </r>
       <r>    10.7016    27.9257  1079.7294 </r>
       <r>    10.8396    24.4504  1083.1025 </r>
       <r>    10.9775    42.0907  1088.9091 </r>
       <r>    11.1155    33.7216  1093.5612 </r>
       <r>    11.2535    36.1050  1098.5421 </r>
       <r>    11.3914    30.6330  1102.7681 </r>
       <r>    11.5294    32.0965  1107.1960 </r>
       <r>    11.6673    25.2588  1110.6806 </r>
       <r>    11.8053    36.4489  1115.7089 </r>
       <r>    11.9432    31.8744  1120.1062 </r>
       <r>    12.0812    41.6846  1125.8568 </r>
       <r>    12.2191    35.2873  1130.7249 </r>
       <r>    12.3571    34.2672  1135.4523 </r>
       <r>    12.4951    22.5834  1138.5678 </r>
       <r>    12.6330    35.7962  1143.5061 </r>
       <r>    12.7710    42.6711  1149.3928 </r>
       <r>    12.9089    39.3904  1154.8269 </r>
       <r>    13.0469    31.9149  1159.2298 </r>
       <r>    13.1848    19.1231  1161.8679 </r>
       <r>    13.3228    29.1513  1165.8895 </r>
       <r>    13.4607    25.5152  1169.4095 </r>
       <r>    13.5987    26.5772  1173.0759 </r>
       <r>    13.7367    32.2926  1177.5309 </r>
       <r>    13.8746    30.9497  1181.8006 </r>
       <r>    14.0126    27.1977  1185.5527 </r>
       <r>    14.1505    29.0875  1189.5654 </r>
       <r>    14.2885    25.0607  1193.0227 </r>
       <r>    14.4264    25.0338  1196.4763 </r>
       <r>    14.5644    20.9507  1199.3665 </r>
       <r>    14.7024    21.3066  1202.3059 </r>
       <r>    14.8403    24.5520  1205.6930 </r>
       <r>    14.9783    22.3240  1208.7727 </r>
       <r>    15.1162    23.4124  1212.0026 </r>
       <r>    15.2542    26.0045  1215.5901 </r>
       <r>    15.3921    22.8106  1218.7369 </r>
       <r>    15.5301    26.4321  1222.3834 </r>
       <r>    15.6680    19.3988  1225.0595 </r>
       <r>    15.8060    24.5231  1228.4426 </r>
       <r>    15.9440    24.6084  1231.8375 </r>
       <r>    16.0819    20.2573  1234.6321 </r>
       <r>    16.2199    22.3236  1237.7118 </r>
       <r>    16.3578    19.8947  1240.4564 </r>
       <r>    16.4958    20.4325  1243.2752 </r>
       <r>    16.6337    22.7596  1246.4150 </r>
       <r>    16.7717    16.9519  1248.7536 </r>
       <r>    16.9096    17.8034  1251.2097 </r>
       <r>    17.0476    19.7822  1253.9388 </r>
       <r>    17.1856    16.5592  1256.2232 </r>
       <r>    17.3235    15.5567  1258.3693 </r>
       <r>    17.4615    12.8663  1260.1443 </r>
       <r>    17.5994     9.8453  1261.5025 </r>
       <r>    17.7374     5.2643  1262.2288 </r>
       <r>    17.8753    10.8366  1263.7237 </r>
       <r>    18.0133     2.4991  1264.0685 </r>
       <r>    18.1512     4.5281  1264.6932 </r>
       <r>    18.2892     2.2484  1265.0033 </r>
       <r>    18.4272     3.2080  1265.4459 </r>
       <r>    18.5651     0.7987  1265.5561 </r>
       <r>    18.7031     3.2020  1265.9978 </r>
       <r>    18.8410     0.0158  1266.0000 </r>
       <r>    18.9790     0.0000  1266.0000 </r>
       <r>    19.1169     0.0000  1266.0000 </r>
       <r>    19.2549     0.0000  1266.0000 </r>
       <r>    19.3928     0.0000  1266.0000 </r>
       <r>    19.5308     0.0000  1266.0000 </r>
       <r>    19.6688     0.0000  1266.0000 </r>
       <r>    19.8067     0.0000  1266.0000 </r>
       <r>    19.9447     0.0000  1266.0000 </r>
       <r>    20.0826     0.0000  1266.0000 </r>
       <r>    20.2206     0.0000  1266.0000 </r>
       <r>    20.3585     0.0000  1266.0000 </r>
       <r>    20.4965     0.0000  1266.0000 </r>
      </set>
     </set>
    </array>
   </total>
  </dos>
 </calculation>
 <structure name="finalpos" >
  <crystal>
   <varray name="basis" >
    <v>       0.00000000      12.28047342       0.00000000 </v>
    <v>       9.14270205       0.00000000       0.00000000 </v>
    <v>       0.00000000      -2.76826177     -11.30069772 </v>
   </varray>
   <i name="volume">   1268.80515525 </i>
   <varray name="rec_basis" >
    <v>       0.00000000       0.08143009      -0.01994742 </v>
    <v>       0.10937686      -0.00000000       0.00000000 </v>
    <v>       0.00000000       0.00000000      -0.08849011 </v>
   </varray>
  </crystal>
  <varray name="positions" >
   <v>       0.66049639       0.00000000       0.15639329 </v>
   <v>       0.65643737       0.00000000       0.65542243 </v>
   <v>       0.66067274       0.33341592       0.15689050 </v>
   <v>       0.65437469       0.33256098       0.65609938 </v>
   <v>       0.66067274       0.66658408       0.15689050 </v>
   <v>       0.65437469       0.66743902       0.65609938 </v>
   <v>       0.83925189       0.16750052       0.34319112 </v>
   <v>       0.83790536       0.16712163       0.84208700 </v>
   <v>       0.84254304       0.50000000       0.34262216 </v>
   <v>       0.83837300       0.50000000       0.84182081 </v>
   <v>       0.83925189       0.83249948       0.34319112 </v>
   <v>       0.83790536       0.83287837       0.84208700 </v>
   <v>       0.59015885       0.16723807       0.39739394 </v>
   <v>       0.59024951       0.16666492       0.89819656 </v>
   <v>       0.59478373       0.50000000       0.39766374 </v>
   <v>       0.59473272       0.50000000       0.90052082 </v>
   <v>       0.59015885       0.83276193       0.39739394 </v>
   <v>       0.59024951       0.83333508       0.89819656 </v>
   <v>       0.90768376       0.00000000       0.10056464 </v>
   <v>       0.90754956       0.00000000       0.60226327 </v>
   <v>       0.90809928       0.33280611       0.10159025 </v>
   <v>       0.90567710       0.33404634       0.60229757 </v>
   <v>       0.90809928       0.66719389       0.10159025 </v>
   <v>       0.90567710       0.66595366       0.60229757 </v>
   <v>       0.15967355       0.16652082       0.15393778 </v>
   <v>       0.15735287       0.17294761       0.66228444 </v>
   <v>       0.15722538       0.50000000       0.15807204 </v>
   <v>       0.15801256       0.50000000       0.65821769 </v>
   <v>       0.15967355       0.83347918       0.15393778 </v>
   <v>       0.15735287       0.82705239       0.66228444 </v>
   <v>       0.34156199       0.00000000       0.34089427 </v>
   <v>       0.34012563       0.00000000       0.84806986 </v>
   <v>       0.34315911       0.33592182       0.34119376 </v>
   <v>       0.34379225       0.33423310       0.84666661 </v>
   <v>       0.34315911       0.66407818       0.34119376 </v>
   <v>       0.34379225       0.66576690       0.84666661 </v>
   <v>       0.08399303       0.00000000       0.38273439 </v>
   <v>       0.08714133       0.00000000       0.89811704 </v>
   <v>       0.09177316       0.33260573       0.39897000 </v>
   <v>       0.08812392       0.33328929       0.89780328 </v>
   <v>       0.09177316       0.66739427       0.39897000 </v>
   <v>       0.08812392       0.66671071       0.89780328 </v>
   <v>       0.41191394       0.16681160       0.10391322 </v>
   <v>       0.40154393       0.16168913       0.60292702 </v>
   <v>       0.41079190       0.50000000       0.10298223 </v>
   <v>       0.40760331       0.50000000       0.60311756 </v>
   <v>       0.41191394       0.83318840       0.10391322 </v>
   <v>       0.40154393       0.83831087       0.60292702 </v>
   <v>       0.99561844       0.16635496       0.12435898 </v>
   <v>       0.99321939       0.16783842       0.62752206 </v>
   <v>       0.99482780       0.50000000       0.12654432 </v>
   <v>       0.99376828       0.50000000       0.62844333 </v>
   <v>       0.99561844       0.83364504       0.12435898 </v>
   <v>       0.99321939       0.83216158       0.62752206 </v>
   <v>       0.50479882       0.00000000       0.36910298 </v>
   <v>       0.50402731       0.00000000       0.87771646 </v>
   <v>       0.50622301       0.33577890       0.36914532 </v>
   <v>       0.50680123       0.33562191       0.87880384 </v>
   <v>       0.50622301       0.66422110       0.36914532 </v>
   <v>       0.50680123       0.66437809       0.87880384 </v>
   <v>       0.67290351       0.16674526       0.28048922 </v>
   <v>       0.67058458       0.16688150       0.78018832 </v>
   <v>       0.67487841       0.50000000       0.28012892 </v>
   <v>       0.67051837       0.50000000       0.77952483 </v>
   <v>       0.67290351       0.83325474       0.28048922 </v>
   <v>       0.67058458       0.83311850       0.78018832 </v>
   <v>       0.82762045       0.00000000       0.21892872 </v>
   <v>       0.82496664       0.00000000       0.71867153 </v>
   <v>       0.82770389       0.33345443       0.21923836 </v>
   <v>       0.82429043       0.33358416       0.71918886 </v>
   <v>       0.82770389       0.66654557       0.21923836 </v>
   <v>       0.82429043       0.66641584       0.71918886 </v>
   <v>       0.83191730       0.00000000       0.44532089 </v>
   <v>       0.82981283       0.00000000       0.94451602 </v>
   <v>       0.83052579       0.33441440       0.44540078 </v>
   <v>       0.83007467       0.33374470       0.94524834 </v>
   <v>       0.83052579       0.66558560       0.44540078 </v>
   <v>       0.83007467       0.66625530       0.94524834 </v>
   <v>       0.66950726       0.16676280       0.05450864 </v>
   <v>       0.66746550       0.16711544       0.55369720 </v>
   <v>       0.67242700       0.50000000       0.05613976 </v>
   <v>       0.66645011       0.50000000       0.55532637 </v>
   <v>       0.66950726       0.83323720       0.05450864 </v>
   <v>       0.66746550       0.83288456       0.55369720 </v>
   <v>       0.49891286       0.00000000       0.12821402 </v>
   <v>       0.49664105       0.00000000       0.62852197 </v>
   <v>       0.49866900       0.33424731       0.12778754 </v>
   <v>       0.49268162       0.33080269       0.62696137 </v>
   <v>       0.49866900       0.66575269       0.12778754 </v>
   <v>       0.49268162       0.66919731       0.62696137 </v>
   <v>       0.99932794       0.16988675       0.36605688 </v>
   <v>       0.00012175       0.16731549       0.87175811 </v>
   <v>       0.00393735       0.50000000       0.37199065 </v>
   <v>       0.00091152       0.50000000       0.87248077 </v>
   <v>       0.99932794       0.83011325       0.36605688 </v>
   <v>       0.00012175       0.83268451       0.87175811 </v>
   <v>       0.17192381       0.00000000       0.27021892 </v>
   <v>       0.17319015       0.00000000       0.78866843 </v>
   <v>       0.17254567       0.33299957       0.28038479 </v>
   <v>       0.17065028       0.33442681       0.78198060 </v>
   <v>       0.17254567       0.66700043       0.28038479 </v>
   <v>       0.17065028       0.66557319       0.78198060 </v>
   <v>       0.32771951       0.16807608       0.21693792 </v>
   <v>       0.33661785       0.17483031       0.73388034 </v>
   <v>       0.32704338       0.50000000       0.21782965 </v>
   <v>       0.32755113       0.50000000       0.72215808 </v>
   <v>       0.32771951       0.83192392       0.21693792 </v>
   <v>       0.33661785       0.82516969       0.73388034 </v>
   <v>       0.34343489       0.17157955       0.44005818 </v>
   <v>       0.33207333       0.16848661       0.95037424 </v>
   <v>       0.33374513       0.50000000       0.44490085 </v>
   <v>       0.33162968       0.50000000       0.94759625 </v>
   <v>       0.34343489       0.82842045       0.44005818 </v>
   <v>       0.33207333       0.83151339       0.95037424 </v>
   <v>       0.16684174       0.00000000       0.05156765 </v>
   <v>       0.16540185       0.33484203       0.05372453 </v>
   <v>       0.16744500       0.33968379       0.55514004 </v>
   <v>       0.16540185       0.66515797       0.05372453 </v>
   <v>       0.16744500       0.66031621       0.55514004 </v>
   <v>       0.21194708       0.00000000       0.54945865 </v>
  </varray>
 </structure>
</modeling>
