<?xml version="1.0" encoding="ISO-8859-1"?>
<modeling>
 <generator>
  <i name="program" type="string">vasp </i>
  <i name="version" type="string">6.4.2  </i>
  <i name="subversion" type="string">20Jul23 (build Nov 20 2024 16:57:20) complex                          parallel </i>
  <i name="platform" type="string">LinuxIFC </i>
  <i name="date" type="string">2025 03 03 </i>
  <i name="time" type="string">10:14:48 </i>
 </generator>
 <incar>
  <i type="int" name="ISTART">     0</i>
  <i type="string" name="PREC">Normal</i>
  <i type="string" name="ALGO">Fast</i>
  <i type="int" name="ISPIN">     1</i>
  <i type="int" name="ICHARG">     2</i>
  <i type="int" name="IBRION">    -1</i>
  <i name="EDIFF">      0.00001000</i>
  <i name="EDIFFG">     -0.00500000</i>
  <i type="int" name="NSW">     0</i>
  <i type="int" name="ISIF">     3</i>
  <i name="ENCUT">    450.00000000</i>
  <i type="logical" name="LREAL"> F  </i>
  <i type="logical" name="LPLANE"> T  </i>
  <i type="int" name="ISMEAR">     0</i>
  <i name="SIGMA">      0.05000000</i>
  <i type="logical" name="LWAVE"> T  </i>
  <i type="logical" name="LCHARG"> T  </i>
 </incar>
 <primitive_cell>
  <structure name="primitive_cell" >
   <crystal>
    <varray name="basis" >
     <v>      -1.54632649       6.22195014      -0.00061616 </v>
     <v>       1.54632649       6.22195014      -0.00061616 </v>
     <v>       0.00000000      -1.40199395      -5.73107378 </v>
    </varray>
    <i name="volume">    110.28189965 </i>
    <varray name="rec_basis" >
     <v>      -0.32334698       0.08035871      -0.01965817 </v>
     <v>       0.32334698       0.08035871      -0.01965817 </v>
     <v>       0.00000000      -0.00001728      -0.17448314 </v>
    </varray>
   </crystal>
   <varray name="positions" >
    <v>       0.65917719       0.65917719       0.31609453 </v>
    <v>       0.34082281       0.34082281       0.68390547 </v>
    <v>       0.09117515       0.09117515       0.79630113 </v>
    <v>       0.90882485       0.90882485       0.20369887 </v>
    <v>       0.49660075       0.49660075       0.25592039 </v>
    <v>       0.50339925       0.50339925       0.74407961 </v>
    <v>       0.17327121       0.17327121       0.56082439 </v>
    <v>       0.82672879       0.82672879       0.43917561 </v>
    <v>       0.83292540       0.83292540       0.88860444 </v>
    <v>       0.16707460       0.16707460       0.11139556 </v>
   </varray>
  </structure>
  <varray name="primitive_index" >
   <v type="int" >        1 </v>
   <v type="int" >        7 </v>
   <v type="int" >       13 </v>
   <v type="int" >       19 </v>
   <v type="int" >       85 </v>
   <v type="int" >       55 </v>
   <v type="int" >       61 </v>
   <v type="int" >       67 </v>
   <v type="int" >       74 </v>
   <v type="int" >       79 </v>
  </varray>
 </primitive_cell>
 <kpoints>
  <generation param="Gamma">
   <v type="int" name="divisions">       2        2        2 </v>
   <v name="usershift">      0.00000000       0.00000000       0.00000000 </v>
   <v name="genvec1">      0.50000000       0.00000000       0.00000000 </v>
   <v name="genvec2">      0.00000000       0.50000000       0.00000000 </v>
   <v name="genvec3">     -0.00000000       0.00000000       0.50000000 </v>
   <v name="shift">      0.00000000       0.00000000       0.00000000 </v>
  </generation>
  <varray name="kpointlist" >
   <v>       0.00000000       0.00000000       0.00000000 </v>
   <v>       0.50000000       0.00000000       0.00000000 </v>
   <v>       0.00000000       0.50000000       0.00000000 </v>
   <v>       0.50000000       0.50000000       0.00000000 </v>
   <v>       0.00000000       0.00000000       0.50000000 </v>
   <v>       0.50000000       0.00000000       0.50000000 </v>
   <v>       0.00000000       0.50000000       0.50000000 </v>
   <v>       0.50000000       0.50000000       0.50000000 </v>
  </varray>
  <varray name="weights" >
   <v>       0.12500000 </v>
   <v>       0.12500000 </v>
   <v>       0.12500000 </v>
   <v>       0.12500000 </v>
   <v>       0.12500000 </v>
   <v>       0.12500000 </v>
   <v>       0.12500000 </v>
   <v>       0.12500000 </v>
  </varray>
 </kpoints>
 <parameters>
  <separator name="general" >
   <i type="string" name="SYSTEM">unknown system</i>
   <i type="logical" name="LCOMPAT"> F  </i>
  </separator>
  <separator name="electronic" >
   <i type="string" name="PREC">normal</i>
   <i name="ENMAX">    450.00000000</i>
   <i name="ENAUG">    605.39200000</i>
   <i name="EDIFF">      0.00001000</i>
   <i type="int" name="IALGO">    68</i>
   <i type="int" name="IWAVPR">    10</i>
   <i type="int" name="NBANDS">   352</i>
   <i type="int" name="NBANDSLOW">    -1</i>
   <i type="int" name="NBANDSHIGH">    -1</i>
   <i name="NELECT">    576.00000000</i>
   <i type="int" name="TURBO">     0</i>
   <i type="int" name="IRESTART">     0</i>
   <i type="int" name="NREBOOT">     0</i>
   <i type="int" name="NMIN">     0</i>
   <i name="EREF">      0.00000000</i>
   <separator name="electronic smearing" >
    <i type="int" name="ISMEAR">     0</i>
    <i name="SIGMA">      0.05000000</i>
    <i name="KSPACING">      0.50000000</i>
    <i type="logical" name="KGAMMA"> T  </i>
    <i type="logical" name="KBLOWUP"> T  </i>
   </separator>
   <separator name="electronic projectors" >
    <i type="logical" name="LREAL"> F  </i>
    <v name="ROPT">      0.00000000      0.00000000</v>
    <i type="int" name="LMAXPAW">  -100</i>
    <i type="int" name="LMAXMIX">     2</i>
    <i type="logical" name="NLSPLINE"> F  </i>
   </separator>
   <separator name="electronic startup" >
    <i type="int" name="ISTART">     0</i>
    <i type="int" name="ICHARG">     2</i>
    <i type="int" name="INIWAV">     1</i>
   </separator>
   <separator name="electronic spin" >
    <i type="int" name="ISPIN">     1</i>
    <i type="logical" name="LNONCOLLINEAR"> F  </i>
    <v name="MAGMOM">      1.00000000      1.00000000      1.00000000      1.00000000      1.00000000      1.00000000      1.00000000      1.00000000      1.00000000      1.00000000      1.00000000      1.00000000      1.00000000      1.00000000      1.00000000      1.00000000      1.00000000      1.00000000      1.00000000      1.00000000
      1.00000000      1.00000000      1.00000000      1.00000000      1.00000000      1.00000000      1.00000000      1.00000000      1.00000000      1.00000000      1.00000000      1.00000000      1.00000000      1.00000000      1.00000000      1.00000000      1.00000000      1.00000000      1.00000000      1.00000000
      1.00000000      1.00000000      1.00000000      1.00000000      1.00000000      1.00000000      1.00000000      1.00000000      1.00000000      1.00000000      1.00000000      1.00000000      1.00000000      1.00000000      1.00000000      1.00000000      1.00000000      1.00000000      1.00000000      1.00000000
      1.00000000      1.00000000      1.00000000      1.00000000      1.00000000      1.00000000      1.00000000      1.00000000      1.00000000      1.00000000      1.00000000      1.00000000      1.00000000      1.00000000      1.00000000      1.00000000      1.00000000      1.00000000      1.00000000      1.00000000
      1.00000000      1.00000000      1.00000000      1.00000000      1.00000000      1.00000000      1.00000000      1.00000000      1.00000000      1.00000000      1.00000000      1.00000000      1.00000000      1.00000000      1.00000000      1.00000000      1.00000000      1.00000000      1.00000000      1.00000000
      1.00000000      1.00000000      1.00000000      1.00000000      1.00000000      1.00000000      1.00000000      1.00000000      1.00000000      1.00000000      1.00000000      1.00000000      1.00000000      1.00000000      1.00000000      1.00000000      1.00000000      1.00000000      1.00000000      1.00000000
</v>
    <i name="NUPDOWN">     -1.00000000</i>
    <i type="logical" name="LSORBIT"> F  </i>
    <v name="SAXIS">      0.00000000      0.00000000      1.00000000</v>
    <i type="logical" name="LSPIRAL"> F  </i>
    <v name="QSPIRAL">      0.00000000      0.00000000      0.00000000</v>
    <i type="logical" name="LZEROZ"> F  </i>
   </separator>
   <separator name="electronic exchange-correlation" >
    <i type="logical" name="LASPH"> F  </i>
    <i type="logical" name="LMETAGGA"> F  </i>
   </separator>
   <separator name="electronic convergence" >
    <i type="int" name="NELM">    60</i>
    <i type="int" name="NELMDL">    -5</i>
    <i type="int" name="NELMIN">     2</i>
    <i name="ENINI">    450.00000000</i>
    <separator name="electronic convergence detail" >
     <i type="logical" name="LDIAG"> T  </i>
     <i type="logical" name="LSUBROT"> F  </i>
     <i name="WEIMIN">      0.00000000</i>
     <i name="EBREAK">      0.00000001</i>
     <i name="DEPER">      0.30000000</i>
     <i type="int" name="NRMM">     4</i>
     <i name="TIME">      0.40000000</i>
    </separator>
   </separator>
   <separator name="electronic mixer" >
    <i name="AMIX">      0.40000000</i>
    <i name="BMIX">      1.00000000</i>
    <i name="AMIN">      0.10000000</i>
    <i name="AMIX_MAG">      1.60000000</i>
    <i name="BMIX_MAG">      1.00000000</i>
    <separator name="electronic mixer details" >
     <i type="int" name="IMIX">     4</i>
     <i type="logical" name="MIXFIRST"> F  </i>
     <i type="int" name="MAXMIX">   -45</i>
     <i name="WC">    100.00000000</i>
     <i type="int" name="INIMIX">     1</i>
     <i type="int" name="MIXPRE">     1</i>
     <i type="int" name="MREMOVE">     5</i>
    </separator>
   </separator>
   <separator name="electronic dipolcorrection" >
    <i type="logical" name="LDIPOL"> F  </i>
    <i type="logical" name="LMONO"> F  </i>
    <i type="int" name="IDIPOL">     0</i>
    <i name="EPSILON">      1.00000000</i>
    <v name="DIPOL">   -100.00000000   -100.00000000   -100.00000000</v>
    <i name="EFIELD">      0.00000000</i>
   </separator>
  </separator>
  <separator name="grids" >
   <i type="int" name="NGX">    70</i>
   <i type="int" name="NGY">    48</i>
   <i type="int" name="NGZ">    64</i>
   <i type="int" name="NGXF">   140</i>
   <i type="int" name="NGYF">    96</i>
   <i type="int" name="NGZF">   128</i>
   <i type="logical" name="ADDGRID"> F  </i>
  </separator>
  <separator name="ionic" >
   <i type="int" name="NSW">     0</i>
   <i type="int" name="IBRION">    -1</i>
   <i type="int" name="MDALGO">     0</i>
   <i type="int" name="ISIF">     3</i>
   <i name="PSTRESS">      0.00000000</i>
   <i name="EDIFFG">     -0.00500000</i>
   <i type="int" name="NFREE">     0</i>
   <i name="POTIM">      0.50000000</i>
   <i name="SMASS">     -3.00000000</i>
   <i name="SCALEE">      1.00000000</i>
  </separator>
  <separator name="ionic md" >
   <i name="TEBEG">      0.00010000</i>
   <i name="TEEND">      0.00010000</i>
   <i type="int" name="NBLOCK">     1</i>
   <i type="int" name="KBLOCK">     1</i>
   <i type="int" name="NPACO">   256</i>
   <i name="APACO">     10.00000000</i>
  </separator>
  <separator name="symmetry" >
   <i type="int" name="ISYM">     2</i>
   <i name="SYMPREC">      0.00001000</i>
  </separator>
  <separator name="dos" >
   <i type="int" name="LORBIT">     0</i>
   <v name="RWIGS">     -1.00000000     -1.00000000</v>
   <i type="int" name="NEDOS">   301</i>
   <i name="EMIN">     10.00000000</i>
   <i name="EMAX">    -10.00000000</i>
   <i name="EFERMI">      0.00000000</i>
  </separator>
  <separator name="writing" >
   <i type="int" name="NWRITE">     2</i>
   <i type="logical" name="LWAVE"> T  </i>
   <i type="logical" name="LDOWNSAMPLE"> F  </i>
   <i type="logical" name="LCHARG"> T  </i>
   <i type="logical" name="LPARD"> F  </i>
   <i type="logical" name="LVTOT"> F  </i>
   <i type="logical" name="LVHAR"> F  </i>
   <i type="logical" name="LELF"> F  </i>
   <i type="logical" name="LOPTICS"> F  </i>
   <v name="STM">      0.00000000      0.00000000      0.00000000      0.00000000      0.00000000      0.00000000      0.00000000</v>
  </separator>
  <separator name="performance" >
   <i type="int" name="NPAR">     8</i>
   <i type="int" name="NSIM">     4</i>
   <i type="int" name="NBLK">    -1</i>
   <i type="logical" name="LPLANE"> T  </i>
   <i type="logical" name="LSCALAPACK"> T  </i>
   <i type="logical" name="LSCAAWARE"> F  </i>
   <i type="logical" name="LSCALU"> F  </i>
   <i type="logical" name="LASYNC"> F  </i>
   <i type="logical" name="LORBITALREAL"> F  </i>
  </separator>
  <separator name="miscellaneous" >
   <i type="int" name="IDIOT">     3</i>
   <i type="int" name="PHON_NSTRUCT">    -1</i>
   <i type="logical" name="LMUSIC"> F  </i>
   <v name="POMASS">     69.72300000     16.00000000</v>
   <v name="DARWINR">      0.00000000      0.00000000</v>
   <v name="DARWINV">      1.00000000      1.00000000</v>
   <i type="logical" name="LCORR"> T  </i>
  </separator>
  <i type="logical" name="GGA_COMPAT"> T  </i>
  <i type="logical" name="LBERRY"> F  </i>
  <i type="int" name="ICORELEVEL">     0</i>
  <i type="logical" name="LDAU"> F  </i>
  <i type="int" name="I_CONSTRAINED_M">     0</i>
  <separator name="electronic exchange-correlation" >
   <i type="string" name="GGA">--</i>
   <i type="int" name="VOSKOWN">     0</i>
   <i type="logical" name="LHFCALC"> F  </i>
   <i type="string" name="PRECFOCK"></i>
   <i type="logical" name="LSYMGRAD"> F  </i>
   <i type="logical" name="LHFONE"> F  </i>
   <i type="logical" name="LRHFCALC"> F  </i>
   <i type="logical" name="LTHOMAS"> F  </i>
   <i type="logical" name="LMODELHF"> F  </i>
   <i type="logical" name="LFOCKACE"> F  </i>
   <i name="ENCUT4O">     -1.00000000</i>
   <i type="int" name="EXXOEP">     0</i>
   <i type="int" name="FOURORBIT">     0</i>
   <i name="AEXX">      0.00000000</i>
   <i name="HFALPHA">      0.00000000</i>
   <i name="MCALPHA">      0.00000000</i>
   <i name="ALDAX">      1.00000000</i>
   <i name="AGGAX">      1.00000000</i>
   <i name="ALDAC">      1.00000000</i>
   <i name="AGGAC">      1.00000000</i>
   <i type="int" name="NKREDX">     1</i>
   <i type="int" name="NKREDY">     1</i>
   <i type="int" name="NKREDZ">     1</i>
   <i type="logical" name="SHIFTRED"> F  </i>
   <i type="logical" name="ODDONLY"> F  </i>
   <i type="logical" name="EVENONLY"> F  </i>
   <i type="int" name="LMAXFOCK">     0</i>
   <i type="int" name="NMAXFOCKAE">     0</i>
   <i type="logical" name="LFOCKAEDFT"> F  </i>
   <i name="HFSCREEN">      0.00000000</i>
   <i name="HFSCREENC">      0.00000000</i>
   <i type="int" name="NBANDSGWLOW">     0</i>
  </separator>
  <separator name="vdW DFT" >
   <i type="logical" name="LUSE_VDW"> F  </i>
   <i type="int" name="IVDW_NL">     1</i>
   <i type="logical" name="LSPIN_VDW"> F  </i>
   <i name="Zab_VDW">     -0.84910000</i>
   <i name="PARAM1">      0.12340000</i>
   <i name="PARAM2">      1.00000000</i>
   <i name="PARAM3">      0.00000000</i>
  </separator>
  <separator name="model GW" >
   <i type="int" name="MODEL_GW">     0</i>
   <i name="MODEL_EPS0">      6.61691398</i>
   <i name="MODEL_ALPHA">      1.00000000</i>
  </separator>
  <separator name="linear response parameters" >
   <i type="logical" name="LEPSILON"> F  </i>
   <i type="logical" name="LRPA"> F  </i>
   <i type="logical" name="LNABLA"> F  </i>
   <i type="logical" name="LVEL"> F  </i>
   <i name="CSHIFT">      0.10000000</i>
   <i name="OMEGAMAX">     -1.00000000</i>
   <i name="DEG_THRESHOLD">      0.00200000</i>
   <i name="RTIME">     -0.10000000</i>
   <i name="WPLASMAI">      0.00000000</i>
   <v name="DFIELD">      0.00000000      0.00000000      0.00000000</v>
   <v name="WPLASMA">      0.00000000      0.00000000      0.00000000      0.00000000      0.00000000      0.00000000      0.00000000      0.00000000      0.00000000</v>
  </separator>
  <separator name="orbital magnetization" >
   <i type="logical" name="NUCIND"> F  </i>
   <v name="MAGPOS">      0.00000000      0.00000000      0.00000000</v>
   <i type="logical" name="LNICSALL"> T  </i>
   <i type="logical" name="ORBITALMAG"> F  </i>
   <i type="logical" name="LMAGBLOCH"> F  </i>
   <i type="logical" name="LCHIMAG"> F  </i>
   <i type="logical" name="LGAUGE"> T  </i>
   <i type="int" name="MAGATOM">     0</i>
   <v name="MAGDIPOL">      0.00000000      0.00000000      0.00000000</v>
   <v name="AVECCONST">      0.00000000      0.00000000      0.00000000</v>
  </separator>
  <separator name="response functions" >
   <i type="logical" name="LALL_IN_ONE"> F  </i>
   <i type="int" name="IALL_IN_ONE">    -1</i>
   <i type="int" name="NBANDS_WAVE">    -1</i>
   <i type="logical" name="LFINITE_TEMPERATURE"> F  </i>
   <i type="logical" name="LADDER"> F  </i>
   <i type="logical" name="LRPAFORCE"> F  </i>
   <i type="logical" name="LFXC"> F  </i>
   <i type="logical" name="LHARTREE"> T  </i>
   <i type="int" name="IBSE">     0</i>
   <v type="int" name="KPOINT">    -1     0     0     0</v>
   <i type="logical" name="LTCTC"> F  </i>
   <i type="logical" name="LTCTE"> F  </i>
   <i type="logical" name="LTETE"> F  </i>
   <i type="logical" name="LTRIPLET"> F  </i>
   <i type="logical" name="LFXCEPS"> F  </i>
   <i type="logical" name="LFXHEG"> F  </i>
   <i type="int" name="NATURALO">     2</i>
   <i type="logical" name="LHOLEGF"> F  </i>
   <i type="logical" name="L2ORDER"> F  </i>
   <i type="logical" name="LDMP1"> F  </i>
   <i type="logical" name="LMP2LT"> F  </i>
   <i type="logical" name="LSMP2LT"> F  </i>
   <i type="logical" name="LGWLF"> F  </i>
   <i name="ENCUTGW">     -1.60000002</i>
   <i name="ENCUTGWSOFT">     -1.60000002</i>
   <i name="ENCUTLF">     -1.00000000</i>
   <i type="logical" name="LESF_SPLINES"> F  </i>
   <i type="int" name="LMAXMP2">    -1</i>
   <i name="SCISSOR">      0.00000000</i>
   <i type="int" name="NOMEGA">     0</i>
   <i type="int" name="NOMEGAR">     0</i>
   <i type="int" name="NBANDSGW">    -1</i>
   <i type="int" name="NBANDSO">    -1</i>
   <i type="int" name="NBANDSV">    -1</i>
   <i type="int" name="NELMGW">     1</i>
   <i type="int" name="NELMHF">     1</i>
   <i type="int" name="DIM">     3</i>
   <i type="int" name="IESPILON">     4</i>
   <i type="int" name="ANTIRES">     0</i>
   <i name="OMEGAMAX">    -30.00000000</i>
   <i name="OMEGAMIN">    -30.00000000</i>
   <i name="OMEGATL">   -200.00000000</i>
   <i type="int" name="OMEGAGRID">     0</i>
   <i name="CSHIFT">     -0.10000000</i>
   <i type="logical" name="LSELFENERGY"> F  </i>
   <i type="logical" name="LSPECTRAL"> F  </i>
   <i type="logical" name="LSPECTRALGW"> F  </i>
   <i type="logical" name="LSINGLES"> F  </i>
   <i type="logical" name="LFERMIGW"> F  </i>
   <i type="logical" name="ODDONLYGW"> F  </i>
   <i type="logical" name="EVENONLYGW"> F  </i>
   <i type="int" name="NKREDLFX">     1</i>
   <i type="int" name="NKREDLFY">     1</i>
   <i type="int" name="NKREDLFZ">     1</i>
   <i type="int" name="MAXMEM">  2800</i>
   <i type="int" name="TELESCOPE">     0</i>
   <i type="int" name="NTAUPAR">    -1</i>
   <i type="int" name="NOMEGAPAR">    -1</i>
   <i name="DAMP_NEWTON">      0.80000001</i>
   <i name="LAMBDA">      1.00000000</i>
  </separator>
  <separator name="External order field" >
   <i name="OFIELD_KAPPA">      0.00000000</i>
   <v name="OFIELD_K">      0.00000000      0.00000000      0.00000000</v>
   <i name="OFIELD_Q6_NEAR">      0.00000000</i>
   <i name="OFIELD_Q6_FAR">      0.00000000</i>
   <i name="OFIELD_A">      0.00000000</i>
  </separator>
  <separator name="optional k-points parameters" >
   <i type="int" name="KPOINTS_OPT_MODE">     1</i>
   <i type="logical" name="LKPOINTS_OPT"> F  </i>
  </separator>
 </parameters>
 <atominfo>
  <atoms>     120 </atoms>
  <types>       2 </types>
  <array name="atoms" >
   <dimension dim="1">ion</dimension>
   <field type="string">element</field>
   <field type="int">atomtype</field>
   <set>
    <rc><c>Ga</c><c>   1</c></rc>
    <rc><c>Ga</c><c>   1</c></rc>
    <rc><c>Ga</c><c>   1</c></rc>
    <rc><c>Ga</c><c>   1</c></rc>
    <rc><c>Ga</c><c>   1</c></rc>
    <rc><c>Ga</c><c>   1</c></rc>
    <rc><c>Ga</c><c>   1</c></rc>
    <rc><c>Ga</c><c>   1</c></rc>
    <rc><c>Ga</c><c>   1</c></rc>
    <rc><c>Ga</c><c>   1</c></rc>
    <rc><c>Ga</c><c>   1</c></rc>
    <rc><c>Ga</c><c>   1</c></rc>
    <rc><c>Ga</c><c>   1</c></rc>
    <rc><c>Ga</c><c>   1</c></rc>
    <rc><c>Ga</c><c>   1</c></rc>
    <rc><c>Ga</c><c>   1</c></rc>
    <rc><c>Ga</c><c>   1</c></rc>
    <rc><c>Ga</c><c>   1</c></rc>
    <rc><c>Ga</c><c>   1</c></rc>
    <rc><c>Ga</c><c>   1</c></rc>
    <rc><c>Ga</c><c>   1</c></rc>
    <rc><c>Ga</c><c>   1</c></rc>
    <rc><c>Ga</c><c>   1</c></rc>
    <rc><c>Ga</c><c>   1</c></rc>
    <rc><c>Ga</c><c>   1</c></rc>
    <rc><c>Ga</c><c>   1</c></rc>
    <rc><c>Ga</c><c>   1</c></rc>
    <rc><c>Ga</c><c>   1</c></rc>
    <rc><c>Ga</c><c>   1</c></rc>
    <rc><c>Ga</c><c>   1</c></rc>
    <rc><c>Ga</c><c>   1</c></rc>
    <rc><c>Ga</c><c>   1</c></rc>
    <rc><c>Ga</c><c>   1</c></rc>
    <rc><c>Ga</c><c>   1</c></rc>
    <rc><c>Ga</c><c>   1</c></rc>
    <rc><c>Ga</c><c>   1</c></rc>
    <rc><c>Ga</c><c>   1</c></rc>
    <rc><c>Ga</c><c>   1</c></rc>
    <rc><c>Ga</c><c>   1</c></rc>
    <rc><c>Ga</c><c>   1</c></rc>
    <rc><c>Ga</c><c>   1</c></rc>
    <rc><c>Ga</c><c>   1</c></rc>
    <rc><c>Ga</c><c>   1</c></rc>
    <rc><c>Ga</c><c>   1</c></rc>
    <rc><c>Ga</c><c>   1</c></rc>
    <rc><c>Ga</c><c>   1</c></rc>
    <rc><c>Ga</c><c>   1</c></rc>
    <rc><c>Ga</c><c>   1</c></rc>
    <rc><c>O </c><c>   2</c></rc>
    <rc><c>O </c><c>   2</c></rc>
    <rc><c>O </c><c>   2</c></rc>
    <rc><c>O </c><c>   2</c></rc>
    <rc><c>O </c><c>   2</c></rc>
    <rc><c>O </c><c>   2</c></rc>
    <rc><c>O </c><c>   2</c></rc>
    <rc><c>O </c><c>   2</c></rc>
    <rc><c>O </c><c>   2</c></rc>
    <rc><c>O </c><c>   2</c></rc>
    <rc><c>O </c><c>   2</c></rc>
    <rc><c>O </c><c>   2</c></rc>
    <rc><c>O </c><c>   2</c></rc>
    <rc><c>O </c><c>   2</c></rc>
    <rc><c>O </c><c>   2</c></rc>
    <rc><c>O </c><c>   2</c></rc>
    <rc><c>O </c><c>   2</c></rc>
    <rc><c>O </c><c>   2</c></rc>
    <rc><c>O </c><c>   2</c></rc>
    <rc><c>O </c><c>   2</c></rc>
    <rc><c>O </c><c>   2</c></rc>
    <rc><c>O </c><c>   2</c></rc>
    <rc><c>O </c><c>   2</c></rc>
    <rc><c>O </c><c>   2</c></rc>
    <rc><c>O </c><c>   2</c></rc>
    <rc><c>O </c><c>   2</c></rc>
    <rc><c>O </c><c>   2</c></rc>
    <rc><c>O </c><c>   2</c></rc>
    <rc><c>O </c><c>   2</c></rc>
    <rc><c>O </c><c>   2</c></rc>
    <rc><c>O </c><c>   2</c></rc>
    <rc><c>O </c><c>   2</c></rc>
    <rc><c>O </c><c>   2</c></rc>
    <rc><c>O </c><c>   2</c></rc>
    <rc><c>O </c><c>   2</c></rc>
    <rc><c>O </c><c>   2</c></rc>
    <rc><c>O </c><c>   2</c></rc>
    <rc><c>O </c><c>   2</c></rc>
    <rc><c>O </c><c>   2</c></rc>
    <rc><c>O </c><c>   2</c></rc>
    <rc><c>O </c><c>   2</c></rc>
    <rc><c>O </c><c>   2</c></rc>
    <rc><c>O </c><c>   2</c></rc>
    <rc><c>O </c><c>   2</c></rc>
    <rc><c>O </c><c>   2</c></rc>
    <rc><c>O </c><c>   2</c></rc>
    <rc><c>O </c><c>   2</c></rc>
    <rc><c>O </c><c>   2</c></rc>
    <rc><c>O </c><c>   2</c></rc>
    <rc><c>O </c><c>   2</c></rc>
    <rc><c>O </c><c>   2</c></rc>
    <rc><c>O </c><c>   2</c></rc>
    <rc><c>O </c><c>   2</c></rc>
    <rc><c>O </c><c>   2</c></rc>
    <rc><c>O </c><c>   2</c></rc>
    <rc><c>O </c><c>   2</c></rc>
    <rc><c>O </c><c>   2</c></rc>
    <rc><c>O </c><c>   2</c></rc>
    <rc><c>O </c><c>   2</c></rc>
    <rc><c>O </c><c>   2</c></rc>
    <rc><c>O </c><c>   2</c></rc>
    <rc><c>O </c><c>   2</c></rc>
    <rc><c>O </c><c>   2</c></rc>
    <rc><c>O </c><c>   2</c></rc>
    <rc><c>O </c><c>   2</c></rc>
    <rc><c>O </c><c>   2</c></rc>
    <rc><c>O </c><c>   2</c></rc>
    <rc><c>O </c><c>   2</c></rc>
    <rc><c>O </c><c>   2</c></rc>
    <rc><c>O </c><c>   2</c></rc>
    <rc><c>O </c><c>   2</c></rc>
    <rc><c>O </c><c>   2</c></rc>
   </set>
  </array>
  <array name="atomtypes" >
   <dimension dim="1">type</dimension>
   <field type="int">atomspertype</field>
   <field type="string">element</field>
   <field>mass</field>
   <field>valence</field>
   <field type="string">pseudopotential</field>
   <set>
    <rc><c>  48</c><c>Ga</c><c>     69.72300000</c><c>      3.00000000</c><c>  PAW_PBE Ga 08Apr2002                  </c></rc>
    <rc><c>  72</c><c>O </c><c>     16.00000000</c><c>      6.00000000</c><c>  PAW_PBE O 08Apr2002                   </c></rc>
   </set>
  </array>
 </atominfo>
 <structure name="initialpos" >
  <crystal>
   <varray name="basis" >
    <v>       0.00000000      12.44390028      -0.00123231 </v>
    <v>       9.27795893       0.00000000       0.00000000 </v>
    <v>       0.00000000      -2.80398790     -11.46214757 </v>
   </varray>
   <i name="volume">   1323.38279581 </i>
   <varray name="rec_basis" >
    <v>       0.00000000       0.08035871      -0.01965817 </v>
    <v>       0.10778233       0.00000000       0.00000000 </v>
    <v>       0.00000000      -0.00000864      -0.08724157 </v>
   </varray>
  </crystal>
  <varray name="positions" >
   <v>       0.65917719       0.00000000       0.15804727 </v>
   <v>       0.65917719       0.00000000       0.65804727 </v>
   <v>       0.65917719       0.33333333       0.15804727 </v>
   <v>       0.65917719       0.33333333       0.65804727 </v>
   <v>       0.65917719       0.66666667       0.15804727 </v>
   <v>       0.65917719       0.66666667       0.65804727 </v>
   <v>       0.84082281       0.16666667       0.34195273 </v>
   <v>       0.84082281       0.16666667       0.84195273 </v>
   <v>       0.84082281       0.50000000       0.34195273 </v>
   <v>       0.84082281       0.50000000       0.84195273 </v>
   <v>       0.84082281       0.83333333       0.34195273 </v>
   <v>       0.84082281       0.83333333       0.84195273 </v>
   <v>       0.59117515       0.16666667       0.39815057 </v>
   <v>       0.59117515       0.16666667       0.89815057 </v>
   <v>       0.59117515       0.50000000       0.39815057 </v>
   <v>       0.59117515       0.50000000       0.89815057 </v>
   <v>       0.59117515       0.83333333       0.39815057 </v>
   <v>       0.59117515       0.83333333       0.89815057 </v>
   <v>       0.90882485       0.00000000       0.10184943 </v>
   <v>       0.90882485       0.00000000       0.60184943 </v>
   <v>       0.90882485       0.33333333       0.10184943 </v>
   <v>       0.90882485       0.33333333       0.60184943 </v>
   <v>       0.90882485       0.66666667       0.10184943 </v>
   <v>       0.90882485       0.66666667       0.60184943 </v>
   <v>       0.15917719       0.16666667       0.15804727 </v>
   <v>       0.15917719       0.16666667       0.65804727 </v>
   <v>       0.15917719       0.50000000       0.15804727 </v>
   <v>       0.15917719       0.50000000       0.65804727 </v>
   <v>       0.15917719       0.83333333       0.15804727 </v>
   <v>       0.15917719       0.83333333       0.65804727 </v>
   <v>       0.34082281       0.00000000       0.34195273 </v>
   <v>       0.34082281       0.00000000       0.84195273 </v>
   <v>       0.34082281       0.33333333       0.34195273 </v>
   <v>       0.34082281       0.33333333       0.84195273 </v>
   <v>       0.34082281       0.66666667       0.34195273 </v>
   <v>       0.34082281       0.66666667       0.84195273 </v>
   <v>       0.09117515       0.00000000       0.39815057 </v>
   <v>       0.09117515       0.00000000       0.89815057 </v>
   <v>       0.09117515       0.33333333       0.39815057 </v>
   <v>       0.09117515       0.33333333       0.89815057 </v>
   <v>       0.09117515       0.66666667       0.39815057 </v>
   <v>       0.09117515       0.66666667       0.89815057 </v>
   <v>       0.40882485       0.16666667       0.10184943 </v>
   <v>       0.40882485       0.16666667       0.60184943 </v>
   <v>       0.40882485       0.50000000       0.10184943 </v>
   <v>       0.40882485       0.50000000       0.60184943 </v>
   <v>       0.40882485       0.83333333       0.10184943 </v>
   <v>       0.40882485       0.83333333       0.60184943 </v>
   <v>       0.99660075       0.16666667       0.12796019 </v>
   <v>       0.99660075       0.16666667       0.62796019 </v>
   <v>       0.99660075       0.50000000       0.12796019 </v>
   <v>       0.99660075       0.50000000       0.62796019 </v>
   <v>       0.99660075       0.83333333       0.12796019 </v>
   <v>       0.99660075       0.83333333       0.62796019 </v>
   <v>       0.50339925       0.00000000       0.37203981 </v>
   <v>       0.50339925       0.00000000       0.87203981 </v>
   <v>       0.50339925       0.33333333       0.37203981 </v>
   <v>       0.50339925       0.33333333       0.87203981 </v>
   <v>       0.50339925       0.66666667       0.37203981 </v>
   <v>       0.50339925       0.66666667       0.87203981 </v>
   <v>       0.67327121       0.16666667       0.28041220 </v>
   <v>       0.67327121       0.16666667       0.78041220 </v>
   <v>       0.67327121       0.50000000       0.28041220 </v>
   <v>       0.67327121       0.50000000       0.78041220 </v>
   <v>       0.67327121       0.83333333       0.28041220 </v>
   <v>       0.67327121       0.83333333       0.78041220 </v>
   <v>       0.82672879       0.00000000       0.21958780 </v>
   <v>       0.82672879       0.00000000       0.71958780 </v>
   <v>       0.82672879       0.33333333       0.21958780 </v>
   <v>       0.82672879       0.33333333       0.71958780 </v>
   <v>       0.82672879       0.66666667       0.21958780 </v>
   <v>       0.82672879       0.66666667       0.71958780 </v>
   <v>       0.83292540       0.00000000       0.44430222 </v>
   <v>       0.83292540       0.00000000       0.94430222 </v>
   <v>       0.83292540       0.33333333       0.44430222 </v>
   <v>       0.83292540       0.33333333       0.94430222 </v>
   <v>       0.83292540       0.66666667       0.44430222 </v>
   <v>       0.83292540       0.66666667       0.94430222 </v>
   <v>       0.66707460       0.16666667       0.05569778 </v>
   <v>       0.66707460       0.16666667       0.55569778 </v>
   <v>       0.66707460       0.50000000       0.05569778 </v>
   <v>       0.66707460       0.50000000       0.55569778 </v>
   <v>       0.66707460       0.83333333       0.05569778 </v>
   <v>       0.66707460       0.83333333       0.55569778 </v>
   <v>       0.49660075       0.00000000       0.12796019 </v>
   <v>       0.49660075       0.00000000       0.62796019 </v>
   <v>       0.49660075       0.33333333       0.12796019 </v>
   <v>       0.49660075       0.33333333       0.62796019 </v>
   <v>       0.49660075       0.66666667       0.12796019 </v>
   <v>       0.49660075       0.66666667       0.62796019 </v>
   <v>       0.00339925       0.16666667       0.37203981 </v>
   <v>       0.00339925       0.16666667       0.87203981 </v>
   <v>       0.00339925       0.50000000       0.37203981 </v>
   <v>       0.00339925       0.50000000       0.87203981 </v>
   <v>       0.00339925       0.83333333       0.37203981 </v>
   <v>       0.00339925       0.83333333       0.87203981 </v>
   <v>       0.17327121       0.00000000       0.28041220 </v>
   <v>       0.17327121       0.00000000       0.78041220 </v>
   <v>       0.17327121       0.33333333       0.28041220 </v>
   <v>       0.17327121       0.33333333       0.78041220 </v>
   <v>       0.17327121       0.66666667       0.28041220 </v>
   <v>       0.17327121       0.66666667       0.78041220 </v>
   <v>       0.32672879       0.16666667       0.21958780 </v>
   <v>       0.32672879       0.16666667       0.71958780 </v>
   <v>       0.32672879       0.50000000       0.21958780 </v>
   <v>       0.32672879       0.50000000       0.71958780 </v>
   <v>       0.32672879       0.83333333       0.21958780 </v>
   <v>       0.32672879       0.83333333       0.71958780 </v>
   <v>       0.33292540       0.16666667       0.44430222 </v>
   <v>       0.33292540       0.16666667       0.94430222 </v>
   <v>       0.33292540       0.50000000       0.44430222 </v>
   <v>       0.33292540       0.50000000       0.94430222 </v>
   <v>       0.33292540       0.83333333       0.44430222 </v>
   <v>       0.33292540       0.83333333       0.94430222 </v>
   <v>       0.16707460       0.00000000       0.05569778 </v>
   <v>       0.16707460       0.00000000       0.55569778 </v>
   <v>       0.16707460       0.33333333       0.05569778 </v>
   <v>       0.16707460       0.33333333       0.55569778 </v>
   <v>       0.16707460       0.66666667       0.05569778 </v>
   <v>       0.16707460       0.66666667       0.55569778 </v>
  </varray>
 </structure>
 <calculation>
  <scstep>
   <time name="dav">   20.52   20.53</time>
   <time name="total">   20.57   20.58</time>
   <energy>
    <i name="alphaZ">   1967.99298829 </i>
    <i name="ewald"> -25963.92746655 </i>
    <i name="hartreedc">  -8756.75052025 </i>
    <i name="XCdc">   1074.31399690 </i>
    <i name="pawpsdc">  27930.71880214 </i>
    <i name="pawaedc"> -26922.85479401 </i>
    <i name="eentropy">     -0.02250307 </i>
    <i name="bandstr">     97.00889777 </i>
    <i name="atom">  33954.16929759 </i>
    <i name="e_fr_energy">   3380.64869883 </i>
    <i name="e_wo_entrp">   3380.67120189 </i>
    <i name="e_0_energy">   3380.65995036 </i>
   </energy>
  </scstep>
  <scstep>
   <time name="dav">   23.29   23.29</time>
   <time name="total">   23.29   23.29</time>
   <energy>
    <i name="e_fr_energy">   -535.53582314 </i>
    <i name="e_wo_entrp">   -535.53582314 </i>
    <i name="e_0_energy">   -535.53582314 </i>
   </energy>
  </scstep>
  <scstep>
   <time name="dav">   22.48   22.48</time>
   <time name="total">   22.48   22.48</time>
   <energy>
    <i name="e_fr_energy">   -828.52359699 </i>
    <i name="e_wo_entrp">   -828.52359699 </i>
    <i name="e_0_energy">   -828.52359699 </i>
   </energy>
  </scstep>
  <scstep>
   <time name="dav">   24.62   24.63</time>
   <time name="total">   24.62   24.63</time>
   <energy>
    <i name="e_fr_energy">   -835.31897657 </i>
    <i name="e_wo_entrp">   -835.31897657 </i>
    <i name="e_0_energy">   -835.31897657 </i>
   </energy>
  </scstep>
  <scstep>
   <time name="dav">   22.97   22.98</time>
   <time name="total">   23.22   23.23</time>
   <energy>
    <i name="e_fr_energy">   -835.43547305 </i>
    <i name="e_wo_entrp">   -835.43547305 </i>
    <i name="e_0_energy">   -835.43547305 </i>
   </energy>
  </scstep>
  <scstep>
   <time name="diag">    1.44    1.44</time>
   <time name="diis">   12.57   12.57</time>
   <time name="orth">    0.42    0.42</time>
   <time name="total">   14.73   14.73</time>
   <energy>
    <i name="e_fr_energy">   -720.43519122 </i>
    <i name="e_wo_entrp">   -720.43519122 </i>
    <i name="e_0_energy">   -720.43519122 </i>
   </energy>
  </scstep>
  <scstep>
   <time name="diag">    1.42    1.42</time>
   <time name="diis">   13.54   13.54</time>
   <time name="orth">    0.41    0.41</time>
   <time name="total">   15.67   15.68</time>
   <energy>
    <i name="e_fr_energy">   -722.55954325 </i>
    <i name="e_wo_entrp">   -722.55954325 </i>
    <i name="e_0_energy">   -722.55954325 </i>
   </energy>
  </scstep>
  <scstep>
   <time name="diag">    1.40    1.40</time>
   <time name="diis">   13.58   13.58</time>
   <time name="orth">    0.45    0.45</time>
   <time name="total">   15.72   15.72</time>
   <energy>
    <i name="e_fr_energy">   -721.21924109 </i>
    <i name="e_wo_entrp">   -721.21924109 </i>
    <i name="e_0_energy">   -721.21924109 </i>
   </energy>
  </scstep>
  <scstep>
   <time name="diag">    1.39    1.39</time>
   <time name="diis">   15.59   15.59</time>
   <time name="orth">    0.41    0.41</time>
   <time name="total">   17.67   17.68</time>
   <energy>
    <i name="e_fr_energy">   -721.32856318 </i>
    <i name="e_wo_entrp">   -721.32856318 </i>
    <i name="e_0_energy">   -721.32856318 </i>
   </energy>
  </scstep>
  <scstep>
   <time name="diag">    1.44    1.44</time>
   <time name="diis">   14.64   14.64</time>
   <time name="orth">    0.42    0.42</time>
   <time name="total">   16.80   16.80</time>
   <energy>
    <i name="e_fr_energy">   -721.35206969 </i>
    <i name="e_wo_entrp">   -721.35206969 </i>
    <i name="e_0_energy">   -721.35206969 </i>
   </energy>
  </scstep>
  <scstep>
   <time name="diag">    1.39    1.39</time>
   <time name="diis">   14.93   14.93</time>
   <time name="orth">    0.43    0.43</time>
   <time name="total">   17.03   17.03</time>
   <energy>
    <i name="e_fr_energy">   -721.35779080 </i>
    <i name="e_wo_entrp">   -721.35779080 </i>
    <i name="e_0_energy">   -721.35779080 </i>
   </energy>
  </scstep>
  <scstep>
   <time name="diag">    1.37    1.37</time>
   <time name="diis">   15.81   15.81</time>
   <time name="orth">    0.51    0.51</time>
   <time name="total">   17.98   17.98</time>
   <energy>
    <i name="e_fr_energy">   -721.35849968 </i>
    <i name="e_wo_entrp">   -721.35849968 </i>
    <i name="e_0_energy">   -721.35849968 </i>
   </energy>
  </scstep>
  <scstep>
   <time name="diag">    1.42    1.42</time>
   <time name="diis">   15.23   15.24</time>
   <time name="orth">    0.43    0.43</time>
   <time name="total">   17.37   17.37</time>
   <energy>
    <i name="e_fr_energy">   -721.35859946 </i>
    <i name="e_wo_entrp">   -721.35859946 </i>
    <i name="e_0_energy">   -721.35859946 </i>
   </energy>
  </scstep>
  <scstep>
   <time name="diag">    1.41    1.41</time>
   <time name="diis">   13.90   13.90</time>
   <time name="orth">    0.47    0.47</time>
   <time name="total">   16.07   16.08</time>
   <energy>
    <i name="e_fr_energy">   -721.35863570 </i>
    <i name="e_wo_entrp">   -721.35863570 </i>
    <i name="e_0_energy">   -721.35863570 </i>
   </energy>
  </scstep>
  <scstep>
   <time name="diag">    1.42    1.43</time>
   <time name="diis">   10.95   10.96</time>
   <time name="orth">    0.42    0.42</time>
   <time name="total">   12.84   12.84</time>
   <energy>
    <i name="alphaZ">   1967.99298829 </i>
    <i name="ewald"> -25963.92746655 </i>
    <i name="hartreedc"> -10066.43462013 </i>
    <i name="XCdc">   1180.05151409 </i>
    <i name="pawpsdc">  54485.84394873 </i>
    <i name="pawaedc"> -53517.33754846 </i>
    <i name="eentropy">     -0.00000000 </i>
    <i name="bandstr">  -2761.71675726 </i>
    <i name="atom">  33954.16929759 </i>
    <i name="e_fr_energy">   -721.35864369 </i>
    <i name="e_wo_entrp">   -721.35864369 </i>
    <i name="e_0_energy">   -721.35864369 </i>
   </energy>
  </scstep>
  <structure>
   <crystal>
    <varray name="basis" >
     <v>       0.00000000      12.44390028      -0.00123231 </v>
     <v>       9.27795893       0.00000000       0.00000000 </v>
     <v>       0.00000000      -2.80398790     -11.46214757 </v>
    </varray>
    <i name="volume">   1323.38279581 </i>
    <varray name="rec_basis" >
     <v>       0.00000000       0.08035871      -0.01965817 </v>
     <v>       0.10778233       0.00000000       0.00000000 </v>
     <v>       0.00000000      -0.00000864      -0.08724157 </v>
    </varray>
   </crystal>
   <varray name="positions" >
    <v>       0.65917719       0.00000000       0.15804727 </v>
    <v>       0.65917719       0.00000000       0.65804727 </v>
    <v>       0.65917719       0.33333333       0.15804727 </v>
    <v>       0.65917719       0.33333333       0.65804727 </v>
    <v>       0.65917719       0.66666667       0.15804727 </v>
    <v>       0.65917719       0.66666667       0.65804727 </v>
    <v>       0.84082281       0.16666667       0.34195273 </v>
    <v>       0.84082281       0.16666667       0.84195273 </v>
    <v>       0.84082281       0.50000000       0.34195273 </v>
    <v>       0.84082281       0.50000000       0.84195273 </v>
    <v>       0.84082281       0.83333333       0.34195273 </v>
    <v>       0.84082281       0.83333333       0.84195273 </v>
    <v>       0.59117515       0.16666667       0.39815057 </v>
    <v>       0.59117515       0.16666667       0.89815057 </v>
    <v>       0.59117515       0.50000000       0.39815057 </v>
    <v>       0.59117515       0.50000000       0.89815057 </v>
    <v>       0.59117515       0.83333333       0.39815057 </v>
    <v>       0.59117515       0.83333333       0.89815057 </v>
    <v>       0.90882485       0.00000000       0.10184943 </v>
    <v>       0.90882485       0.00000000       0.60184943 </v>
    <v>       0.90882485       0.33333333       0.10184943 </v>
    <v>       0.90882485       0.33333333       0.60184943 </v>
    <v>       0.90882485       0.66666667       0.10184943 </v>
    <v>       0.90882485       0.66666667       0.60184943 </v>
    <v>       0.15917719       0.16666667       0.15804727 </v>
    <v>       0.15917719       0.16666667       0.65804727 </v>
    <v>       0.15917719       0.50000000       0.15804727 </v>
    <v>       0.15917719       0.50000000       0.65804727 </v>
    <v>       0.15917719       0.83333333       0.15804727 </v>
    <v>       0.15917719       0.83333333       0.65804727 </v>
    <v>       0.34082281       0.00000000       0.34195273 </v>
    <v>       0.34082281       0.00000000       0.84195273 </v>
    <v>       0.34082281       0.33333333       0.34195273 </v>
    <v>       0.34082281       0.33333333       0.84195273 </v>
    <v>       0.34082281       0.66666667       0.34195273 </v>
    <v>       0.34082281       0.66666667       0.84195273 </v>
    <v>       0.09117515       0.00000000       0.39815057 </v>
    <v>       0.09117515       0.00000000       0.89815057 </v>
    <v>       0.09117515       0.33333333       0.39815057 </v>
    <v>       0.09117515       0.33333333       0.89815057 </v>
    <v>       0.09117515       0.66666667       0.39815057 </v>
    <v>       0.09117515       0.66666667       0.89815057 </v>
    <v>       0.40882485       0.16666667       0.10184943 </v>
    <v>       0.40882485       0.16666667       0.60184943 </v>
    <v>       0.40882485       0.50000000       0.10184943 </v>
    <v>       0.40882485       0.50000000       0.60184943 </v>
    <v>       0.40882485       0.83333333       0.10184943 </v>
    <v>       0.40882485       0.83333333       0.60184943 </v>
    <v>       0.99660075       0.16666667       0.12796019 </v>
    <v>       0.99660075       0.16666667       0.62796019 </v>
    <v>       0.99660075       0.50000000       0.12796019 </v>
    <v>       0.99660075       0.50000000       0.62796019 </v>
    <v>       0.99660075       0.83333333       0.12796019 </v>
    <v>       0.99660075       0.83333333       0.62796019 </v>
    <v>       0.50339925       0.00000000       0.37203981 </v>
    <v>       0.50339925       0.00000000       0.87203981 </v>
    <v>       0.50339925       0.33333333       0.37203981 </v>
    <v>       0.50339925       0.33333333       0.87203981 </v>
    <v>       0.50339925       0.66666667       0.37203981 </v>
    <v>       0.50339925       0.66666667       0.87203981 </v>
    <v>       0.67327121       0.16666667       0.28041220 </v>
    <v>       0.67327121       0.16666667       0.78041220 </v>
    <v>       0.67327121       0.50000000       0.28041220 </v>
    <v>       0.67327121       0.50000000       0.78041220 </v>
    <v>       0.67327121       0.83333333       0.28041220 </v>
    <v>       0.67327121       0.83333333       0.78041220 </v>
    <v>       0.82672879       0.00000000       0.21958780 </v>
    <v>       0.82672879       0.00000000       0.71958780 </v>
    <v>       0.82672879       0.33333333       0.21958780 </v>
    <v>       0.82672879       0.33333333       0.71958780 </v>
    <v>       0.82672879       0.66666667       0.21958780 </v>
    <v>       0.82672879       0.66666667       0.71958780 </v>
    <v>       0.83292540       0.00000000       0.44430222 </v>
    <v>       0.83292540       0.00000000       0.94430222 </v>
    <v>       0.83292540       0.33333333       0.44430222 </v>
    <v>       0.83292540       0.33333333       0.94430222 </v>
    <v>       0.83292540       0.66666667       0.44430222 </v>
    <v>       0.83292540       0.66666667       0.94430222 </v>
    <v>       0.66707460       0.16666667       0.05569778 </v>
    <v>       0.66707460       0.16666667       0.55569778 </v>
    <v>       0.66707460       0.50000000       0.05569778 </v>
    <v>       0.66707460       0.50000000       0.55569778 </v>
    <v>       0.66707460       0.83333333       0.05569778 </v>
    <v>       0.66707460       0.83333333       0.55569778 </v>
    <v>       0.49660075       0.00000000       0.12796019 </v>
    <v>       0.49660075       0.00000000       0.62796019 </v>
    <v>       0.49660075       0.33333333       0.12796019 </v>
    <v>       0.49660075       0.33333333       0.62796019 </v>
    <v>       0.49660075       0.66666667       0.12796019 </v>
    <v>       0.49660075       0.66666667       0.62796019 </v>
    <v>       0.00339925       0.16666667       0.37203981 </v>
    <v>       0.00339925       0.16666667       0.87203981 </v>
    <v>       0.00339925       0.50000000       0.37203981 </v>
    <v>       0.00339925       0.50000000       0.87203981 </v>
    <v>       0.00339925       0.83333333       0.37203981 </v>
    <v>       0.00339925       0.83333333       0.87203981 </v>
    <v>       0.17327121       0.00000000       0.28041220 </v>
    <v>       0.17327121       0.00000000       0.78041220 </v>
    <v>       0.17327121       0.33333333       0.28041220 </v>
    <v>       0.17327121       0.33333333       0.78041220 </v>
    <v>       0.17327121       0.66666667       0.28041220 </v>
    <v>       0.17327121       0.66666667       0.78041220 </v>
    <v>       0.32672879       0.16666667       0.21958780 </v>
    <v>       0.32672879       0.16666667       0.71958780 </v>
    <v>       0.32672879       0.50000000       0.21958780 </v>
    <v>       0.32672879       0.50000000       0.71958780 </v>
    <v>       0.32672879       0.83333333       0.21958780 </v>
    <v>       0.32672879       0.83333333       0.71958780 </v>
    <v>       0.33292540       0.16666667       0.44430222 </v>
    <v>       0.33292540       0.16666667       0.94430222 </v>
    <v>       0.33292540       0.50000000       0.44430222 </v>
    <v>       0.33292540       0.50000000       0.94430222 </v>
    <v>       0.33292540       0.83333333       0.44430222 </v>
    <v>       0.33292540       0.83333333       0.94430222 </v>
    <v>       0.16707460       0.00000000       0.05569778 </v>
    <v>       0.16707460       0.00000000       0.55569778 </v>
    <v>       0.16707460       0.33333333       0.05569778 </v>
    <v>       0.16707460       0.33333333       0.55569778 </v>
    <v>       0.16707460       0.66666667       0.05569778 </v>
    <v>       0.16707460       0.66666667       0.55569778 </v>
   </varray>
  </structure>
  <varray name="forces" >
   <v>       0.00000000      -0.00252019       0.00217342 </v>
   <v>       0.00000000      -0.00252019       0.00217342 </v>
   <v>      -0.00000000      -0.00252019       0.00217342 </v>
   <v>       0.00000000      -0.00252019       0.00217342 </v>
   <v>       0.00000000      -0.00252019       0.00217342 </v>
   <v>       0.00000000      -0.00252019       0.00217342 </v>
   <v>      -0.00000000       0.00252019      -0.00217342 </v>
   <v>       0.00000000       0.00252019      -0.00217342 </v>
   <v>       0.00000000       0.00252019      -0.00217342 </v>
   <v>      -0.00000000       0.00252019      -0.00217342 </v>
   <v>       0.00000000       0.00252019      -0.00217342 </v>
   <v>       0.00000000       0.00252019      -0.00217342 </v>
   <v>      -0.00000000       0.00303434      -0.00280570 </v>
   <v>       0.00000000       0.00303434      -0.00280570 </v>
   <v>       0.00000000       0.00303434      -0.00280570 </v>
   <v>      -0.00000000       0.00303434      -0.00280570 </v>
   <v>       0.00000000       0.00303434      -0.00280570 </v>
   <v>      -0.00000000       0.00303434      -0.00280570 </v>
   <v>      -0.00000000      -0.00303434       0.00280570 </v>
   <v>       0.00000000      -0.00303434       0.00280570 </v>
   <v>       0.00000000      -0.00303434       0.00280570 </v>
   <v>       0.00000000      -0.00303434       0.00280570 </v>
   <v>       0.00000000      -0.00303434       0.00280570 </v>
   <v>       0.00000000      -0.00303434       0.00280570 </v>
   <v>       0.00000000      -0.00252019       0.00217342 </v>
   <v>      -0.00000000      -0.00252019       0.00217342 </v>
   <v>      -0.00000000      -0.00252019       0.00217342 </v>
   <v>       0.00000000      -0.00252019       0.00217342 </v>
   <v>       0.00000000      -0.00252019       0.00217342 </v>
   <v>       0.00000000      -0.00252019       0.00217342 </v>
   <v>       0.00000000       0.00252019      -0.00217342 </v>
   <v>      -0.00000000       0.00252019      -0.00217342 </v>
   <v>       0.00000000       0.00252019      -0.00217342 </v>
   <v>      -0.00000000       0.00252019      -0.00217342 </v>
   <v>       0.00000000       0.00252019      -0.00217342 </v>
   <v>       0.00000000       0.00252019      -0.00217342 </v>
   <v>       0.00000000       0.00303434      -0.00280570 </v>
   <v>      -0.00000000       0.00303434      -0.00280570 </v>
   <v>       0.00000000       0.00303434      -0.00280570 </v>
   <v>      -0.00000000       0.00303434      -0.00280570 </v>
   <v>       0.00000000       0.00303434      -0.00280570 </v>
   <v>       0.00000000       0.00303434      -0.00280570 </v>
   <v>      -0.00000000      -0.00303434       0.00280570 </v>
   <v>      -0.00000000      -0.00303434       0.00280570 </v>
   <v>      -0.00000000      -0.00303434       0.00280570 </v>
   <v>       0.00000000      -0.00303434       0.00280570 </v>
   <v>      -0.00000000      -0.00303434       0.00280570 </v>
   <v>       0.00000000      -0.00303434       0.00280570 </v>
   <v>       0.00000000       0.00252439       0.01165266 </v>
   <v>      -0.00000000       0.00252439       0.01165266 </v>
   <v>      -0.00000000       0.00252439       0.01165266 </v>
   <v>      -0.00000000       0.00252439       0.01165266 </v>
   <v>       0.00000000       0.00252439       0.01165266 </v>
   <v>      -0.00000000       0.00252439       0.01165266 </v>
   <v>       0.00000000      -0.00252439      -0.01165266 </v>
   <v>      -0.00000000      -0.00252439      -0.01165266 </v>
   <v>       0.00000000      -0.00252439      -0.01165266 </v>
   <v>       0.00000000      -0.00252439      -0.01165266 </v>
   <v>      -0.00000000      -0.00252439      -0.01165266 </v>
   <v>      -0.00000000      -0.00252439      -0.01165266 </v>
   <v>      -0.00000000      -0.00383214       0.00653970 </v>
   <v>      -0.00000000      -0.00383214       0.00653970 </v>
   <v>      -0.00000000      -0.00383214       0.00653970 </v>
   <v>       0.00000000      -0.00383214       0.00653970 </v>
   <v>       0.00000000      -0.00383214       0.00653970 </v>
   <v>      -0.00000000      -0.00383214       0.00653970 </v>
   <v>      -0.00000000       0.00383214      -0.00653970 </v>
   <v>       0.00000000       0.00383214      -0.00653970 </v>
   <v>       0.00000000       0.00383214      -0.00653970 </v>
   <v>      -0.00000000       0.00383214      -0.00653970 </v>
   <v>       0.00000000       0.00383214      -0.00653970 </v>
   <v>       0.00000000       0.00383214      -0.00653970 </v>
   <v>      -0.00000000       0.00334063       0.00733684 </v>
   <v>      -0.00000000       0.00334063       0.00733684 </v>
   <v>      -0.00000000       0.00334063       0.00733684 </v>
   <v>      -0.00000000       0.00334063       0.00733684 </v>
   <v>       0.00000000       0.00334063       0.00733684 </v>
   <v>      -0.00000000       0.00334063       0.00733684 </v>
   <v>       0.00000000      -0.00334063      -0.00733684 </v>
   <v>      -0.00000000      -0.00334063      -0.00733684 </v>
   <v>      -0.00000000      -0.00334063      -0.00733684 </v>
   <v>      -0.00000000      -0.00334063      -0.00733684 </v>
   <v>       0.00000000      -0.00334063      -0.00733684 </v>
   <v>       0.00000000      -0.00334063      -0.00733684 </v>
   <v>       0.00000000       0.00252439       0.01165266 </v>
   <v>       0.00000000       0.00252439       0.01165266 </v>
   <v>       0.00000000       0.00252439       0.01165266 </v>
   <v>       0.00000000       0.00252439       0.01165266 </v>
   <v>      -0.00000000       0.00252439       0.01165266 </v>
   <v>      -0.00000000       0.00252439       0.01165266 </v>
   <v>      -0.00000000      -0.00252439      -0.01165266 </v>
   <v>       0.00000000      -0.00252439      -0.01165266 </v>
   <v>      -0.00000000      -0.00252439      -0.01165266 </v>
   <v>      -0.00000000      -0.00252439      -0.01165266 </v>
   <v>      -0.00000000      -0.00252439      -0.01165266 </v>
   <v>       0.00000000      -0.00252439      -0.01165266 </v>
   <v>       0.00000000      -0.00383214       0.00653970 </v>
   <v>      -0.00000000      -0.00383214       0.00653970 </v>
   <v>       0.00000000      -0.00383214       0.00653970 </v>
   <v>       0.00000000      -0.00383214       0.00653970 </v>
   <v>       0.00000000      -0.00383214       0.00653970 </v>
   <v>      -0.00000000      -0.00383214       0.00653970 </v>
   <v>      -0.00000000       0.00383214      -0.00653970 </v>
   <v>       0.00000000       0.00383214      -0.00653970 </v>
   <v>       0.00000000       0.00383214      -0.00653970 </v>
   <v>      -0.00000000       0.00383214      -0.00653970 </v>
   <v>      -0.00000000       0.00383214      -0.00653970 </v>
   <v>       0.00000000       0.00383214      -0.00653970 </v>
   <v>       0.00000000       0.00334063       0.00733684 </v>
   <v>      -0.00000000       0.00334063       0.00733684 </v>
   <v>       0.00000000       0.00334063       0.00733684 </v>
   <v>      -0.00000000       0.00334063       0.00733684 </v>
   <v>       0.00000000       0.00334063       0.00733684 </v>
   <v>       0.00000000       0.00334063       0.00733684 </v>
   <v>       0.00000000      -0.00334063      -0.00733684 </v>
   <v>       0.00000000      -0.00334063      -0.00733684 </v>
   <v>       0.00000000      -0.00334063      -0.00733684 </v>
   <v>      -0.00000000      -0.00334063      -0.00733684 </v>
   <v>      -0.00000000      -0.00334063      -0.00733684 </v>
   <v>       0.00000000      -0.00334063      -0.00733684 </v>
  </varray>
  <varray name="stress" >
   <v>       6.39814632       0.00000000       0.00000000 </v>
   <v>       0.00000000       5.91946186      -0.10185831 </v>
   <v>       0.00000000      -0.10185833       6.13558473 </v>
  </varray>
  <energy>
   <i name="e_fr_energy">   -721.35864369 </i>
   <i name="e_wo_entrp">   -721.35864369 </i>
   <i name="e_0_energy">   -721.35864369 </i>
  </energy>
  <time name="totalsc">  305.83  305.94</time>
  <eigenvalues>
   <array>
    <dimension dim="1">band</dimension>
    <dimension dim="2">kpoint</dimension>
    <dimension dim="3">spin</dimension>
    <field>eigene</field>
    <field>occ</field>
    <set>
     <set comment="spin 1">
      <set comment="kpoint 1">
       <r>  -17.0586    1.0000 </r>
       <r>  -16.7385    1.0000 </r>
       <r>  -16.6577    1.0000 </r>
       <r>  -16.5430    1.0000 </r>
       <r>  -16.4948    1.0000 </r>
       <r>  -16.2845    1.0000 </r>
       <r>  -16.2845    1.0000 </r>
       <r>  -16.2490    1.0000 </r>
       <r>  -16.1725    1.0000 </r>
       <r>  -16.0647    1.0000 </r>
       <r>  -16.0647    1.0000 </r>
       <r>  -16.0425    1.0000 </r>
       <r>  -16.0425    1.0000 </r>
       <r>  -16.0259    1.0000 </r>
       <r>  -15.9378    1.0000 </r>
       <r>  -15.9378    1.0000 </r>
       <r>  -15.8671    1.0000 </r>
       <r>  -15.8671    1.0000 </r>
       <r>  -15.6136    1.0000 </r>
       <r>  -15.6136    1.0000 </r>
       <r>  -15.5613    1.0000 </r>
       <r>  -15.5613    1.0000 </r>
       <r>  -15.5582    1.0000 </r>
       <r>  -15.5538    1.0000 </r>
       <r>  -15.5441    1.0000 </r>
       <r>  -15.5377    1.0000 </r>
       <r>  -15.4776    1.0000 </r>
       <r>  -15.4374    1.0000 </r>
       <r>  -15.4374    1.0000 </r>
       <r>  -15.3346    1.0000 </r>
       <r>  -15.3346    1.0000 </r>
       <r>  -15.3246    1.0000 </r>
       <r>  -15.2801    1.0000 </r>
       <r>  -15.2801    1.0000 </r>
       <r>  -15.2552    1.0000 </r>
       <r>  -15.2322    1.0000 </r>
       <r>  -15.2322    1.0000 </r>
       <r>  -15.1923    1.0000 </r>
       <r>  -15.1923    1.0000 </r>
       <r>  -15.1748    1.0000 </r>
       <r>  -15.1396    1.0000 </r>
       <r>  -15.1310    1.0000 </r>
       <r>  -15.1310    1.0000 </r>
       <r>  -15.1300    1.0000 </r>
       <r>  -15.1300    1.0000 </r>
       <r>  -15.0523    1.0000 </r>
       <r>  -15.0523    1.0000 </r>
       <r>  -15.0188    1.0000 </r>
       <r>  -14.9703    1.0000 </r>
       <r>  -14.9703    1.0000 </r>
       <r>  -14.9365    1.0000 </r>
       <r>  -14.8877    1.0000 </r>
       <r>  -14.8829    1.0000 </r>
       <r>  -14.8829    1.0000 </r>
       <r>  -14.8312    1.0000 </r>
       <r>  -14.7492    1.0000 </r>
       <r>  -14.7420    1.0000 </r>
       <r>  -14.7420    1.0000 </r>
       <r>  -14.7190    1.0000 </r>
       <r>  -14.7190    1.0000 </r>
       <r>  -14.7071    1.0000 </r>
       <r>  -14.7071    1.0000 </r>
       <r>  -14.6987    1.0000 </r>
       <r>  -14.6987    1.0000 </r>
       <r>  -14.6429    1.0000 </r>
       <r>  -14.6429    1.0000 </r>
       <r>  -14.6221    1.0000 </r>
       <r>  -14.6221    1.0000 </r>
       <r>  -14.5822    1.0000 </r>
       <r>  -14.5815    1.0000 </r>
       <r>  -14.5561    1.0000 </r>
       <r>  -14.5561    1.0000 </r>
       <r>   -5.3381    1.0000 </r>
       <r>   -5.3373    1.0000 </r>
       <r>   -5.0672    1.0000 </r>
       <r>   -5.0672    1.0000 </r>
       <r>   -4.7412    1.0000 </r>
       <r>   -4.7412    1.0000 </r>
       <r>   -4.6833    1.0000 </r>
       <r>   -4.6833    1.0000 </r>
       <r>   -4.6558    1.0000 </r>
       <r>   -4.6558    1.0000 </r>
       <r>   -4.6323    1.0000 </r>
       <r>   -4.5640    1.0000 </r>
       <r>   -4.5274    1.0000 </r>
       <r>   -4.5274    1.0000 </r>
       <r>   -4.5232    1.0000 </r>
       <r>   -4.5232    1.0000 </r>
       <r>   -4.4595    1.0000 </r>
       <r>   -4.4595    1.0000 </r>
       <r>   -4.3815    1.0000 </r>
       <r>   -4.3452    1.0000 </r>
       <r>   -4.2303    1.0000 </r>
       <r>   -4.2303    1.0000 </r>
       <r>   -4.1005    1.0000 </r>
       <r>   -4.1005    1.0000 </r>
       <r>   -4.0496    1.0000 </r>
       <r>   -4.0442    1.0000 </r>
       <r>   -4.0442    1.0000 </r>
       <r>   -3.9608    1.0000 </r>
       <r>   -3.9232    1.0000 </r>
       <r>   -3.9232    1.0000 </r>
       <r>   -3.8720    1.0000 </r>
       <r>   -3.8720    1.0000 </r>
       <r>   -3.8698    1.0000 </r>
       <r>   -3.8698    1.0000 </r>
       <r>   -3.6641    1.0000 </r>
       <r>   -3.5255    1.0000 </r>
       <r>   -3.5255    1.0000 </r>
       <r>   -3.4979    1.0000 </r>
       <r>   -3.4979    1.0000 </r>
       <r>   -3.3958    1.0000 </r>
       <r>   -3.3843    1.0000 </r>
       <r>   -3.3650    1.0000 </r>
       <r>   -3.3650    1.0000 </r>
       <r>   -3.1986    1.0000 </r>
       <r>   -3.1079    1.0000 </r>
       <r>   -3.0418    1.0000 </r>
       <r>   -3.0418    1.0000 </r>
       <r>   -2.8625    1.0000 </r>
       <r>   -2.8625    1.0000 </r>
       <r>   -2.8500    1.0000 </r>
       <r>   -2.8500    1.0000 </r>
       <r>   -2.7578    1.0000 </r>
       <r>   -2.7578    1.0000 </r>
       <r>   -2.7428    1.0000 </r>
       <r>   -2.7428    1.0000 </r>
       <r>   -2.7072    1.0000 </r>
       <r>   -2.6708    1.0000 </r>
       <r>   -2.6708    1.0000 </r>
       <r>   -2.5880    1.0000 </r>
       <r>   -2.3709    1.0000 </r>
       <r>   -2.3621    1.0000 </r>
       <r>   -2.3621    1.0000 </r>
       <r>   -2.3483    1.0000 </r>
       <r>   -2.3483    1.0000 </r>
       <r>   -2.2264    1.0000 </r>
       <r>   -2.2264    1.0000 </r>
       <r>   -2.2252    1.0000 </r>
       <r>   -2.2252    1.0000 </r>
       <r>   -2.0795    1.0000 </r>
       <r>   -2.0452    1.0000 </r>
       <r>   -2.0452    1.0000 </r>
       <r>   -1.9984    1.0000 </r>
       <r>   -1.9984    1.0000 </r>
       <r>   -1.9285    1.0000 </r>
       <r>   -1.9285    1.0000 </r>
       <r>   -1.9172    1.0000 </r>
       <r>   -1.9172    1.0000 </r>
       <r>   -1.8820    1.0000 </r>
       <r>   -1.8308    1.0000 </r>
       <r>   -1.8308    1.0000 </r>
       <r>   -1.7358    1.0000 </r>
       <r>   -1.6057    1.0000 </r>
       <r>   -1.6057    1.0000 </r>
       <r>   -1.5867    1.0000 </r>
       <r>   -1.5867    1.0000 </r>
       <r>   -1.5148    1.0000 </r>
       <r>   -1.5017    1.0000 </r>
       <r>   -1.4552    1.0000 </r>
       <r>   -1.4552    1.0000 </r>
       <r>   -1.4044    1.0000 </r>
       <r>   -1.4044    1.0000 </r>
       <r>   -1.3219    1.0000 </r>
       <r>   -1.3200    1.0000 </r>
       <r>   -1.3200    1.0000 </r>
       <r>   -1.1897    1.0000 </r>
       <r>   -1.1467    1.0000 </r>
       <r>   -1.1312    1.0000 </r>
       <r>   -1.0775    1.0000 </r>
       <r>   -1.0775    1.0000 </r>
       <r>   -1.0728    1.0000 </r>
       <r>   -1.0262    1.0000 </r>
       <r>   -1.0262    1.0000 </r>
       <r>   -1.0203    1.0000 </r>
       <r>   -1.0203    1.0000 </r>
       <r>   -0.9924    1.0000 </r>
       <r>   -0.9870    1.0000 </r>
       <r>   -0.9838    1.0000 </r>
       <r>   -0.8735    1.0000 </r>
       <r>   -0.8735    1.0000 </r>
       <r>   -0.8574    1.0000 </r>
       <r>   -0.8467    1.0000 </r>
       <r>   -0.8467    1.0000 </r>
       <r>   -0.8381    1.0000 </r>
       <r>   -0.8073    1.0000 </r>
       <r>   -0.8073    1.0000 </r>
       <r>   -0.7943    1.0000 </r>
       <r>   -0.7943    1.0000 </r>
       <r>   -0.7941    1.0000 </r>
       <r>   -0.7941    1.0000 </r>
       <r>   -0.7391    1.0000 </r>
       <r>   -0.6977    1.0000 </r>
       <r>   -0.6780    1.0000 </r>
       <r>   -0.6780    1.0000 </r>
       <r>   -0.6287    1.0000 </r>
       <r>   -0.5996    1.0000 </r>
       <r>   -0.5996    1.0000 </r>
       <r>   -0.5925    1.0000 </r>
       <r>   -0.5572    1.0000 </r>
       <r>   -0.5161    1.0000 </r>
       <r>   -0.4996    1.0000 </r>
       <r>   -0.4956    1.0000 </r>
       <r>   -0.4956    1.0000 </r>
       <r>   -0.4301    1.0000 </r>
       <r>   -0.4244    1.0000 </r>
       <r>   -0.4081    1.0000 </r>
       <r>   -0.3055    1.0000 </r>
       <r>   -0.2746    1.0000 </r>
       <r>   -0.2746    1.0000 </r>
       <r>   -0.2064    1.0000 </r>
       <r>   -0.0838    1.0000 </r>
       <r>   -0.0582    1.0000 </r>
       <r>   -0.0582    1.0000 </r>
       <r>   -0.0549    1.0000 </r>
       <r>    0.0003    1.0000 </r>
       <r>    0.0023    1.0000 </r>
       <r>    0.0384    1.0000 </r>
       <r>    0.1145    1.0000 </r>
       <r>    0.1163    1.0000 </r>
       <r>    0.1163    1.0000 </r>
       <r>    0.1921    1.0000 </r>
       <r>    0.1921    1.0000 </r>
       <r>    0.2314    1.0000 </r>
       <r>    0.2314    1.0000 </r>
       <r>    0.2541    1.0000 </r>
       <r>    0.2541    1.0000 </r>
       <r>    0.2658    1.0000 </r>
       <r>    0.2708    1.0000 </r>
       <r>    0.2976    1.0000 </r>
       <r>    0.2976    1.0000 </r>
       <r>    0.3127    1.0000 </r>
       <r>    0.3127    1.0000 </r>
       <r>    0.3136    1.0000 </r>
       <r>    0.3136    1.0000 </r>
       <r>    0.3724    1.0000 </r>
       <r>    0.3724    1.0000 </r>
       <r>    0.4055    1.0000 </r>
       <r>    0.4055    1.0000 </r>
       <r>    0.4748    1.0000 </r>
       <r>    0.4860    1.0000 </r>
       <r>    0.5102    1.0000 </r>
       <r>    0.5814    1.0000 </r>
       <r>    0.5814    1.0000 </r>
       <r>    0.6177    1.0000 </r>
       <r>    0.6177    1.0000 </r>
       <r>    0.6400    1.0000 </r>
       <r>    0.6400    1.0000 </r>
       <r>    0.6750    1.0000 </r>
       <r>    0.6750    1.0000 </r>
       <r>    0.6832    1.0000 </r>
       <r>    0.6948    1.0000 </r>
       <r>    0.6948    1.0000 </r>
       <r>    0.7310    1.0000 </r>
       <r>    0.7333    1.0000 </r>
       <r>    0.7450    1.0000 </r>
       <r>    0.7473    1.0000 </r>
       <r>    0.7749    1.0000 </r>
       <r>    0.7950    1.0000 </r>
       <r>    0.8104    1.0000 </r>
       <r>    0.8316    1.0000 </r>
       <r>    0.8316    1.0000 </r>
       <r>    0.8519    1.0000 </r>
       <r>    0.8519    1.0000 </r>
       <r>    0.8657    1.0000 </r>
       <r>    0.8657    1.0000 </r>
       <r>    0.9032    1.0000 </r>
       <r>    0.9163    1.0000 </r>
       <r>    0.9227    1.0000 </r>
       <r>    1.0318    1.0000 </r>
       <r>    1.0443    1.0000 </r>
       <r>    1.0443    1.0000 </r>
       <r>    1.1030    1.0000 </r>
       <r>    1.1030    1.0000 </r>
       <r>    1.1140    1.0000 </r>
       <r>    1.1268    1.0000 </r>
       <r>    1.1268    1.0000 </r>
       <r>    1.1980    1.0000 </r>
       <r>    1.1980    1.0000 </r>
       <r>    1.2082    1.0000 </r>
       <r>    1.2294    1.0000 </r>
       <r>    1.3660    1.0000 </r>
       <r>    1.4430    1.0000 </r>
       <r>    1.4430    1.0000 </r>
       <r>    1.4561    1.0000 </r>
       <r>    1.4561    1.0000 </r>
       <r>    1.4879    1.0000 </r>
       <r>    1.5309    1.0000 </r>
       <r>    3.4255    0.0000 </r>
       <r>    5.6319    0.0000 </r>
       <r>    5.7956    0.0000 </r>
       <r>    5.8436    0.0000 </r>
       <r>    5.9377    0.0000 </r>
       <r>    6.1853    0.0000 </r>
       <r>    6.3601    0.0000 </r>
       <r>    6.7070    0.0000 </r>
       <r>    6.7103    0.0000 </r>
       <r>    6.7103    0.0000 </r>
       <r>    6.8416    0.0000 </r>
       <r>    6.8416    0.0000 </r>
       <r>    7.0029    0.0000 </r>
       <r>    7.0029    0.0000 </r>
       <r>    7.1007    0.0000 </r>
       <r>    7.2722    0.0000 </r>
       <r>    7.2809    0.0000 </r>
       <r>    7.2809    0.0000 </r>
       <r>    7.2872    0.0000 </r>
       <r>    7.2872    0.0000 </r>
       <r>    7.3610    0.0000 </r>
       <r>    7.3610    0.0000 </r>
       <r>    7.4031    0.0000 </r>
       <r>    7.4031    0.0000 </r>
       <r>    7.5413    0.0000 </r>
       <r>    7.5642    0.0000 </r>
       <r>    7.7308    0.0000 </r>
       <r>    7.7308    0.0000 </r>
       <r>    7.7445    0.0000 </r>
       <r>    7.7681    0.0000 </r>
       <r>    7.8575    0.0000 </r>
       <r>    7.8575    0.0000 </r>
       <r>    7.9353    0.0000 </r>
       <r>    7.9794    0.0000 </r>
       <r>    7.9794    0.0000 </r>
       <r>    8.2496    0.0000 </r>
       <r>    8.3179    0.0000 </r>
       <r>    8.4552    0.0000 </r>
       <r>    8.4553    0.0000 </r>
       <r>    8.5568    0.0000 </r>
       <r>    8.5576    0.0000 </r>
       <r>    8.6254    0.0000 </r>
       <r>    8.6257    0.0000 </r>
       <r>    8.7064    0.0000 </r>
       <r>    8.7072    0.0000 </r>
       <r>    8.8764    0.0000 </r>
       <r>    8.9603    0.0000 </r>
       <r>    8.9784    0.0000 </r>
       <r>    9.0826    0.0000 </r>
       <r>    9.0887    0.0000 </r>
       <r>    9.1404    0.0000 </r>
       <r>    9.1586    0.0000 </r>
       <r>    9.2501    0.0000 </r>
       <r>    9.2634    0.0000 </r>
       <r>    9.4409    0.0000 </r>
       <r>    9.8602    0.0000 </r>
       <r>    9.9485    0.0000 </r>
       <r>    9.9743    0.0000 </r>
       <r>   10.0151    0.0000 </r>
       <r>   10.0558    0.0000 </r>
       <r>   10.1680    0.0000 </r>
       <r>   10.2495    0.0000 </r>
       <r>   10.3453    0.0000 </r>
       <r>   10.5367    0.0000 </r>
      </set>
      <set comment="kpoint 2">
       <r>  -16.9379    1.0000 </r>
       <r>  -16.9379    1.0000 </r>
       <r>  -16.6658    1.0000 </r>
       <r>  -16.6658    1.0000 </r>
       <r>  -16.2093    1.0000 </r>
       <r>  -16.2093    1.0000 </r>
       <r>  -16.2093    1.0000 </r>
       <r>  -16.2093    1.0000 </r>
       <r>  -16.1652    1.0000 </r>
       <r>  -16.1652    1.0000 </r>
       <r>  -16.0404    1.0000 </r>
       <r>  -16.0404    1.0000 </r>
       <r>  -16.0000    1.0000 </r>
       <r>  -16.0000    1.0000 </r>
       <r>  -16.0000    1.0000 </r>
       <r>  -16.0000    1.0000 </r>
       <r>  -15.8941    1.0000 </r>
       <r>  -15.8941    1.0000 </r>
       <r>  -15.6302    1.0000 </r>
       <r>  -15.6302    1.0000 </r>
       <r>  -15.6302    1.0000 </r>
       <r>  -15.6302    1.0000 </r>
       <r>  -15.5392    1.0000 </r>
       <r>  -15.5392    1.0000 </r>
       <r>  -15.5315    1.0000 </r>
       <r>  -15.5315    1.0000 </r>
       <r>  -15.5315    1.0000 </r>
       <r>  -15.5315    1.0000 </r>
       <r>  -15.4395    1.0000 </r>
       <r>  -15.4395    1.0000 </r>
       <r>  -15.4395    1.0000 </r>
       <r>  -15.4395    1.0000 </r>
       <r>  -15.2496    1.0000 </r>
       <r>  -15.2496    1.0000 </r>
       <r>  -15.1603    1.0000 </r>
       <r>  -15.1603    1.0000 </r>
       <r>  -15.1306    1.0000 </r>
       <r>  -15.1306    1.0000 </r>
       <r>  -15.1306    1.0000 </r>
       <r>  -15.1306    1.0000 </r>
       <r>  -15.0735    1.0000 </r>
       <r>  -15.0735    1.0000 </r>
       <r>  -15.0607    1.0000 </r>
       <r>  -15.0607    1.0000 </r>
       <r>  -15.0607    1.0000 </r>
       <r>  -15.0607    1.0000 </r>
       <r>  -15.0343    1.0000 </r>
       <r>  -15.0343    1.0000 </r>
       <r>  -15.0343    1.0000 </r>
       <r>  -15.0343    1.0000 </r>
       <r>  -14.9468    1.0000 </r>
       <r>  -14.9468    1.0000 </r>
       <r>  -14.8718    1.0000 </r>
       <r>  -14.8718    1.0000 </r>
       <r>  -14.8718    1.0000 </r>
       <r>  -14.8718    1.0000 </r>
       <r>  -14.7384    1.0000 </r>
       <r>  -14.7384    1.0000 </r>
       <r>  -14.7171    1.0000 </r>
       <r>  -14.7171    1.0000 </r>
       <r>  -14.7171    1.0000 </r>
       <r>  -14.7171    1.0000 </r>
       <r>  -14.6353    1.0000 </r>
       <r>  -14.6353    1.0000 </r>
       <r>  -14.6289    1.0000 </r>
       <r>  -14.6289    1.0000 </r>
       <r>  -14.6289    1.0000 </r>
       <r>  -14.6289    1.0000 </r>
       <r>  -14.5975    1.0000 </r>
       <r>  -14.5975    1.0000 </r>
       <r>  -14.5975    1.0000 </r>
       <r>  -14.5975    1.0000 </r>
       <r>   -5.3357    1.0000 </r>
       <r>   -5.3357    1.0000 </r>
       <r>   -4.9302    1.0000 </r>
       <r>   -4.9302    1.0000 </r>
       <r>   -4.9302    1.0000 </r>
       <r>   -4.9302    1.0000 </r>
       <r>   -4.5681    1.0000 </r>
       <r>   -4.5681    1.0000 </r>
       <r>   -4.5681    1.0000 </r>
       <r>   -4.5681    1.0000 </r>
       <r>   -4.5053    1.0000 </r>
       <r>   -4.5053    1.0000 </r>
       <r>   -4.4705    1.0000 </r>
       <r>   -4.4705    1.0000 </r>
       <r>   -4.4705    1.0000 </r>
       <r>   -4.4705    1.0000 </r>
       <r>   -4.4628    1.0000 </r>
       <r>   -4.4628    1.0000 </r>
       <r>   -4.4361    1.0000 </r>
       <r>   -4.4361    1.0000 </r>
       <r>   -4.4361    1.0000 </r>
       <r>   -4.4361    1.0000 </r>
       <r>   -4.3480    1.0000 </r>
       <r>   -4.3480    1.0000 </r>
       <r>   -4.3480    1.0000 </r>
       <r>   -4.3480    1.0000 </r>
       <r>   -4.0403    1.0000 </r>
       <r>   -4.0403    1.0000 </r>
       <r>   -3.7615    1.0000 </r>
       <r>   -3.7615    1.0000 </r>
       <r>   -3.7615    1.0000 </r>
       <r>   -3.7615    1.0000 </r>
       <r>   -3.5596    1.0000 </r>
       <r>   -3.5596    1.0000 </r>
       <r>   -3.5596    1.0000 </r>
       <r>   -3.5596    1.0000 </r>
       <r>   -3.4265    1.0000 </r>
       <r>   -3.4265    1.0000 </r>
       <r>   -3.4102    1.0000 </r>
       <r>   -3.4102    1.0000 </r>
       <r>   -3.3081    1.0000 </r>
       <r>   -3.3081    1.0000 </r>
       <r>   -3.3081    1.0000 </r>
       <r>   -3.3081    1.0000 </r>
       <r>   -3.1100    1.0000 </r>
       <r>   -3.1100    1.0000 </r>
       <r>   -3.1100    1.0000 </r>
       <r>   -3.1100    1.0000 </r>
       <r>   -3.0405    1.0000 </r>
       <r>   -3.0405    1.0000 </r>
       <r>   -2.8660    1.0000 </r>
       <r>   -2.8660    1.0000 </r>
       <r>   -2.8660    1.0000 </r>
       <r>   -2.8660    1.0000 </r>
       <r>   -2.6125    1.0000 </r>
       <r>   -2.6125    1.0000 </r>
       <r>   -2.6125    1.0000 </r>
       <r>   -2.6125    1.0000 </r>
       <r>   -2.4546    1.0000 </r>
       <r>   -2.4546    1.0000 </r>
       <r>   -2.4546    1.0000 </r>
       <r>   -2.4546    1.0000 </r>
       <r>   -2.1462    1.0000 </r>
       <r>   -2.1462    1.0000 </r>
       <r>   -2.1083    1.0000 </r>
       <r>   -2.1083    1.0000 </r>
       <r>   -2.1083    1.0000 </r>
       <r>   -2.1083    1.0000 </r>
       <r>   -2.0643    1.0000 </r>
       <r>   -2.0643    1.0000 </r>
       <r>   -2.0643    1.0000 </r>
       <r>   -2.0643    1.0000 </r>
       <r>   -1.8589    1.0000 </r>
       <r>   -1.8589    1.0000 </r>
       <r>   -1.8589    1.0000 </r>
       <r>   -1.8589    1.0000 </r>
       <r>   -1.8161    1.0000 </r>
       <r>   -1.8161    1.0000 </r>
       <r>   -1.8161    1.0000 </r>
       <r>   -1.8161    1.0000 </r>
       <r>   -1.7713    1.0000 </r>
       <r>   -1.7713    1.0000 </r>
       <r>   -1.6805    1.0000 </r>
       <r>   -1.6805    1.0000 </r>
       <r>   -1.4928    1.0000 </r>
       <r>   -1.4928    1.0000 </r>
       <r>   -1.4928    1.0000 </r>
       <r>   -1.4928    1.0000 </r>
       <r>   -1.4590    1.0000 </r>
       <r>   -1.4590    1.0000 </r>
       <r>   -1.3877    1.0000 </r>
       <r>   -1.3877    1.0000 </r>
       <r>   -1.3542    1.0000 </r>
       <r>   -1.3542    1.0000 </r>
       <r>   -1.3542    1.0000 </r>
       <r>   -1.3542    1.0000 </r>
       <r>   -1.2023    1.0000 </r>
       <r>   -1.2023    1.0000 </r>
       <r>   -1.1928    1.0000 </r>
       <r>   -1.1928    1.0000 </r>
       <r>   -1.1928    1.0000 </r>
       <r>   -1.1928    1.0000 </r>
       <r>   -1.1438    1.0000 </r>
       <r>   -1.1438    1.0000 </r>
       <r>   -1.0777    1.0000 </r>
       <r>   -1.0777    1.0000 </r>
       <r>   -1.0469    1.0000 </r>
       <r>   -1.0469    1.0000 </r>
       <r>   -1.0469    1.0000 </r>
       <r>   -1.0469    1.0000 </r>
       <r>   -0.7788    1.0000 </r>
       <r>   -0.7788    1.0000 </r>
       <r>   -0.7421    1.0000 </r>
       <r>   -0.7421    1.0000 </r>
       <r>   -0.7421    1.0000 </r>
       <r>   -0.7421    1.0000 </r>
       <r>   -0.7366    1.0000 </r>
       <r>   -0.7366    1.0000 </r>
       <r>   -0.7366    1.0000 </r>
       <r>   -0.7366    1.0000 </r>
       <r>   -0.5700    1.0000 </r>
       <r>   -0.5700    1.0000 </r>
       <r>   -0.5509    1.0000 </r>
       <r>   -0.5509    1.0000 </r>
       <r>   -0.4809    1.0000 </r>
       <r>   -0.4809    1.0000 </r>
       <r>   -0.4809    1.0000 </r>
       <r>   -0.4809    1.0000 </r>
       <r>   -0.4523    1.0000 </r>
       <r>   -0.4523    1.0000 </r>
       <r>   -0.4523    1.0000 </r>
       <r>   -0.4523    1.0000 </r>
       <r>   -0.4317    1.0000 </r>
       <r>   -0.4317    1.0000 </r>
       <r>   -0.4222    1.0000 </r>
       <r>   -0.4222    1.0000 </r>
       <r>   -0.3955    1.0000 </r>
       <r>   -0.3955    1.0000 </r>
       <r>   -0.0401    1.0000 </r>
       <r>   -0.0401    1.0000 </r>
       <r>    0.0727    1.0000 </r>
       <r>    0.0727    1.0000 </r>
       <r>    0.0727    1.0000 </r>
       <r>    0.0727    1.0000 </r>
       <r>    0.1365    1.0000 </r>
       <r>    0.1365    1.0000 </r>
       <r>    0.1504    1.0000 </r>
       <r>    0.1504    1.0000 </r>
       <r>    0.1751    1.0000 </r>
       <r>    0.1751    1.0000 </r>
       <r>    0.1751    1.0000 </r>
       <r>    0.1751    1.0000 </r>
       <r>    0.2224    1.0000 </r>
       <r>    0.2224    1.0000 </r>
       <r>    0.2694    1.0000 </r>
       <r>    0.2694    1.0000 </r>
       <r>    0.2694    1.0000 </r>
       <r>    0.2694    1.0000 </r>
       <r>    0.3732    1.0000 </r>
       <r>    0.3732    1.0000 </r>
       <r>    0.3841    1.0000 </r>
       <r>    0.3841    1.0000 </r>
       <r>    0.3841    1.0000 </r>
       <r>    0.3841    1.0000 </r>
       <r>    0.3997    1.0000 </r>
       <r>    0.3997    1.0000 </r>
       <r>    0.3997    1.0000 </r>
       <r>    0.3997    1.0000 </r>
       <r>    0.5324    1.0000 </r>
       <r>    0.5324    1.0000 </r>
       <r>    0.5324    1.0000 </r>
       <r>    0.5324    1.0000 </r>
       <r>    0.5646    1.0000 </r>
       <r>    0.5646    1.0000 </r>
       <r>    0.6506    1.0000 </r>
       <r>    0.6506    1.0000 </r>
       <r>    0.6506    1.0000 </r>
       <r>    0.6506    1.0000 </r>
       <r>    0.7230    1.0000 </r>
       <r>    0.7230    1.0000 </r>
       <r>    0.7237    1.0000 </r>
       <r>    0.7237    1.0000 </r>
       <r>    0.7532    1.0000 </r>
       <r>    0.7532    1.0000 </r>
       <r>    0.7580    1.0000 </r>
       <r>    0.7580    1.0000 </r>
       <r>    0.7913    1.0000 </r>
       <r>    0.7913    1.0000 </r>
       <r>    0.7913    1.0000 </r>
       <r>    0.7913    1.0000 </r>
       <r>    0.8212    1.0000 </r>
       <r>    0.8212    1.0000 </r>
       <r>    0.8742    1.0000 </r>
       <r>    0.8742    1.0000 </r>
       <r>    0.8742    1.0000 </r>
       <r>    0.8742    1.0000 </r>
       <r>    0.8755    1.0000 </r>
       <r>    0.8755    1.0000 </r>
       <r>    0.9718    1.0000 </r>
       <r>    0.9718    1.0000 </r>
       <r>    0.9934    1.0000 </r>
       <r>    0.9934    1.0000 </r>
       <r>    0.9934    1.0000 </r>
       <r>    0.9934    1.0000 </r>
       <r>    1.1796    1.0000 </r>
       <r>    1.1796    1.0000 </r>
       <r>    1.1796    1.0000 </r>
       <r>    1.1796    1.0000 </r>
       <r>    1.4320    1.0000 </r>
       <r>    1.4320    1.0000 </r>
       <r>    1.4404    1.0000 </r>
       <r>    1.4404    1.0000 </r>
       <r>    1.4497    1.0000 </r>
       <r>    1.4497    1.0000 </r>
       <r>    1.4497    1.0000 </r>
       <r>    1.4497    1.0000 </r>
       <r>    4.3148    0.0000 </r>
       <r>    4.3148    0.0000 </r>
       <r>    5.8736    0.0000 </r>
       <r>    5.8736    0.0000 </r>
       <r>    6.2696    0.0000 </r>
       <r>    6.2696    0.0000 </r>
       <r>    6.5682    0.0000 </r>
       <r>    6.5682    0.0000 </r>
       <r>    6.7306    0.0000 </r>
       <r>    6.7306    0.0000 </r>
       <r>    6.7306    0.0000 </r>
       <r>    6.7306    0.0000 </r>
       <r>    7.1738    0.0000 </r>
       <r>    7.1738    0.0000 </r>
       <r>    7.1738    0.0000 </r>
       <r>    7.1738    0.0000 </r>
       <r>    7.3114    0.0000 </r>
       <r>    7.3114    0.0000 </r>
       <r>    7.3461    0.0000 </r>
       <r>    7.3461    0.0000 </r>
       <r>    7.3461    0.0000 </r>
       <r>    7.3461    0.0000 </r>
       <r>    7.4560    0.0000 </r>
       <r>    7.4560    0.0000 </r>
       <r>    7.6114    0.0000 </r>
       <r>    7.6114    0.0000 </r>
       <r>    7.6114    0.0000 </r>
       <r>    7.6114    0.0000 </r>
       <r>    7.7145    0.0000 </r>
       <r>    7.7145    0.0000 </r>
       <r>    7.7561    0.0000 </r>
       <r>    7.7561    0.0000 </r>
       <r>    7.7561    0.0000 </r>
       <r>    7.7561    0.0000 </r>
       <r>    8.0221    0.0000 </r>
       <r>    8.0221    0.0000 </r>
       <r>    8.6900    0.0000 </r>
       <r>    8.6900    0.0000 </r>
       <r>    8.6902    0.0000 </r>
       <r>    8.6905    0.0000 </r>
       <r>    8.7137    0.0000 </r>
       <r>    8.7139    0.0000 </r>
       <r>    8.8315    0.0000 </r>
       <r>    8.8321    0.0000 </r>
       <r>    8.8336    0.0000 </r>
       <r>    8.8349    0.0000 </r>
       <r>    8.9865    0.0000 </r>
       <r>    8.9867    0.0000 </r>
[...]
       <r>   -12.1605     0.0000   144.0000 </r>
       <r>   -12.0593     0.0000   144.0000 </r>
       <r>   -11.9580     0.0000   144.0000 </r>
       <r>   -11.8567     0.0000   144.0000 </r>
       <r>   -11.7554     0.0000   144.0000 </r>
       <r>   -11.6542     0.0000   144.0000 </r>
       <r>   -11.5529     0.0000   144.0000 </r>
       <r>   -11.4516     0.0000   144.0000 </r>
       <r>   -11.3503     0.0000   144.0000 </r>
       <r>   -11.2491     0.0000   144.0000 </r>
       <r>   -11.1478     0.0000   144.0000 </r>
       <r>   -11.0465     0.0000   144.0000 </r>
       <r>   -10.9452     0.0000   144.0000 </r>
       <r>   -10.8439     0.0000   144.0000 </r>
       <r>   -10.7427     0.0000   144.0000 </r>
       <r>   -10.6414     0.0000   144.0000 </r>
       <r>   -10.5401     0.0000   144.0000 </r>
       <r>   -10.4388     0.0000   144.0000 </r>
       <r>   -10.3376     0.0000   144.0000 </r>
       <r>   -10.2363     0.0000   144.0000 </r>
       <r>   -10.1350     0.0000   144.0000 </r>
       <r>   -10.0337     0.0000   144.0000 </r>
       <r>    -9.9325     0.0000   144.0000 </r>
       <r>    -9.8312     0.0000   144.0000 </r>
       <r>    -9.7299     0.0000   144.0000 </r>
       <r>    -9.6286     0.0000   144.0000 </r>
       <r>    -9.5274     0.0000   144.0000 </r>
       <r>    -9.4261     0.0000   144.0000 </r>
       <r>    -9.3248     0.0000   144.0000 </r>
       <r>    -9.2235     0.0000   144.0000 </r>
       <r>    -9.1223     0.0000   144.0000 </r>
       <r>    -9.0210     0.0000   144.0000 </r>
       <r>    -8.9197     0.0000   144.0000 </r>
       <r>    -8.8184     0.0000   144.0000 </r>
       <r>    -8.7171     0.0000   144.0000 </r>
       <r>    -8.6159     0.0000   144.0000 </r>
       <r>    -8.5146     0.0000   144.0000 </r>
       <r>    -8.4133     0.0000   144.0000 </r>
       <r>    -8.3120     0.0000   144.0000 </r>
       <r>    -8.2108     0.0000   144.0000 </r>
       <r>    -8.1095     0.0000   144.0000 </r>
       <r>    -8.0082     0.0000   144.0000 </r>
       <r>    -7.9069     0.0000   144.0000 </r>
       <r>    -7.8057     0.0000   144.0000 </r>
       <r>    -7.7044     0.0000   144.0000 </r>
       <r>    -7.6031     0.0000   144.0000 </r>
       <r>    -7.5018     0.0000   144.0000 </r>
       <r>    -7.4006     0.0000   144.0000 </r>
       <r>    -7.2993     0.0000   144.0000 </r>
       <r>    -7.1980     0.0000   144.0000 </r>
       <r>    -7.0967     0.0000   144.0000 </r>
       <r>    -6.9955     0.0000   144.0000 </r>
       <r>    -6.8942     0.0000   144.0000 </r>
       <r>    -6.7929     0.0000   144.0000 </r>
       <r>    -6.6916     0.0000   144.0000 </r>
       <r>    -6.5904     0.0000   144.0000 </r>
       <r>    -6.4891     0.0000   144.0000 </r>
       <r>    -6.3878     0.0000   144.0000 </r>
       <r>    -6.2865     0.0000   144.0000 </r>
       <r>    -6.1852     0.0000   144.0000 </r>
       <r>    -6.0840     0.0000   144.0000 </r>
       <r>    -5.9827     0.0000   144.0000 </r>
       <r>    -5.8814     0.0000   144.0000 </r>
       <r>    -5.7801     0.0000   144.0000 </r>
       <r>    -5.6789     0.0000   144.0000 </r>
       <r>    -5.5776     0.0000   144.0000 </r>
       <r>    -5.4763     0.0004   144.0000 </r>
       <r>    -5.3750     1.3740   144.1392 </r>
       <r>    -5.2738     8.3115   144.9809 </r>
       <r>    -5.1725    14.9241   146.4924 </r>
       <r>    -5.0712    21.4954   148.6694 </r>
       <r>    -4.9699    30.5029   151.7586 </r>
       <r>    -4.8687    39.1497   155.7235 </r>
       <r>    -4.7674    29.0382   158.6644 </r>
       <r>    -4.6661    57.0906   164.4463 </r>
       <r>    -4.5648    42.1988   168.7200 </r>
       <r>    -4.4636    72.1292   176.0250 </r>
       <r>    -4.3623    77.3336   183.8570 </r>
       <r>    -4.2610    41.4920   188.0592 </r>
       <r>    -4.1597    37.9592   191.9035 </r>
       <r>    -4.0584    85.5326   200.5659 </r>
       <r>    -3.9572    41.0748   204.7258 </r>
       <r>    -3.8559    30.8041   207.8455 </r>
       <r>    -3.7546    33.0930   211.1971 </r>
       <r>    -3.6533    26.3812   213.8689 </r>
       <r>    -3.5521    25.2732   216.4284 </r>
       <r>    -3.4508    25.8865   219.0501 </r>
       <r>    -3.3495    26.3165   221.7153 </r>
       <r>    -3.2482    47.6988   226.5461 </r>
       <r>    -3.1470    43.5917   230.9609 </r>
       <r>    -3.0457    44.5606   235.4738 </r>
       <r>    -2.9444    23.3898   237.8426 </r>
       <r>    -2.8431    44.6208   242.3617 </r>
       <r>    -2.7419    29.2300   245.3219 </r>
       <r>    -2.6406    46.3114   250.0122 </r>
       <r>    -2.5393    50.8431   255.1614 </r>
       <r>    -2.4380    40.6802   259.2813 </r>
       <r>    -2.3368    34.2000   262.7449 </r>
       <r>    -2.2355    44.7216   267.2742 </r>
       <r>    -2.1342    85.9619   275.9801 </r>
       <r>    -2.0329    74.9113   283.5668 </r>
       <r>    -1.9317    67.5811   290.4111 </r>
       <r>    -1.8304    70.7905   297.5805 </r>
       <r>    -1.7291    79.1405   305.5955 </r>
       <r>    -1.6278    56.8260   311.3507 </r>
       <r>    -1.5265    49.5908   316.3730 </r>
       <r>    -1.4253    70.8005   323.5434 </r>
       <r>    -1.3240    84.0514   332.0558 </r>
       <r>    -1.2227    68.5138   338.9946 </r>
       <r>    -1.1214    92.5204   348.3647 </r>
       <r>    -1.0202    91.7458   357.6564 </r>
       <r>    -0.9189    67.3042   364.4727 </r>
       <r>    -0.8176    67.6324   371.3222 </r>
       <r>    -0.7163    78.6069   379.2832 </r>
       <r>    -0.6151    75.7479   386.9547 </r>
       <r>    -0.5138    82.5415   395.3142 </r>
       <r>    -0.4125   120.2724   407.4949 </r>
       <r>    -0.3112    71.1087   414.6965 </r>
       <r>    -0.2100    57.2116   420.4906 </r>
       <r>    -0.1087    39.9667   424.5383 </r>
       <r>    -0.0074    87.6285   433.4130 </r>
       <r>     0.0939    89.1120   442.4379 </r>
       <r>     0.1951   119.6160   454.5521 </r>
       <r>     0.2964    75.8268   462.2316 </r>
       <r>     0.3977   125.6034   474.9522 </r>
       <r>     0.4990   102.6599   485.3492 </r>
       <r>     0.6003   105.9002   496.0743 </r>
       <r>     0.7015    86.9658   504.8819 </r>
       <r>     0.8028   151.2354   520.1984 </r>
       <r>     0.9041   120.2000   532.3718 </r>
       <r>     1.0054   104.5444   542.9597 </r>
       <r>     1.1066    71.4313   550.1939 </r>
       <r>     1.2079    65.1523   556.7923 </r>
       <r>     1.3092    57.9357   562.6598 </r>
       <r>     1.4105    41.0043   566.8126 </r>
       <r>     1.5117    81.1107   575.0271 </r>
       <r>     1.6130     9.5598   575.9953 </r>
       <r>     1.7143     0.0463   576.0000 </r>
       <r>     1.8156     0.0000   576.0000 </r>
       <r>     1.9168     0.0000   576.0000 </r>
       <r>     2.0181     0.0000   576.0000 </r>
       <r>     2.1194     0.0000   576.0000 </r>
       <r>     2.2207     0.0000   576.0000 </r>
       <r>     2.3219     0.0000   576.0000 </r>
       <r>     2.4232     0.0000   576.0000 </r>
       <r>     2.5245     0.0000   576.0000 </r>
       <r>     2.6258     0.0000   576.0000 </r>
       <r>     2.7270     0.0000   576.0000 </r>
       <r>     2.8283     0.0000   576.0000 </r>
       <r>     2.9296     0.0000   576.0000 </r>
       <r>     3.0309     0.0000   576.0000 </r>
       <r>     3.1322     0.0000   576.0000 </r>
       <r>     3.2334     0.0000   576.0000 </r>
       <r>     3.3347     0.0126   576.0013 </r>
       <r>     3.4360     1.5082   576.1540 </r>
       <r>     3.5373     0.9457   576.2498 </r>
       <r>     3.6385     0.0019   576.2500 </r>
       <r>     3.7398     0.0000   576.2500 </r>
       <r>     3.8411     0.0000   576.2500 </r>
       <r>     3.9424     0.0000   576.2500 </r>
       <r>     4.0436     0.0000   576.2500 </r>
       <r>     4.1449     0.0000   576.2500 </r>
       <r>     4.2462     0.1289   576.2631 </r>
       <r>     4.3475     4.4781   576.7166 </r>
       <r>     4.4487     5.0196   577.2249 </r>
       <r>     4.5500     0.2485   577.2501 </r>
       <r>     4.6513     1.3582   577.3877 </r>
       <r>     4.7526     7.3862   578.1357 </r>
       <r>     4.8538     1.1279   578.2499 </r>
       <r>     4.9551     0.0006   578.2500 </r>
       <r>     5.0564     0.0736   578.2575 </r>
       <r>     5.1577     7.9138   579.0589 </r>
       <r>     5.2590     6.8309   579.7507 </r>
       <r>     5.3602     6.3794   580.3968 </r>
       <r>     5.4615     3.8230   580.7840 </r>
       <r>     5.5628     8.1446   581.6089 </r>
       <r>     5.6641     3.4743   581.9607 </r>
       <r>     5.7653     4.5552   582.4220 </r>
       <r>     5.8666    12.6967   583.7079 </r>
       <r>     5.9679     9.8197   584.7024 </r>
       <r>     6.0692     3.9156   585.0990 </r>
       <r>     6.1704     3.2929   585.4325 </r>
       <r>     6.2717    11.6626   586.6136 </r>
       <r>     6.3730    16.0338   588.2375 </r>
       <r>     6.4743    12.6419   589.5178 </r>
       <r>     6.5755     9.9374   590.5242 </r>
       <r>     6.6768     6.6589   591.1986 </r>
       <r>     6.7781    21.1231   593.3379 </r>
       <r>     6.8794    35.4582   596.9289 </r>
       <r>     6.9806    27.2347   599.6871 </r>
       <r>     7.0819    22.7219   601.9883 </r>
       <r>     7.1832    49.1708   606.9681 </r>
       <r>     7.2845    55.8087   612.6202 </r>
       <r>     7.3857    40.9041   616.7628 </r>
       <r>     7.4870    25.8716   619.3830 </r>
       <r>     7.5883    37.8896   623.2203 </r>
       <r>     7.6896    38.1512   627.0841 </r>
       <r>     7.7909    30.2741   630.1502 </r>
       <r>     7.8921    18.9921   632.0736 </r>
       <r>     7.9934    50.2373   637.1615 </r>
       <r>     8.0947    54.2794   642.6587 </r>
       <r>     8.1960    28.0753   645.5020 </r>
       <r>     8.2972    23.9253   647.9251 </r>
       <r>     8.3985    28.4868   650.8101 </r>
       <r>     8.4998    40.4070   654.9024 </r>
       <r>     8.6011    39.8200   658.9352 </r>
       <r>     8.7023    35.4562   662.5261 </r>
       <r>     8.8036    34.9896   666.0697 </r>
       <r>     8.9049    33.6587   669.4785 </r>
       <r>     9.0062    38.3988   673.3674 </r>
       <r>     9.1074    47.6378   678.1919 </r>
       <r>     9.2087    33.5091   681.5856 </r>
       <r>     9.3100     8.6740   682.4641 </r>
       <r>     9.4113     0.9758   682.5629 </r>
       <r>     9.5125     7.6818   683.3409 </r>
       <r>     9.6138    28.4533   686.2225 </r>
       <r>     9.7151    21.0046   688.3498 </r>
       <r>     9.8164    20.3761   690.4134 </r>
       <r>     9.9177    31.7835   693.6323 </r>
       <r>    10.0189    32.5051   696.9243 </r>
       <r>    10.1202    15.6546   698.5097 </r>
       <r>    10.2215    21.6255   700.6999 </r>
       <r>    10.3228    16.1804   702.3386 </r>
       <r>    10.4240     7.5300   703.1012 </r>
       <r>    10.5253     4.9353   703.6010 </r>
       <r>    10.6266     3.8415   703.9901 </r>
       <r>    10.7279     0.0980   704.0000 </r>
       <r>    10.8291     0.0000   704.0000 </r>
       <r>    10.9304     0.0000   704.0000 </r>
       <r>    11.0317     0.0000   704.0000 </r>
       <r>    11.1330     0.0000   704.0000 </r>
       <r>    11.2342     0.0000   704.0000 </r>
       <r>    11.3355     0.0000   704.0000 </r>
       <r>    11.4368     0.0000   704.0000 </r>
       <r>    11.5381     0.0000   704.0000 </r>
       <r>    11.6393     0.0000   704.0000 </r>
       <r>    11.7406     0.0000   704.0000 </r>
       <r>    11.8419     0.0000   704.0000 </r>
       <r>    11.9432     0.0000   704.0000 </r>
      </set>
     </set>
    </array>
   </total>
  </dos>
 </calculation>
 <structure name="finalpos" >
  <crystal>
   <varray name="basis" >
    <v>       0.00000000      12.44390028      -0.00123231 </v>
    <v>       9.27795893       0.00000000       0.00000000 </v>
    <v>       0.00000000      -2.80398790     -11.46214757 </v>
   </varray>
   <i name="volume">   1323.38279581 </i>
   <varray name="rec_basis" >
    <v>       0.00000000       0.08035871      -0.01965817 </v>
    <v>       0.10778233       0.00000000       0.00000000 </v>
    <v>       0.00000000      -0.00000864      -0.08724157 </v>
   </varray>
  </crystal>
  <varray name="positions" >
   <v>       0.65917719       0.00000000       0.15804727 </v>
   <v>       0.65917719       0.00000000       0.65804727 </v>
   <v>       0.65917719       0.33333333       0.15804727 </v>
   <v>       0.65917719       0.33333333       0.65804727 </v>
   <v>       0.65917719       0.66666667       0.15804727 </v>
   <v>       0.65917719       0.66666667       0.65804727 </v>
   <v>       0.84082281       0.16666667       0.34195273 </v>
   <v>       0.84082281       0.16666667       0.84195273 </v>
   <v>       0.84082281       0.50000000       0.34195273 </v>
   <v>       0.84082281       0.50000000       0.84195273 </v>
   <v>       0.84082281       0.83333333       0.34195273 </v>
   <v>       0.84082281       0.83333333       0.84195273 </v>
   <v>       0.59117515       0.16666667       0.39815057 </v>
   <v>       0.59117515       0.16666667       0.89815057 </v>
   <v>       0.59117515       0.50000000       0.39815057 </v>
   <v>       0.59117515       0.50000000       0.89815057 </v>
   <v>       0.59117515       0.83333333       0.39815057 </v>
   <v>       0.59117515       0.83333333       0.89815057 </v>
   <v>       0.90882485       0.00000000       0.10184943 </v>
   <v>       0.90882485       0.00000000       0.60184943 </v>
   <v>       0.90882485       0.33333333       0.10184943 </v>
   <v>       0.90882485       0.33333333       0.60184943 </v>
   <v>       0.90882485       0.66666667       0.10184943 </v>
   <v>       0.90882485       0.66666667       0.60184943 </v>
   <v>       0.15917719       0.16666667       0.15804727 </v>
   <v>       0.15917719       0.16666667       0.65804727 </v>
   <v>       0.15917719       0.50000000       0.15804727 </v>
   <v>       0.15917719       0.50000000       0.65804727 </v>
   <v>       0.15917719       0.83333333       0.15804727 </v>
   <v>       0.15917719       0.83333333       0.65804727 </v>
   <v>       0.34082281       0.00000000       0.34195273 </v>
   <v>       0.34082281       0.00000000       0.84195273 </v>
   <v>       0.34082281       0.33333333       0.34195273 </v>
   <v>       0.34082281       0.33333333       0.84195273 </v>
   <v>       0.34082281       0.66666667       0.34195273 </v>
   <v>       0.34082281       0.66666667       0.84195273 </v>
   <v>       0.09117515       0.00000000       0.39815057 </v>
   <v>       0.09117515       0.00000000       0.89815057 </v>
   <v>       0.09117515       0.33333333       0.39815057 </v>
   <v>       0.09117515       0.33333333       0.89815057 </v>
   <v>       0.09117515       0.66666667       0.39815057 </v>
   <v>       0.09117515       0.66666667       0.89815057 </v>
   <v>       0.40882485       0.16666667       0.10184943 </v>
   <v>       0.40882485       0.16666667       0.60184943 </v>
   <v>       0.40882485       0.50000000       0.10184943 </v>
   <v>       0.40882485       0.50000000       0.60184943 </v>
   <v>       0.40882485       0.83333333       0.10184943 </v>
   <v>       0.40882485       0.83333333       0.60184943 </v>
   <v>       0.99660075       0.16666667       0.12796019 </v>
   <v>       0.99660075       0.16666667       0.62796019 </v>
   <v>       0.99660075       0.50000000       0.12796019 </v>
   <v>       0.99660075       0.50000000       0.62796019 </v>
   <v>       0.99660075       0.83333333       0.12796019 </v>
   <v>       0.99660075       0.83333333       0.62796019 </v>
   <v>       0.50339925       0.00000000       0.37203981 </v>
   <v>       0.50339925       0.00000000       0.87203981 </v>
   <v>       0.50339925       0.33333333       0.37203981 </v>
   <v>       0.50339925       0.33333333       0.87203981 </v>
   <v>       0.50339925       0.66666667       0.37203981 </v>
   <v>       0.50339925       0.66666667       0.87203981 </v>
   <v>       0.67327121       0.16666667       0.28041220 </v>
   <v>       0.67327121       0.16666667       0.78041220 </v>
   <v>       0.67327121       0.50000000       0.28041220 </v>
   <v>       0.67327121       0.50000000       0.78041220 </v>
   <v>       0.67327121       0.83333333       0.28041220 </v>
   <v>       0.67327121       0.83333333       0.78041220 </v>
   <v>       0.82672879       0.00000000       0.21958780 </v>
   <v>       0.82672879       0.00000000       0.71958780 </v>
   <v>       0.82672879       0.33333333       0.21958780 </v>
   <v>       0.82672879       0.33333333       0.71958780 </v>
   <v>       0.82672879       0.66666667       0.21958780 </v>
   <v>       0.82672879       0.66666667       0.71958780 </v>
   <v>       0.83292540       0.00000000       0.44430222 </v>
   <v>       0.83292540       0.00000000       0.94430222 </v>
   <v>       0.83292540       0.33333333       0.44430222 </v>
   <v>       0.83292540       0.33333333       0.94430222 </v>
   <v>       0.83292540       0.66666667       0.44430222 </v>
   <v>       0.83292540       0.66666667       0.94430222 </v>
   <v>       0.66707460       0.16666667       0.05569778 </v>
   <v>       0.66707460       0.16666667       0.55569778 </v>
   <v>       0.66707460       0.50000000       0.05569778 </v>
   <v>       0.66707460       0.50000000       0.55569778 </v>
   <v>       0.66707460       0.83333333       0.05569778 </v>
   <v>       0.66707460       0.83333333       0.55569778 </v>
   <v>       0.49660075       0.00000000       0.12796019 </v>
   <v>       0.49660075       0.00000000       0.62796019 </v>
   <v>       0.49660075       0.33333333       0.12796019 </v>
   <v>       0.49660075       0.33333333       0.62796019 </v>
   <v>       0.49660075       0.66666667       0.12796019 </v>
   <v>       0.49660075       0.66666667       0.62796019 </v>
   <v>       0.00339925       0.16666667       0.37203981 </v>
   <v>       0.00339925       0.16666667       0.87203981 </v>
   <v>       0.00339925       0.50000000       0.37203981 </v>
   <v>       0.00339925       0.50000000       0.87203981 </v>
   <v>       0.00339925       0.83333333       0.37203981 </v>
   <v>       0.00339925       0.83333333       0.87203981 </v>
   <v>       0.17327121       0.00000000       0.28041220 </v>
   <v>       0.17327121       0.00000000       0.78041220 </v>
   <v>       0.17327121       0.33333333       0.28041220 </v>
   <v>       0.17327121       0.33333333       0.78041220 </v>
   <v>       0.17327121       0.66666667       0.28041220 </v>
   <v>       0.17327121       0.66666667       0.78041220 </v>
   <v>       0.32672879       0.16666667       0.21958780 </v>
   <v>       0.32672879       0.16666667       0.71958780 </v>
   <v>       0.32672879       0.50000000       0.21958780 </v>
   <v>       0.32672879       0.50000000       0.71958780 </v>
   <v>       0.32672879       0.83333333       0.21958780 </v>
   <v>       0.32672879       0.83333333       0.71958780 </v>
   <v>       0.33292540       0.16666667       0.44430222 </v>
   <v>       0.33292540       0.16666667       0.94430222 </v>
   <v>       0.33292540       0.50000000       0.44430222 </v>
   <v>       0.33292540       0.50000000       0.94430222 </v>
   <v>       0.33292540       0.83333333       0.44430222 </v>
   <v>       0.33292540       0.83333333       0.94430222 </v>
   <v>       0.16707460       0.00000000       0.05569778 </v>
   <v>       0.16707460       0.00000000       0.55569778 </v>
   <v>       0.16707460       0.33333333       0.05569778 </v>
   <v>       0.16707460       0.33333333       0.55569778 </v>
   <v>       0.16707460       0.66666667       0.05569778 </v>
   <v>       0.16707460       0.66666667       0.55569778 </v>
  </varray>
 </structure>
</modeling>
