 running    4 mpi-ranks, on    1 nodes
 distrk:  each k-point on    1 cores,    4 groups
 distr:  one band on    1 cores,    1 groups
 OpenACC runtime initialized ...    4 GPUs detected
 vasp.6.4.2 20Jul23 (build Nov 12 2023 22:16:35) complex                         
 POSCAR found type information on POSCAR GaO 
 POSCAR found :  2 types and     120 ions
 scaLAPACK will be used selectively (only on CPU)
 LDA part: xc-table for Pade appr. of Perdew
 POSCAR, INCAR and KPOINTS ok, starting setup
 FFT: planning ... GRIDC
 FFT: planning ... GRID_SOFT
 FFT: planning ... GRID
 WAVECAR not read
 initial charge from wavefunction
 entering main loop
       N       E                     dE             d eps       ncg     rms          ort
DAV:   1    -0.183212542282E+05   -0.18321E+05   -0.54377E+05 18990   0.746E+03
DAV:   2    -0.623742209885E+05   -0.44053E+05   -0.42773E+05 18990   0.118E+03
DAV:   3    -0.667947621457E+05   -0.44205E+04   -0.39340E+04 18990   0.342E+02
DAV:   4    -0.672845901675E+05   -0.48983E+03   -0.41855E+03 18990   0.100E+02
DAV:   5    -0.371192297218E+05    0.30165E+05   -0.72156E+02 18990   0.509E+01
 gam= 0.000 g(H,U,f)=  0.615E+05 0.198E+05 0.133E+04 ort(H,U,f) = 0.000E+00 0.000E+00 0.000E+00
SDA:   6     0.135895733822E+05    0.50709E+05   -0.72156E+02 18990   0.827E+05 0.000E+00
 gam= 0.000 trial= 0.400  step= 0.297 mean= 0.400
 gam= 0.092 g(H,U,f)=  0.719E+04 0.434E+03 0.860E-01 ort(H,U,f) = 0.819E+04 0.747E+03 0.884E+00
CGA:   7     0.222628207154E+04   -0.11363E+05   -0.12260E+05 18990   0.763E+04 0.894E+04
 gam= 0.092 trial= 0.395  step= 0.340 mean= 0.395
 gam= 2.228 g(H,U,f)=  0.298E+04 0.868E+04 0.533E+04 ort(H,U,f) = 0.467E+03-0.196E+03-0.190E+03
CGA:   8     0.925692447889E+03   -0.13006E+04   -0.14357E+04 18990   0.170E+05 0.803E+02
 gam= 2.228 trial= 0.392  step= 0.089 mean= 0.392
 gam= 0.444 g(H,U,f)=  0.384E+04 0.364E+04 0.686E+02 ort(H,U,f) =-0.326E+04 0.253E+03 0.447E+02
CGA:   9     0.410478703610E+03   -0.51521E+03   -0.76033E+03 18990   0.754E+04-0.297E+04
 gam= 0.444 trial= 0.377  step= 0.162 mean= 0.377
 gam= 0.703 g(H,U,f)=  0.383E+04 0.145E+04 0.195E+02 ort(H,U,f) =-0.679E+03-0.228E+03 0.123E+02
CGA:  10     0.125124966427E+03   -0.28535E+03   -0.50453E+03 18990   0.530E+04-0.894E+03
 gam= 0.703 trial= 0.366  step= 0.223 mean= 0.366
 gam= 0.392 g(H,U,f)=  0.168E+04 0.397E+03 0.442E+01 ort(H,U,f) =-0.498E+03 0.499E+03 0.967E+01
CGA:  11    -0.352163243752E+03   -0.47729E+03   -0.52021E+03 18990   0.208E+04 0.103E+02
 gam= 0.392 trial= 0.359  step= 0.287 mean= 0.359
 gam= 0.383 g(H,U,f)=  0.731E+03 0.640E+02 0.214E+01 ort(H,U,f) =-0.912E+02 0.151E+03 0.286E+01
CGA:  12    -0.643200555391E+03   -0.29104E+03   -0.29943E+03 18990   0.797E+03 0.626E+02
 gam= 0.383 trial= 0.355  step= 0.364 mean= 0.355
 gam= 0.480 g(H,U,f)=  0.368E+03 0.146E+02 0.219E+00 ort(H,U,f) = 0.131E+02 0.153E+02 0.339E+00
CGA:  13    -0.792905972708E+03   -0.14971E+03   -0.14947E+03 18990   0.382E+03 0.288E+02
 gam= 0.480 trial= 0.356  step= 0.444 mean= 0.356
 gam= 0.536 g(H,U,f)=  0.189E+03 0.156E+02 0.927E+00 ort(H,U,f) =-0.166E+02 0.963E+01 0.256E+01
CGA:  14    -0.880798992127E+03   -0.87893E+02   -0.87910E+02 18990   0.205E+03-0.437E+01
 gam= 0.536 trial= 0.360  step= 0.394 mean= 0.360
 gam= 0.523 g(H,U,f)=  0.961E+02 0.111E+02 0.100E+00 ort(H,U,f) =-0.848E+01 0.999E+01 0.260E+00
CGA:  15    -0.920817006393E+03   -0.40018E+02   -0.39942E+02 18990   0.107E+03 0.177E+01
 gam= 0.523 trial= 0.362  step= 0.376 mean= 0.362
 gam= 0.469 g(H,U,f)=  0.466E+02 0.362E+01 0.227E-15 ort(H,U,f) =-0.938E+01 0.866E+01 0.229E-15
CGA:  16    -0.941170386789E+03   -0.20353E+02   -0.20364E+02 18990   0.503E+02-0.712E+00
 gam= 0.469 trial= 0.363  step= 0.371 mean= 0.363
 gam= 0.394 g(H,U,f)=  0.193E+02 0.535E+00 0.152E-10 ort(H,U,f) =-0.217E+01 0.220E+01 0.241E-10
CGA:  17    -0.950422516817E+03   -0.92521E+01   -0.92522E+01 18990   0.198E+02 0.278E-01
 gam= 0.394 trial= 0.363  step= 0.409 mean= 0.363
 gam= 0.456 g(H,U,f)=  0.866E+01 0.380E+00 0.240E-16 ort(H,U,f) =-0.198E+00 0.251E+00 0.524E-16
CGA:  18    -0.954481913841E+03   -0.40594E+01   -0.40572E+01 18990   0.904E+01 0.526E-01
 gam= 0.456 trial= 0.365  step= 0.464 mean= 0.365
 gam= 0.448 g(H,U,f)=  0.371E+01 0.341E+00 0.128E-11 ort(H,U,f) =-0.379E+00 0.394E+00 0.454E-11
CGA:  19    -0.956586934807E+03   -0.21050E+01   -0.21035E+01 18990   0.405E+01 0.153E-01
 gam= 0.448 trial= 0.370  step= 0.459 mean= 0.370
 gam= 0.473 g(H,U,f)=  0.179E+01 0.126E+00 0.113E-13 ort(H,U,f) =-0.301E+00 0.293E+00 0.563E-13
CGA:  20    -0.957517109606E+03   -0.93017E+00   -0.93062E+00 18990   0.192E+01-0.839E-02
 gam= 0.473 trial= 0.375  step= 0.462 mean= 0.375
 gam= 0.531 g(H,U,f)=  0.985E+00 0.330E-01 0.470E-18 ort(H,U,f) =-0.450E-01 0.409E-01 0.217E-17
CGA:  21    -0.957959168961E+03   -0.44206E+00   -0.44231E+00 18990   0.102E+01-0.414E-02
 gam= 0.531 trial= 0.379  step= 0.411 mean= 0.379
 gam= 0.378 g(H,U,f)=  0.357E+00 0.276E-01 0.178E-15 ort(H,U,f) = 0.221E-01-0.233E-01 0.797E-15
CGA:  22    -0.958167953279E+03   -0.20878E+00   -0.20881E+00 18990   0.385E+00-0.119E-02
 gam= 0.378 trial= 0.381  step= 0.422 mean= 0.381
 gam= 0.411 g(H,U,f)=  0.140E+00 0.178E-01 0.525E-14 ort(H,U,f) =-0.567E-02 0.512E-02 0.209E-13
CGA:  23    -0.958249024931E+03   -0.81072E-01   -0.81086E-01 18990   0.158E+00-0.550E-03
 gam= 0.411 trial= 0.383  step= 0.511 mean= 0.383
 gam= 0.494 g(H,U,f)=  0.708E-01 0.746E-02 0.934E-14 ort(H,U,f) =-0.841E-02 0.831E-02 0.774E-13
CGA:  24    -0.958289381039E+03   -0.40356E-01   -0.40363E-01 18990   0.782E-01-0.973E-04
 gam= 0.494 trial= 0.389  step= 0.500 mean= 0.389
 gam= 0.465 g(H,U,f)=  0.346E-01 0.179E-02 0.176E-15 ort(H,U,f) =-0.329E-02 0.342E-02 0.206E-15
CGA:  25    -0.958308924209E+03   -0.19543E-01   -0.19536E-01 18990   0.364E-01 0.123E-03
 gam= 0.465 trial= 0.395  step= 0.464 mean= 0.395
 gam= 0.525 g(H,U,f)=  0.186E-01 0.466E-03 0.646E-15 ort(H,U,f) =-0.125E-03 0.205E-03 0.168E-14
CGA:  26    -0.958317375422E+03   -0.84512E-02   -0.84483E-02 18990   0.191E-01 0.806E-04
 gam= 0.525 trial= 0.398  step= 0.461 mean= 0.398
 gam= 0.511 g(H,U,f)=  0.906E-02 0.700E-03 0.110E-15 ort(H,U,f) = 0.586E-05-0.182E-04 0.568E-15
CGA:  27    -0.958321789408E+03   -0.44140E-02   -0.44142E-02 18990   0.976E-02-0.124E-04
 gam= 0.511 trial= 0.401  step= 0.408 mean= 0.401
 gam= 0.397 g(H,U,f)=  0.355E-02 0.322E-03 0.841E-22 ort(H,U,f) =-0.468E-03 0.427E-03 0.155E-21
CGA:  28    -0.958323777534E+03   -0.19881E-02   -0.19883E-02 18990   0.387E-02-0.405E-04
 gam= 0.397 trial= 0.402  step= 0.472 mean= 0.402
 gam= 0.475 g(H,U,f)=  0.178E-02 0.594E-04 0.205E-20 ort(H,U,f) =-0.126E-03 0.107E-03 0.585E-20
CGA:  29    -0.958324686959E+03   -0.90943E-03   -0.91011E-03 18990   0.184E-02-0.187E-04
 gam= 0.475 trial= 0.405  step= 0.509 mean= 0.405
 gam= 0.440 g(H,U,f)=  0.747E-03 0.629E-04 0.453E-19 ort(H,U,f) = 0.132E-04-0.173E-04 0.167E-18
CGA:  30    -0.958325152473E+03   -0.46551E-03   -0.46573E-03 18990   0.810E-03-0.415E-05
 gam= 0.440 trial= 0.410  step= 0.500 mean= 0.410
 gam= 0.480 g(H,U,f)=  0.356E-03 0.331E-04 0.568E-18 ort(H,U,f) =-0.315E-04 0.275E-04 0.228E-17
CGA:  31    -0.958325354303E+03   -0.20183E-03   -0.20202E-03 18990   0.389E-03-0.396E-05
 gam= 0.480 trial= 0.415  step= 0.506 mean= 0.415
 gam= 0.545 g(H,U,f)=  0.197E-03 0.144E-04 0.280E-17 ort(H,U,f) =-0.217E-04 0.161E-04 0.187E-16
CGA:  32    -0.958325451969E+03   -0.97666E-04   -0.97921E-04 18990   0.212E-03-0.558E-05
 gam= 0.545 trial= 0.419  step= 0.462 mean= 0.419
 gam= 0.472 g(H,U,f)=  0.932E-04 0.684E-05 0.121E-17 ort(H,U,f) =-0.974E-05 0.675E-05-0.372E-16
CGA:  33    -0.958325500142E+03   -0.48173E-04   -0.48237E-04 18990   0.100E-03-0.300E-05
 gam= 0.472 trial= 0.421  step= 0.445 mean= 0.421
 gam= 0.432 g(H,U,f)=  0.418E-04 0.137E-05 0.190E-18 ort(H,U,f) =-0.630E-07 0.119E-05 0.264E-18
CGA:  34    -0.958325522112E+03   -0.21970E-04   -0.21957E-04 18990   0.432E-04 0.113E-05
