<?xml version="1.0" encoding="ISO-8859-1"?>
<modeling>
 <generator>
  <i name="program" type="string">vasp </i>
  <i name="version" type="string">6.4.2  </i>
  <i name="subversion" type="string">20Jul23 (build Nov 12 2023 22:16:35) complex                          parallel </i>
  <i name="platform" type="string">LinuxNV </i>
  <i name="date" type="string">2025 03 25 </i>
  <i name="time" type="string">20:13:54 </i>
 </generator>
 <incar>
  <i type="int" name="ISTART">     0</i>
  <i type="string" name="PREC">Normal</i>
  <i type="string" name="ALGO">All</i>
  <i type="int" name="ISPIN">     1</i>
  <i type="int" name="ICHARG">     0</i>
  <i type="int" name="NELM">   500</i>
  <i type="int" name="IBRION">    -1</i>
  <i name="EDIFF">      0.00001000</i>
  <i name="EDIFFG">     -0.00500000</i>
  <i type="int" name="NSW">     0</i>
  <i type="int" name="ISIF">     2</i>
  <i name="ENCUT">    450.00000000</i>
  <i type="string" name="LREAL">Auto</i>
  <i type="logical" name="LPLANE"> T  </i>
  <i name="TIME">      0.40000000</i>
  <i type="int" name="ISMEAR">     0</i>
  <i name="SIGMA">      0.05000000</i>
  <i type="logical" name="LWAVE"> T  </i>
  <i type="logical" name="LCHARG"> T  </i>
  <i name="HFSCREEN">      0.20000000</i>
  <i type="logical" name="LHFCALC"> T  </i>
  <i type="int" name="LMAXFOCK">     4</i>
  <i name="AEXX">      0.32000000</i>
  <i type="string" name="PRECFOCK">Fast</i>
 </incar>
 <primitive_cell>
  <structure name="primitive_cell" >
   <crystal>
    <varray name="basis" >
     <v>      -1.52378368       6.14023671       0.00000000 </v>
     <v>       1.52378368       6.14023671       0.00000000 </v>
     <v>       0.00000000      -1.38413089      -5.65034886 </v>
    </varray>
    <i name="volume">    105.73376294 </i>
    <varray name="rec_basis" >
     <v>      -0.32813057       0.08143009      -0.01994742 </v>
     <v>       0.32813057       0.08143009      -0.01994742 </v>
     <v>       0.00000000       0.00000000      -0.17698022 </v>
    </varray>
   </crystal>
   <varray name="positions" >
    <v>       0.65901370       0.65901370       0.31318875 </v>
    <v>       0.34098630       0.34098630       0.68681125 </v>
    <v>       0.09108851       0.09108851       0.79515605 </v>
    <v>       0.90891149       0.90891149       0.20484395 </v>
    <v>       0.49636539       0.49636539       0.25445541 </v>
    <v>       0.50363461       0.50363461       0.74554459 </v>
    <v>       0.17253705       0.17253705       0.56079227 </v>
    <v>       0.82746295       0.82746295       0.43920773 </v>
    <v>       0.83208626       0.83208626       0.89161646 </v>
    <v>       0.16791374       0.16791374       0.10838354 </v>
   </varray>
  </structure>
  <varray name="primitive_index" >
   <v type="int" >        1 </v>
   <v type="int" >        7 </v>
   <v type="int" >       13 </v>
   <v type="int" >       19 </v>
   <v type="int" >       85 </v>
   <v type="int" >       55 </v>
   <v type="int" >       61 </v>
   <v type="int" >       67 </v>
   <v type="int" >       74 </v>
   <v type="int" >       79 </v>
  </varray>
 </primitive_cell>
 <kpoints>
  <generation param="Gamma">
   <v type="int" name="divisions">       4        4        4 </v>
   <v name="usershift">      0.00000000       0.00000000       0.00000000 </v>
   <v name="genvec1">      0.25000000       0.00000000       0.00000000 </v>
   <v name="genvec2">      0.00000000       0.25000000       0.00000000 </v>
   <v name="genvec3">      0.00000000       0.00000000       0.25000000 </v>
   <v name="shift">      0.00000000       0.00000000       0.00000000 </v>
  </generation>
  <varray name="kpointlist" >
   <v>       0.00000000       0.00000000       0.00000000 </v>
   <v>       0.25000000       0.00000000       0.00000000 </v>
   <v>       0.50000000       0.00000000       0.00000000 </v>
   <v>       0.00000000       0.25000000       0.00000000 </v>
   <v>       0.25000000       0.25000000       0.00000000 </v>
   <v>       0.50000000       0.25000000       0.00000000 </v>
   <v>       0.00000000       0.50000000       0.00000000 </v>
   <v>       0.25000000       0.50000000       0.00000000 </v>
   <v>       0.50000000       0.50000000       0.00000000 </v>
   <v>       0.00000000       0.00000000       0.25000000 </v>
   <v>       0.25000000       0.00000000       0.25000000 </v>
   <v>       0.50000000       0.00000000       0.25000000 </v>
   <v>      -0.25000000       0.00000000       0.25000000 </v>
   <v>       0.00000000       0.25000000       0.25000000 </v>
   <v>       0.25000000       0.25000000       0.25000000 </v>
   <v>       0.50000000       0.25000000       0.25000000 </v>
   <v>      -0.25000000       0.25000000       0.25000000 </v>
   <v>       0.00000000       0.50000000       0.25000000 </v>
   <v>       0.25000000       0.50000000       0.25000000 </v>
   <v>       0.50000000       0.50000000       0.25000000 </v>
   <v>      -0.25000000       0.50000000       0.25000000 </v>
   <v>       0.00000000       0.00000000       0.50000000 </v>
   <v>       0.25000000       0.00000000       0.50000000 </v>
   <v>       0.50000000       0.00000000       0.50000000 </v>
   <v>       0.00000000       0.25000000       0.50000000 </v>
   <v>       0.25000000       0.25000000       0.50000000 </v>
   <v>       0.50000000       0.25000000       0.50000000 </v>
   <v>       0.00000000       0.50000000       0.50000000 </v>
   <v>       0.25000000       0.50000000       0.50000000 </v>
   <v>       0.50000000       0.50000000       0.50000000 </v>
  </varray>
  <varray name="weights" >
   <v>       0.01562500 </v>
   <v>       0.03125000 </v>
   <v>       0.01562500 </v>
   <v>       0.03125000 </v>
   <v>       0.06250000 </v>
   <v>       0.03125000 </v>
   <v>       0.01562500 </v>
   <v>       0.03125000 </v>
   <v>       0.01562500 </v>
   <v>       0.03125000 </v>
   <v>       0.03125000 </v>
   <v>       0.03125000 </v>
   <v>       0.03125000 </v>
   <v>       0.06250000 </v>
   <v>       0.06250000 </v>
   <v>       0.06250000 </v>
   <v>       0.06250000 </v>
   <v>       0.03125000 </v>
   <v>       0.03125000 </v>
   <v>       0.03125000 </v>
   <v>       0.03125000 </v>
   <v>       0.01562500 </v>
   <v>       0.03125000 </v>
   <v>       0.01562500 </v>
   <v>       0.03125000 </v>
   <v>       0.06250000 </v>
   <v>       0.03125000 </v>
   <v>       0.01562500 </v>
   <v>       0.03125000 </v>
   <v>       0.01562500 </v>
  </varray>
 </kpoints>
 <parameters>
  <separator name="general" >
   <i type="string" name="SYSTEM">unknown system</i>
   <i type="logical" name="LCOMPAT"> F  </i>
  </separator>
  <separator name="electronic" >
   <i type="string" name="PREC">normal</i>
   <i name="ENMAX">    450.00000000</i>
   <i name="ENAUG">    605.39200000</i>
   <i name="EDIFF">      0.00001000</i>
   <i type="int" name="IALGO">    58</i>
   <i type="int" name="IWAVPR">    10</i>
   <i type="int" name="NBANDS">   633</i>
   <i type="int" name="NBANDSLOW">    -1</i>
   <i type="int" name="NBANDSHIGH">    -1</i>
   <i name="NELECT">   1056.00000000</i>
   <i type="int" name="TURBO">     0</i>
   <i type="int" name="IRESTART">     0</i>
   <i type="int" name="NREBOOT">     0</i>
   <i type="int" name="NMIN">     0</i>
   <i name="EREF">      0.00000000</i>
   <separator name="electronic smearing" >
    <i type="int" name="ISMEAR">     0</i>
    <i name="SIGMA">      0.05000000</i>
    <i name="KSPACING">      0.50000000</i>
    <i type="logical" name="KGAMMA"> T  </i>
    <i type="logical" name="KBLOWUP"> T  </i>
   </separator>
   <separator name="electronic projectors" >
    <i type="logical" name="LREAL"> T  </i>
    <v name="ROPT">     -0.00050000     -0.00050000</v>
    <i type="int" name="LMAXPAW">  -100</i>
    <i type="int" name="LMAXMIX">     2</i>
    <i type="logical" name="NLSPLINE"> F  </i>
   </separator>
   <separator name="electronic startup" >
    <i type="int" name="ISTART">     0</i>
    <i type="int" name="ICHARG">     0</i>
    <i type="int" name="INIWAV">     1</i>
   </separator>
   <separator name="electronic spin" >
    <i type="int" name="ISPIN">     1</i>
    <i type="logical" name="LNONCOLLINEAR"> F  </i>
    <v name="MAGMOM">      1.00000000      1.00000000      1.00000000      1.00000000      1.00000000      1.00000000      1.00000000      1.00000000      1.00000000      1.00000000      1.00000000      1.00000000      1.00000000      1.00000000      1.00000000      1.00000000      1.00000000      1.00000000      1.00000000      1.00000000
      1.00000000      1.00000000      1.00000000      1.00000000      1.00000000      1.00000000      1.00000000      1.00000000      1.00000000      1.00000000      1.00000000      1.00000000      1.00000000      1.00000000      1.00000000      1.00000000      1.00000000      1.00000000      1.00000000      1.00000000
      1.00000000      1.00000000      1.00000000      1.00000000      1.00000000      1.00000000      1.00000000      1.00000000      1.00000000      1.00000000      1.00000000      1.00000000      1.00000000      1.00000000      1.00000000      1.00000000      1.00000000      1.00000000      1.00000000      1.00000000
      1.00000000      1.00000000      1.00000000      1.00000000      1.00000000      1.00000000      1.00000000      1.00000000      1.00000000      1.00000000      1.00000000      1.00000000      1.00000000      1.00000000      1.00000000      1.00000000      1.00000000      1.00000000      1.00000000      1.00000000
      1.00000000      1.00000000      1.00000000      1.00000000      1.00000000      1.00000000      1.00000000      1.00000000      1.00000000      1.00000000      1.00000000      1.00000000      1.00000000      1.00000000      1.00000000      1.00000000      1.00000000      1.00000000      1.00000000      1.00000000
      1.00000000      1.00000000      1.00000000      1.00000000      1.00000000      1.00000000      1.00000000      1.00000000      1.00000000      1.00000000      1.00000000      1.00000000      1.00000000      1.00000000      1.00000000      1.00000000      1.00000000      1.00000000      1.00000000      1.00000000
</v>
    <i name="NUPDOWN">     -1.00000000</i>
    <i type="logical" name="LSORBIT"> F  </i>
    <v name="SAXIS">      0.00000000      0.00000000      1.00000000</v>
    <i type="logical" name="LSPIRAL"> F  </i>
    <v name="QSPIRAL">      0.00000000      0.00000000      0.00000000</v>
    <i type="logical" name="LZEROZ"> F  </i>
   </separator>
   <separator name="electronic exchange-correlation" >
    <i type="logical" name="LASPH"> F  </i>
    <i type="logical" name="LMETAGGA"> F  </i>
   </separator>
   <separator name="electronic convergence" >
    <i type="int" name="NELM">   500</i>
    <i type="int" name="NELMDL">    -5</i>
    <i type="int" name="NELMIN">     2</i>
    <i name="ENINI">    450.00000000</i>
    <separator name="electronic convergence detail" >
     <i type="logical" name="LDIAG"> T  </i>
     <i type="logical" name="LSUBROT"> F  </i>
     <i name="WEIMIN">      0.00000000</i>
     <i name="EBREAK">      0.00000000</i>
     <i name="DEPER">      0.30000000</i>
     <i type="int" name="NRMM">     4</i>
     <i name="TIME">      0.40000000</i>
    </separator>
   </separator>
   <separator name="electronic mixer" >
    <i name="AMIX">      0.40000000</i>
    <i name="BMIX">      1.00000000</i>
    <i name="AMIN">      0.10000000</i>
    <i name="AMIX_MAG">      1.60000000</i>
    <i name="BMIX_MAG">      1.00000000</i>
    <separator name="electronic mixer details" >
     <i type="int" name="IMIX">     4</i>
     <i type="logical" name="MIXFIRST"> F  </i>
     <i type="int" name="MAXMIX">   -45</i>
     <i name="WC">    100.00000000</i>
     <i type="int" name="INIMIX">     1</i>
     <i type="int" name="MIXPRE">     1</i>
     <i type="int" name="MREMOVE">     5</i>
    </separator>
   </separator>
   <separator name="electronic dipolcorrection" >
    <i type="logical" name="LDIPOL"> F  </i>
    <i type="logical" name="LMONO"> F  </i>
    <i type="int" name="IDIPOL">     0</i>
    <i name="EPSILON">      1.00000000</i>
    <v name="DIPOL">   -100.00000000   -100.00000000   -100.00000000</v>
    <i name="EFIELD">      0.00000000</i>
   </separator>
  </separator>
  <separator name="grids" >
   <i type="int" name="NGX">    64</i>
   <i type="int" name="NGY">    48</i>
   <i type="int" name="NGZ">    60</i>
   <i type="int" name="NGXF">   128</i>
   <i type="int" name="NGYF">    96</i>
   <i type="int" name="NGZF">   120</i>
   <i type="logical" name="ADDGRID"> F  </i>
  </separator>
  <separator name="ionic" >
   <i type="int" name="NSW">     0</i>
   <i type="int" name="IBRION">    -1</i>
   <i type="int" name="MDALGO">     0</i>
   <i type="int" name="ISIF">     2</i>
   <i name="PSTRESS">      0.00000000</i>
   <i name="EDIFFG">     -0.00500000</i>
   <i type="int" name="NFREE">     0</i>
   <i name="POTIM">      0.50000000</i>
   <i name="SMASS">     -3.00000000</i>
   <i name="SCALEE">      1.00000000</i>
  </separator>
  <separator name="ionic md" >
   <i name="TEBEG">      0.00010000</i>
   <i name="TEEND">      0.00010000</i>
   <i type="int" name="NBLOCK">     1</i>
   <i type="int" name="KBLOCK">     1</i>
   <i type="int" name="NPACO">   256</i>
   <i name="APACO">     10.00000000</i>
  </separator>
  <separator name="symmetry" >
   <i type="int" name="ISYM">     3</i>
   <i name="SYMPREC">      0.00001000</i>
  </separator>
  <separator name="dos" >
   <i type="int" name="LORBIT">     0</i>
   <v name="RWIGS">     -1.00000000     -1.00000000</v>
   <i type="int" name="NEDOS">   301</i>
   <i name="EMIN">     10.00000000</i>
   <i name="EMAX">    -10.00000000</i>
   <i name="EFERMI">      0.00000000</i>
  </separator>
  <separator name="writing" >
   <i type="int" name="NWRITE">     2</i>
   <i type="logical" name="LWAVE"> T  </i>
   <i type="logical" name="LDOWNSAMPLE"> F  </i>
   <i type="logical" name="LCHARG"> T  </i>
   <i type="logical" name="LPARD"> F  </i>
   <i type="logical" name="LVTOT"> F  </i>
   <i type="logical" name="LVHAR"> F  </i>
   <i type="logical" name="LELF"> F  </i>
   <i type="logical" name="LOPTICS"> F  </i>
   <v name="STM">      0.00000000      0.00000000      0.00000000      0.00000000      0.00000000      0.00000000      0.00000000</v>
  </separator>
  <separator name="performance" >
   <i type="int" name="NPAR">     1</i>
   <i type="int" name="NSIM">     4</i>
   <i type="int" name="NBLK">    -1</i>
   <i type="logical" name="LPLANE"> T  </i>
   <i type="logical" name="LSCALAPACK"> T  </i>
   <i type="logical" name="LSCAAWARE"> F  </i>
   <i type="logical" name="LSCALU"> F  </i>
   <i type="logical" name="LASYNC"> F  </i>
   <i type="logical" name="LORBITALREAL"> F  </i>
  </separator>
  <separator name="miscellaneous" >
   <i type="int" name="IDIOT">     3</i>
   <i type="int" name="PHON_NSTRUCT">    -1</i>
   <i type="logical" name="LMUSIC"> F  </i>
   <v name="POMASS">     69.72300000     16.00000000</v>
   <v name="DARWINR">      0.00000000      0.00000000</v>
   <v name="DARWINV">      1.00000000      1.00000000</v>
   <i type="logical" name="LCORR"> T  </i>
  </separator>
  <i type="logical" name="GGA_COMPAT"> T  </i>
  <i type="logical" name="LBERRY"> F  </i>
  <i type="int" name="ICORELEVEL">     0</i>
  <i type="logical" name="LDAU"> F  </i>
  <i type="int" name="I_CONSTRAINED_M">     0</i>
  <separator name="electronic exchange-correlation" >
   <i type="string" name="GGA">--</i>
   <i type="int" name="VOSKOWN">     0</i>
   <i type="logical" name="LHFCALC"> T  </i>
   <i type="string" name="PRECFOCK">fast</i>
   <i type="logical" name="LSYMGRAD"> F  </i>
   <i type="logical" name="LHFONE"> F  </i>
   <i type="logical" name="LRHFCALC"> F  </i>
   <i type="logical" name="LTHOMAS"> F  </i>
   <i type="logical" name="LMODELHF"> F  </i>
   <i type="logical" name="LFOCKACE"> T  </i>
   <i name="ENCUT4O">     -1.00000000</i>
   <i type="int" name="EXXOEP">     0</i>
   <i type="int" name="FOURORBIT">     0</i>
   <i name="AEXX">      0.32000000</i>
   <i name="HFALPHA">     -1.00000000</i>
   <i name="MCALPHA">      0.00000000</i>
   <i name="ALDAX">      0.68000000</i>
   <i name="AGGAX">      0.68000000</i>
   <i name="ALDAC">      1.00000000</i>
   <i name="AGGAC">      1.00000000</i>
   <i type="int" name="NKREDX">     1</i>
   <i type="int" name="NKREDY">     1</i>
   <i type="int" name="NKREDZ">     1</i>
   <i type="logical" name="SHIFTRED"> F  </i>
   <i type="logical" name="ODDONLY"> F  </i>
   <i type="logical" name="EVENONLY"> F  </i>
   <i type="int" name="LMAXFOCK">     4</i>
   <i type="int" name="NMAXFOCKAE">     1</i>
   <i type="logical" name="LFOCKAEDFT"> F  </i>
   <i name="HFSCREEN">      0.20000000</i>
   <i name="HFSCREENC">      0.20000000</i>
   <i type="int" name="NBANDSGWLOW">     1</i>
  </separator>
  <separator name="vdW DFT" >
   <i type="logical" name="LUSE_VDW"> F  </i>
   <i type="int" name="IVDW_NL">     1</i>
   <i type="logical" name="LSPIN_VDW"> F  </i>
   <i name="Zab_VDW">     -0.84910000</i>
   <i name="PARAM1">      0.12340000</i>
   <i name="PARAM2">      1.00000000</i>
   <i name="PARAM3">      0.00000000</i>
  </separator>
  <separator name="model GW" >
   <i type="int" name="MODEL_GW">     0</i>
   <i name="MODEL_EPS0">      6.34402578</i>
   <i name="MODEL_ALPHA">      1.00000000</i>
  </separator>
  <separator name="linear response parameters" >
   <i type="logical" name="LEPSILON"> F  </i>
   <i type="logical" name="LRPA"> F  </i>
   <i type="logical" name="LNABLA"> F  </i>
   <i type="logical" name="LVEL"> F  </i>
   <i name="CSHIFT">      0.10000000</i>
   <i name="OMEGAMAX">     -1.00000000</i>
   <i name="DEG_THRESHOLD">      0.00200000</i>
   <i name="RTIME">     -0.10000000</i>
   <i name="WPLASMAI">      0.00000000</i>
   <v name="DFIELD">      0.00000000      0.00000000      0.00000000</v>
   <v name="WPLASMA">      0.00000000      0.00000000      0.00000000      0.00000000      0.00000000      0.00000000      0.00000000      0.00000000      0.00000000</v>
  </separator>
  <separator name="orbital magnetization" >
   <i type="logical" name="NUCIND"> F  </i>
   <v name="MAGPOS">      0.00000000      0.00000000      0.00000000</v>
   <i type="logical" name="LNICSALL"> T  </i>
   <i type="logical" name="ORBITALMAG"> F  </i>
   <i type="logical" name="LMAGBLOCH"> F  </i>
   <i type="logical" name="LCHIMAG"> F  </i>
   <i type="logical" name="LGAUGE"> T  </i>
   <i type="int" name="MAGATOM">     0</i>
   <v name="MAGDIPOL">      0.00000000      0.00000000      0.00000000</v>
   <v name="AVECCONST">      0.00000000      0.00000000      0.00000000</v>
  </separator>
  <separator name="response functions" >
   <i type="logical" name="LALL_IN_ONE"> F  </i>
   <i type="int" name="IALL_IN_ONE">    -1</i>
   <i type="int" name="NBANDS_WAVE">    -1</i>
   <i type="logical" name="LFINITE_TEMPERATURE"> F  </i>
   <i type="logical" name="LADDER"> F  </i>
   <i type="logical" name="LRPAFORCE"> F  </i>
   <i type="logical" name="LFXC"> F  </i>
   <i type="logical" name="LHARTREE"> T  </i>
   <i type="int" name="IBSE">     0</i>
   <v type="int" name="KPOINT">    -1     0     0     0</v>
   <i type="logical" name="LTCTC"> F  </i>
   <i type="logical" name="LTCTE"> F  </i>
   <i type="logical" name="LTETE"> F  </i>
   <i type="logical" name="LTRIPLET"> F  </i>
   <i type="logical" name="LFXCEPS"> F  </i>
   <i type="logical" name="LFXHEG"> F  </i>
   <i type="int" name="NATURALO">     2</i>
   <i type="logical" name="LHOLEGF"> F  </i>
   <i type="logical" name="L2ORDER"> F  </i>
   <i type="logical" name="LDMP1"> F  </i>
   <i type="logical" name="LMP2LT"> F  </i>
   <i type="logical" name="LSMP2LT"> F  </i>
   <i type="logical" name="LGWLF"> F  </i>
   <i name="ENCUTGW">     -1.60000002</i>
   <i name="ENCUTGWSOFT">     -1.60000002</i>
   <i name="ENCUTLF">     -1.00000000</i>
   <i type="logical" name="LESF_SPLINES"> F  </i>
   <i type="int" name="LMAXMP2">    -1</i>
   <i name="SCISSOR">      0.00000000</i>
   <i type="int" name="NOMEGA">     0</i>
   <i type="int" name="NOMEGAR">     0</i>
   <i type="int" name="NBANDSGW">    -1</i>
   <i type="int" name="NBANDSO">    -1</i>
   <i type="int" name="NBANDSV">    -1</i>
   <i type="int" name="NELMGW">     1</i>
   <i type="int" name="NELMHF">     1</i>
   <i type="int" name="DIM">     3</i>
   <i type="int" name="IESPILON">     4</i>
   <i type="int" name="ANTIRES">     0</i>
   <i name="OMEGAMAX">    -30.00000000</i>
   <i name="OMEGAMIN">    -30.00000000</i>
   <i name="OMEGATL">   -200.00000000</i>
   <i type="int" name="OMEGAGRID">     0</i>
   <i name="CSHIFT">     -0.10000000</i>
   <i type="logical" name="LSELFENERGY"> F  </i>
   <i type="logical" name="LSPECTRAL"> F  </i>
   <i type="logical" name="LSPECTRALGW"> F  </i>
   <i type="logical" name="LSINGLES"> F  </i>
   <i type="logical" name="LFERMIGW"> F  </i>
   <i type="logical" name="ODDONLYGW"> F  </i>
   <i type="logical" name="EVENONLYGW"> F  </i>
   <i type="int" name="NKREDLFX">     1</i>
   <i type="int" name="NKREDLFY">     1</i>
   <i type="int" name="NKREDLFZ">     1</i>
   <i type="int" name="MAXMEM">  2800</i>
   <i type="int" name="TELESCOPE">     0</i>
   <i type="int" name="NTAUPAR">    -1</i>
   <i type="int" name="NOMEGAPAR">    -1</i>
   <i name="DAMP_NEWTON">      0.80000001</i>
   <i name="LAMBDA">      1.00000000</i>
  </separator>
  <separator name="External order field" >
   <i name="OFIELD_KAPPA">      0.00000000</i>
   <v name="OFIELD_K">      0.00000000      0.00000000      0.00000000</v>
   <i name="OFIELD_Q6_NEAR">      0.00000000</i>
   <i name="OFIELD_Q6_FAR">      0.00000000</i>
   <i name="OFIELD_A">      0.00000000</i>
  </separator>
  <separator name="optional k-points parameters" >
   <i type="int" name="KPOINTS_OPT_MODE">     1</i>
   <i type="logical" name="LKPOINTS_OPT"> F  </i>
  </separator>
 </parameters>
 <atominfo>
  <atoms>     120 </atoms>
  <types>       2 </types>
  <array name="atoms" >
   <dimension dim="1">ion</dimension>
   <field type="string">element</field>
   <field type="int">atomtype</field>
   <set>
    <rc><c>Ga</c><c>   1</c></rc>
    <rc><c>Ga</c><c>   1</c></rc>
    <rc><c>Ga</c><c>   1</c></rc>
    <rc><c>Ga</c><c>   1</c></rc>
    <rc><c>Ga</c><c>   1</c></rc>
    <rc><c>Ga</c><c>   1</c></rc>
    <rc><c>Ga</c><c>   1</c></rc>
    <rc><c>Ga</c><c>   1</c></rc>
    <rc><c>Ga</c><c>   1</c></rc>
    <rc><c>Ga</c><c>   1</c></rc>
    <rc><c>Ga</c><c>   1</c></rc>
    <rc><c>Ga</c><c>   1</c></rc>
    <rc><c>Ga</c><c>   1</c></rc>
    <rc><c>Ga</c><c>   1</c></rc>
    <rc><c>Ga</c><c>   1</c></rc>
    <rc><c>Ga</c><c>   1</c></rc>
    <rc><c>Ga</c><c>   1</c></rc>
    <rc><c>Ga</c><c>   1</c></rc>
    <rc><c>Ga</c><c>   1</c></rc>
    <rc><c>Ga</c><c>   1</c></rc>
    <rc><c>Ga</c><c>   1</c></rc>
    <rc><c>Ga</c><c>   1</c></rc>
    <rc><c>Ga</c><c>   1</c></rc>
    <rc><c>Ga</c><c>   1</c></rc>
    <rc><c>Ga</c><c>   1</c></rc>
    <rc><c>Ga</c><c>   1</c></rc>
    <rc><c>Ga</c><c>   1</c></rc>
    <rc><c>Ga</c><c>   1</c></rc>
    <rc><c>Ga</c><c>   1</c></rc>
    <rc><c>Ga</c><c>   1</c></rc>
    <rc><c>Ga</c><c>   1</c></rc>
    <rc><c>Ga</c><c>   1</c></rc>
    <rc><c>Ga</c><c>   1</c></rc>
    <rc><c>Ga</c><c>   1</c></rc>
    <rc><c>Ga</c><c>   1</c></rc>
    <rc><c>Ga</c><c>   1</c></rc>
    <rc><c>Ga</c><c>   1</c></rc>
    <rc><c>Ga</c><c>   1</c></rc>
    <rc><c>Ga</c><c>   1</c></rc>
    <rc><c>Ga</c><c>   1</c></rc>
    <rc><c>Ga</c><c>   1</c></rc>
    <rc><c>Ga</c><c>   1</c></rc>
    <rc><c>Ga</c><c>   1</c></rc>
    <rc><c>Ga</c><c>   1</c></rc>
    <rc><c>Ga</c><c>   1</c></rc>
    <rc><c>Ga</c><c>   1</c></rc>
    <rc><c>Ga</c><c>   1</c></rc>
    <rc><c>Ga</c><c>   1</c></rc>
    <rc><c>O </c><c>   2</c></rc>
    <rc><c>O </c><c>   2</c></rc>
    <rc><c>O </c><c>   2</c></rc>
    <rc><c>O </c><c>   2</c></rc>
    <rc><c>O </c><c>   2</c></rc>
    <rc><c>O </c><c>   2</c></rc>
    <rc><c>O </c><c>   2</c></rc>
    <rc><c>O </c><c>   2</c></rc>
    <rc><c>O </c><c>   2</c></rc>
    <rc><c>O </c><c>   2</c></rc>
    <rc><c>O </c><c>   2</c></rc>
    <rc><c>O </c><c>   2</c></rc>
    <rc><c>O </c><c>   2</c></rc>
    <rc><c>O </c><c>   2</c></rc>
    <rc><c>O </c><c>   2</c></rc>
    <rc><c>O </c><c>   2</c></rc>
    <rc><c>O </c><c>   2</c></rc>
    <rc><c>O </c><c>   2</c></rc>
    <rc><c>O </c><c>   2</c></rc>
    <rc><c>O </c><c>   2</c></rc>
    <rc><c>O </c><c>   2</c></rc>
    <rc><c>O </c><c>   2</c></rc>
    <rc><c>O </c><c>   2</c></rc>
    <rc><c>O </c><c>   2</c></rc>
    <rc><c>O </c><c>   2</c></rc>
    <rc><c>O </c><c>   2</c></rc>
    <rc><c>O </c><c>   2</c></rc>
    <rc><c>O </c><c>   2</c></rc>
    <rc><c>O </c><c>   2</c></rc>
    <rc><c>O </c><c>   2</c></rc>
    <rc><c>O </c><c>   2</c></rc>
    <rc><c>O </c><c>   2</c></rc>
    <rc><c>O </c><c>   2</c></rc>
    <rc><c>O </c><c>   2</c></rc>
    <rc><c>O </c><c>   2</c></rc>
    <rc><c>O </c><c>   2</c></rc>
    <rc><c>O </c><c>   2</c></rc>
    <rc><c>O </c><c>   2</c></rc>
    <rc><c>O </c><c>   2</c></rc>
    <rc><c>O </c><c>   2</c></rc>
    <rc><c>O </c><c>   2</c></rc>
    <rc><c>O </c><c>   2</c></rc>
    <rc><c>O </c><c>   2</c></rc>
    <rc><c>O </c><c>   2</c></rc>
    <rc><c>O </c><c>   2</c></rc>
    <rc><c>O </c><c>   2</c></rc>
    <rc><c>O </c><c>   2</c></rc>
    <rc><c>O </c><c>   2</c></rc>
    <rc><c>O </c><c>   2</c></rc>
    <rc><c>O </c><c>   2</c></rc>
    <rc><c>O </c><c>   2</c></rc>
    <rc><c>O </c><c>   2</c></rc>
    <rc><c>O </c><c>   2</c></rc>
    <rc><c>O </c><c>   2</c></rc>
    <rc><c>O </c><c>   2</c></rc>
    <rc><c>O </c><c>   2</c></rc>
    <rc><c>O </c><c>   2</c></rc>
    <rc><c>O </c><c>   2</c></rc>
    <rc><c>O </c><c>   2</c></rc>
    <rc><c>O </c><c>   2</c></rc>
    <rc><c>O </c><c>   2</c></rc>
    <rc><c>O </c><c>   2</c></rc>
    <rc><c>O </c><c>   2</c></rc>
    <rc><c>O </c><c>   2</c></rc>
    <rc><c>O </c><c>   2</c></rc>
    <rc><c>O </c><c>   2</c></rc>
    <rc><c>O </c><c>   2</c></rc>
    <rc><c>O </c><c>   2</c></rc>
    <rc><c>O </c><c>   2</c></rc>
    <rc><c>O </c><c>   2</c></rc>
    <rc><c>O </c><c>   2</c></rc>
    <rc><c>O </c><c>   2</c></rc>
   </set>
  </array>
  <array name="atomtypes" >
   <dimension dim="1">type</dimension>
   <field type="int">atomspertype</field>
   <field type="string">element</field>
   <field>mass</field>
   <field>valence</field>
   <field type="string">pseudopotential</field>
   <set>
    <rc><c>  48</c><c>Ga</c><c>     69.72300000</c><c>     13.00000000</c><c>  PAW_PBE Ga_d 06Jul2010                </c></rc>
    <rc><c>  72</c><c>O </c><c>     16.00000000</c><c>      6.00000000</c><c>  PAW_PBE O 08Apr2002                   </c></rc>
   </set>
  </array>
 </atominfo>
 <structure name="initialpos" >
  <crystal>
   <varray name="basis" >
    <v>       0.00000000      12.28047342       0.00000000 </v>
    <v>       9.14270205       0.00000000       0.00000000 </v>
    <v>       0.00000000      -2.76826177     -11.30069772 </v>
   </varray>
   <i name="volume">   1268.80515525 </i>
   <varray name="rec_basis" >
    <v>       0.00000000       0.08143009      -0.01994742 </v>
    <v>       0.10937686      -0.00000000       0.00000000 </v>
    <v>       0.00000000       0.00000000      -0.08849011 </v>
   </varray>
  </crystal>
  <varray name="positions" >
   <v>       0.65901370       0.00000000       0.15659438 </v>
   <v>       0.65901370       0.00000000       0.65659438 </v>
   <v>       0.65901370       0.33333333       0.15659438 </v>
   <v>       0.65901370       0.33333333       0.65659438 </v>
   <v>       0.65901370       0.66666667       0.15659438 </v>
   <v>       0.65901370       0.66666667       0.65659438 </v>
   <v>       0.84098630       0.16666667       0.34340562 </v>
   <v>       0.84098630       0.16666667       0.84340562 </v>
   <v>       0.84098630       0.50000000       0.34340562 </v>
   <v>       0.84098630       0.50000000       0.84340562 </v>
   <v>       0.84098630       0.83333333       0.34340562 </v>
   <v>       0.84098630       0.83333333       0.84340562 </v>
   <v>       0.59108851       0.16666667       0.39757803 </v>
   <v>       0.59108851       0.16666667       0.89757803 </v>
   <v>       0.59108851       0.50000000       0.39757803 </v>
   <v>       0.59108851       0.50000000       0.89757803 </v>
   <v>       0.59108851       0.83333333       0.39757803 </v>
   <v>       0.59108851       0.83333333       0.89757803 </v>
   <v>       0.90891149       0.00000000       0.10242197 </v>
   <v>       0.90891149       0.00000000       0.60242197 </v>
   <v>       0.90891149       0.33333333       0.10242197 </v>
   <v>       0.90891149       0.33333333       0.60242197 </v>
   <v>       0.90891149       0.66666667       0.10242197 </v>
   <v>       0.90891149       0.66666667       0.60242197 </v>
   <v>       0.15901370       0.16666667       0.15659438 </v>
   <v>       0.15901370       0.16666667       0.65659438 </v>
   <v>       0.15901370       0.50000000       0.15659438 </v>
   <v>       0.15901370       0.50000000       0.65659438 </v>
   <v>       0.15901370       0.83333333       0.15659438 </v>
   <v>       0.15901370       0.83333333       0.65659438 </v>
   <v>       0.34098630       0.00000000       0.34340562 </v>
   <v>       0.34098630       0.00000000       0.84340562 </v>
   <v>       0.34098630       0.33333333       0.34340562 </v>
   <v>       0.34098630       0.33333333       0.84340562 </v>
   <v>       0.34098630       0.66666667       0.34340562 </v>
   <v>       0.34098630       0.66666667       0.84340562 </v>
   <v>       0.09108851       0.00000000       0.39757803 </v>
   <v>       0.09108851       0.00000000       0.89757803 </v>
   <v>       0.09108851       0.33333333       0.39757803 </v>
   <v>       0.09108851       0.33333333       0.89757803 </v>
   <v>       0.09108851       0.66666667       0.39757803 </v>
   <v>       0.09108851       0.66666667       0.89757803 </v>
   <v>       0.40891149       0.16666667       0.10242197 </v>
   <v>       0.40891149       0.16666667       0.60242197 </v>
   <v>       0.40891149       0.50000000       0.10242197 </v>
   <v>       0.40891149       0.50000000       0.60242197 </v>
   <v>       0.40891149       0.83333333       0.10242197 </v>
   <v>       0.40891149       0.83333333       0.60242197 </v>
   <v>       0.99636539       0.16666667       0.12722771 </v>
   <v>       0.99636539       0.16666667       0.62722771 </v>
   <v>       0.99636539       0.50000000       0.12722771 </v>
   <v>       0.99636539       0.50000000       0.62722771 </v>
   <v>       0.99636539       0.83333333       0.12722771 </v>
   <v>       0.99636539       0.83333333       0.62722771 </v>
   <v>       0.50363461       0.00000000       0.37277229 </v>
   <v>       0.50363461       0.00000000       0.87277229 </v>
   <v>       0.50363461       0.33333333       0.37277229 </v>
   <v>       0.50363461       0.33333333       0.87277229 </v>
   <v>       0.50363461       0.66666667       0.37277229 </v>
   <v>       0.50363461       0.66666667       0.87277229 </v>
   <v>       0.67253705       0.16666667       0.28039613 </v>
   <v>       0.67253705       0.16666667       0.78039613 </v>
   <v>       0.67253705       0.50000000       0.28039613 </v>
   <v>       0.67253705       0.50000000       0.78039613 </v>
   <v>       0.67253705       0.83333333       0.28039613 </v>
   <v>       0.67253705       0.83333333       0.78039613 </v>
   <v>       0.82746295       0.00000000       0.21960387 </v>
   <v>       0.82746295       0.00000000       0.71960387 </v>
   <v>       0.82746295       0.33333333       0.21960387 </v>
   <v>       0.82746295       0.33333333       0.71960387 </v>
   <v>       0.82746295       0.66666667       0.21960387 </v>
   <v>       0.82746295       0.66666667       0.71960387 </v>
   <v>       0.83208626       0.00000000       0.44580823 </v>
   <v>       0.83208626       0.00000000       0.94580823 </v>
   <v>       0.83208626       0.33333333       0.44580823 </v>
   <v>       0.83208626       0.33333333       0.94580823 </v>
   <v>       0.83208626       0.66666667       0.44580823 </v>
   <v>       0.83208626       0.66666667       0.94580823 </v>
   <v>       0.66791374       0.16666667       0.05419177 </v>
   <v>       0.66791374       0.16666667       0.55419177 </v>
   <v>       0.66791374       0.50000000       0.05419177 </v>
   <v>       0.66791374       0.50000000       0.55419177 </v>
   <v>       0.66791374       0.83333333       0.05419177 </v>
   <v>       0.66791374       0.83333333       0.55419177 </v>
   <v>       0.49636539       0.00000000       0.12722771 </v>
   <v>       0.49636539       0.00000000       0.62722771 </v>
   <v>       0.49636539       0.33333333       0.12722771 </v>
   <v>       0.49636539       0.33333333       0.62722771 </v>
   <v>       0.49636539       0.66666667       0.12722771 </v>
   <v>       0.49636539       0.66666667       0.62722771 </v>
   <v>       0.00363461       0.16666667       0.37277229 </v>
   <v>       0.00363461       0.16666667       0.87277229 </v>
   <v>       0.00363461       0.50000000       0.37277229 </v>
   <v>       0.00363461       0.50000000       0.87277229 </v>
   <v>       0.00363461       0.83333333       0.37277229 </v>
   <v>       0.00363461       0.83333333       0.87277229 </v>
   <v>       0.17253705       0.00000000       0.28039613 </v>
   <v>       0.17253705       0.00000000       0.78039613 </v>
   <v>       0.17253705       0.33333333       0.28039613 </v>
   <v>       0.17253705       0.33333333       0.78039613 </v>
   <v>       0.17253705       0.66666667       0.28039613 </v>
   <v>       0.17253705       0.66666667       0.78039613 </v>
   <v>       0.32746295       0.16666667       0.21960387 </v>
   <v>       0.32746295       0.16666667       0.71960387 </v>
   <v>       0.32746295       0.50000000       0.21960387 </v>
   <v>       0.32746295       0.50000000       0.71960387 </v>
   <v>       0.32746295       0.83333333       0.21960387 </v>
   <v>       0.32746295       0.83333333       0.71960387 </v>
   <v>       0.33208626       0.16666667       0.44580823 </v>
   <v>       0.33208626       0.16666667       0.94580823 </v>
   <v>       0.33208626       0.50000000       0.44580823 </v>
   <v>       0.33208626       0.50000000       0.94580823 </v>
   <v>       0.33208626       0.83333333       0.44580823 </v>
   <v>       0.33208626       0.83333333       0.94580823 </v>
   <v>       0.16791374       0.00000000       0.05419177 </v>
   <v>       0.16791374       0.00000000       0.55419177 </v>
   <v>       0.16791374       0.33333333       0.05419177 </v>
   <v>       0.16791374       0.33333333       0.55419177 </v>
   <v>       0.16791374       0.66666667       0.05419177 </v>
   <v>       0.16791374       0.66666667       0.55419177 </v>
  </varray>
 </structure>
 <calculation>
  <scstep>
   <time name="total">   14.61   14.62</time>
   <energy>
    <i name="alphaZ">   5537.53060054 </i>
    <i name="ewald"> -88891.37402132 </i>
    <i name="hartreedc">  -2111.24147918 </i>
    <i name="XCdc">   2806.52089820 </i>
    <i name="pawpsdc">  56203.24089203 </i>
    <i name="pawaedc"> -85414.46492539 </i>
    <i name="eentropy">     -0.01137383 </i>
    <i name="bandstr"> -40352.82596946 </i>
    <i name="atom"> 133901.37115015 </i>
    <i name="e_fr_energy"> -18321.25422825 </i>
    <i name="e_wo_entrp"> -18321.24285442 </i>
    <i name="e_0_energy"> -18321.24854133 </i>
   </energy>
  </scstep>
  <scstep>
   <time name="total">   12.65   12.66</time>
   <energy>
    <i name="e_fr_energy"> -62374.22098851 </i>
    <i name="e_wo_entrp"> -62374.20224220 </i>
    <i name="e_0_energy"> -62374.21161536 </i>
   </energy>
  </scstep>
  <scstep>
   <time name="total">   13.30   13.33</time>
   <energy>
    <i name="e_fr_energy"> -66794.76214566 </i>
    <i name="e_wo_entrp"> -66794.69613875 </i>
    <i name="e_0_energy"> -66794.72914221 </i>
   </energy>
  </scstep>
  <scstep>
   <time name="total">   14.34   14.34</time>
   <energy>
    <i name="e_fr_energy"> -67284.59016749 </i>
    <i name="e_wo_entrp"> -67284.50772413 </i>
    <i name="e_0_energy"> -67284.54894581 </i>
   </energy>
  </scstep>
  <scstep>
   <time name="total"> 7467.82 7466.47</time>
   <energy>
    <i name="e_fr_energy"> -37119.22972184 </i>
    <i name="e_wo_entrp"> -37119.19430542 </i>
    <i name="e_0_energy"> -37119.21201363 </i>
   </energy>
  </scstep>
  <scstep>
   <time name="total">14734.4714731.94</time>
   <energy>
    <i name="e_fr_energy">  13589.57338216 </i>
    <i name="e_wo_entrp">  13589.57339811 </i>
    <i name="e_0_energy">  13589.57339014 </i>
   </energy>
  </scstep>
  <scstep>
   <time name="total">14842.0214839.56</time>
   <energy>
    <i name="e_fr_energy">   2226.28207154 </i>
    <i name="e_wo_entrp">   2226.38495308 </i>
    <i name="e_0_energy">   2226.33351231 </i>
   </energy>
  </scstep>
  <scstep>
   <time name="total">14818.9614816.37</time>
   <energy>
    <i name="e_fr_energy">    925.69244789 </i>
    <i name="e_wo_entrp">    925.76153482 </i>
    <i name="e_0_energy">    925.72699135 </i>
   </energy>
  </scstep>
  <scstep>
   <time name="total">14797.6114795.16</time>
   <energy>
    <i name="e_fr_energy">    410.47870361 </i>
    <i name="e_wo_entrp">    410.49707975 </i>
    <i name="e_0_energy">    410.48789168 </i>
   </energy>
  </scstep>
  <scstep>
   <time name="total">14707.2014704.67</time>
   <energy>
    <i name="e_fr_energy">    125.12496643 </i>
    <i name="e_wo_entrp">    125.13584370 </i>
    <i name="e_0_energy">    125.13040506 </i>
   </energy>
  </scstep>
  <scstep>
   <time name="total">14692.9314690.55</time>
   <energy>
    <i name="e_fr_energy">   -352.16324375 </i>
    <i name="e_wo_entrp">   -352.15837450 </i>
    <i name="e_0_energy">   -352.16080913 </i>
   </energy>
  </scstep>
  <scstep>
   <time name="total">14688.7414686.21</time>
   <energy>
    <i name="e_fr_energy">   -643.20055539 </i>
    <i name="e_wo_entrp">   -643.19595044 </i>
    <i name="e_0_energy">   -643.19825291 </i>
   </energy>
  </scstep>
  <scstep>
   <time name="total">14692.6214690.11</time>
   <energy>
    <i name="e_fr_energy">   -792.90597271 </i>
    <i name="e_wo_entrp">   -792.90134878 </i>
    <i name="e_0_energy">   -792.90366074 </i>
   </energy>
  </scstep>
  <scstep>
   <time name="total">14680.7314678.26</time>
   <energy>
    <i name="e_fr_energy">   -880.79899213 </i>
    <i name="e_wo_entrp">   -880.79803728 </i>
    <i name="e_0_energy">   -880.79851470 </i>
   </energy>
  </scstep>
  <scstep>
   <time name="total">14675.7414673.12</time>
   <energy>
    <i name="e_fr_energy">   -920.81700639 </i>
    <i name="e_wo_entrp">   -920.81700639 </i>
    <i name="e_0_energy">   -920.81700639 </i>
   </energy>
  </scstep>
  <scstep>
   <time name="total">14661.4314658.98</time>
   <energy>
    <i name="e_fr_energy">   -941.17038679 </i>
    <i name="e_wo_entrp">   -941.17038679 </i>
    <i name="e_0_energy">   -941.17038679 </i>
   </energy>
  </scstep>
  <scstep>
   <time name="total">14678.4014676.08</time>
   <energy>
    <i name="e_fr_energy">   -950.42251682 </i>
    <i name="e_wo_entrp">   -950.42251682 </i>
    <i name="e_0_energy">   -950.42251682 </i>
   </energy>
  </scstep>
  <scstep>
   <time name="total">14663.2414660.59</time>
   <energy>
    <i name="e_fr_energy">   -954.48191384 </i>
    <i name="e_wo_entrp">   -954.48191384 </i>
    <i name="e_0_energy">   -954.48191384 </i>
   </energy>
  </scstep>
  <scstep>
   <time name="total">14678.6414676.03</time>
   <energy>
    <i name="e_fr_energy">   -956.58693481 </i>
    <i name="e_wo_entrp">   -956.58693481 </i>
    <i name="e_0_energy">   -956.58693481 </i>
   </energy>
  </scstep>
  <scstep>
   <time name="total">14667.7514665.12</time>
   <energy>
    <i name="e_fr_energy">   -957.51710961 </i>
    <i name="e_wo_entrp">   -957.51710961 </i>
    <i name="e_0_energy">   -957.51710961 </i>
   </energy>
  </scstep>
  <scstep>
   <time name="total">14678.4914675.88</time>
   <energy>
    <i name="e_fr_energy">   -957.95916896 </i>
    <i name="e_wo_entrp">   -957.95916896 </i>
    <i name="e_0_energy">   -957.95916896 </i>
   </energy>
  </scstep>
  <scstep>
   <time name="total">14669.7214667.25</time>
   <energy>
    <i name="e_fr_energy">   -958.16795328 </i>
    <i name="e_wo_entrp">   -958.16795328 </i>
    <i name="e_0_energy">   -958.16795328 </i>
   </energy>
  </scstep>
  <scstep>
   <time name="total">14673.6714671.16</time>
   <energy>
    <i name="e_fr_energy">   -958.24902493 </i>
    <i name="e_wo_entrp">   -958.24902493 </i>
    <i name="e_0_energy">   -958.24902493 </i>
   </energy>
  </scstep>
  <scstep>
   <time name="total">14668.8914666.36</time>
   <energy>
    <i name="e_fr_energy">   -958.28938104 </i>
    <i name="e_wo_entrp">   -958.28938104 </i