 running    4 mpi-ranks, on    1 nodes
 distrk:  each k-point on    1 cores,    4 groups
 distr:  one band on    1 cores,    1 groups
 OpenACC runtime initialized ...    4 GPUs detected
 vasp.6.4.2 20Jul23 (build Nov 12 2023 22:16:35) complex                         
 POSCAR found type information on POSCAR GaO P 
 POSCAR found :  3 types and     119 ions
 scaLAPACK will be used selectively (only on CPU)
 LDA part: xc-table for Pade appr. of Perdew
 POSCAR, INCAR and KPOINTS ok, starting setup
 FFT: planning ... GRIDC
 FFT: planning ... GRID_SOFT
 FFT: planning ... GRID
 WAVECAR not read
 entering main loop
       N       E                     dE             d eps       ncg     rms          rms(c)
DAV:   1     0.216706388025E+05    0.21671E+05   -0.31763E+05 10000   0.280E+03
DAV:   2     0.480631310569E+04   -0.16864E+05   -0.15894E+05 10000   0.813E+02
DAV:   3    -0.141209376004E+03   -0.49475E+04   -0.46559E+04 12800   0.320E+02
DAV:   4    -0.763896816604E+03   -0.62269E+03   -0.60953E+03 12360   0.121E+02
DAV:   5    -0.807714346683E+03   -0.43818E+02   -0.43499E+02 14448   0.347E+01    0.611E+01
RMM:   6    -0.698637506258E+03    0.10908E+03   -0.38739E+02 13135   0.237E+01    0.228E+01
RMM:   7    -0.703966104003E+03   -0.53286E+01   -0.66461E+01 13801   0.996E+00    0.179E+01
RMM:   8    -0.698938849818E+03    0.50273E+01   -0.11502E+01 15101   0.453E+00    0.126E+01
RMM:   9    -0.699672757033E+03   -0.73391E+00   -0.71915E+00 13193   0.300E+00    0.147E+01
RMM:  10    -0.697975440335E+03    0.16973E+01   -0.25246E+00 12183   0.238E+00    0.525E+00
RMM:  11    -0.698654502453E+03   -0.67906E+00   -0.10904E+00 13918   0.122E+00    0.119E+01
RMM:  12    -0.697571439505E+03    0.10831E+01   -0.68434E-01 14112   0.841E-01    0.337E+00
RMM:  13    -0.697700915466E+03   -0.12948E+00   -0.30223E-01 13368   0.602E-01    0.373E+00
RMM:  14    -0.697525897980E+03    0.17502E+00   -0.36026E-02 15210   0.257E-01    0.266E+00
RMM:  15    -0.697472509160E+03    0.53389E-01   -0.14871E-02 14638   0.120E-01    0.196E+00
RMM:  16    -0.697444164508E+03    0.28345E-01   -0.17143E-02 12801   0.108E-01    0.533E-01
RMM:  17    -0.697449441050E+03   -0.52765E-02   -0.24857E-03 14051   0.601E-02    0.972E-01
RMM:  18    -0.697445112768E+03    0.43283E-02   -0.75226E-03 13775   0.965E-02    0.863E-01
RMM:  19    -0.697450622458E+03   -0.55097E-02   -0.54767E-03 13415   0.751E-02    0.153E+00
RMM:  20    -0.697442126586E+03    0.84959E-02   -0.21035E-03 13036   0.482E-02    0.380E-01
RMM:  21    -0.697443082367E+03   -0.95578E-03   -0.45232E-04 11385   0.324E-02    0.407E-01
RMM:  22    -0.697442457635E+03    0.62473E-03   -0.23955E-04 10054   0.182E-02    0.181E-01
RMM:  23    -0.697442516500E+03   -0.58865E-04   -0.76558E-05  9233   0.112E-02    0.185E-01
RMM:  24    -0.697442391099E+03    0.12540E-03   -0.14488E-05  6254   0.676E-03    0.822E-02
RMM:  25    -0.697442373910E+03    0.17189E-04   -0.60005E-06  5973   0.434E-03    0.462E-02
RMM:  26    -0.697442368990E+03    0.49204E-05   -0.40919E-06  5937   0.337E-03
   1 F= -.69744237E+03 E0= -.69742853E+03  d E =-.697442E+03
 curvature:   0.00 expect dE= 0.000E+00 dE for cont linesearch  0.000E+00
 trial: gam= 0.00000 g(F)=  0.138E+02 g(S)=  0.000E+00 ort = 0.000E+00 (trialstep = 0.100E+01)
 search vector abs. value=  0.138E+02
 bond charge predicted
       N       E                     dE             d eps       ncg     rms          rms(c)
DAV:   1    -0.663676453089E+03    0.33766E+02   -0.63839E+03 11232   0.117E+02    0.185E+01
RMM:   2    -0.694199965519E+03   -0.30524E+02   -0.35029E+02 13684   0.277E+01    0.434E+00
RMM:   3    -0.699649821254E+03   -0.54499E+01   -0.55098E+01 13864   0.116E+01    0.819E+00
RMM:   4    -0.700256207537E+03   -0.60639E+00   -0.99990E+00 15537   0.491E+00    0.670E+00
RMM:   5    -0.700162637780E+03    0.93570E-01   -0.16287E+00 14582   0.193E+00    0.415E+00
RMM:   6    -0.700124373879E+03    0.38264E-01   -0.58591E-01 13566   0.119E+00    0.792E-01
RMM:   7    -0.700164203875E+03   -0.39830E-01   -0.32108E-01 14205   0.812E-01    0.141E+00
RMM:   8    -0.700149517295E+03    0.14687E-01   -0.12177E-01 14495   0.446E-01    0.474E-01
RMM:   9    -0.700154541189E+03   -0.50239E-02   -0.47434E-02 14935   0.237E-01    0.375E-01
RMM:  10    -0.700155542478E+03   -0.10013E-02   -0.18248E-02 15206   0.101E-01    0.280E-01
RMM:  11    -0.700155086196E+03    0.45628E-03   -0.64730E-03 12982   0.579E-02    0.246E-01
RMM:  12    -0.700154839724E+03    0.24647E-03   -0.19751E-03 13479   0.374E-02    0.155E-01
RMM:  13    -0.700154682514E+03    0.15721E-03   -0.14494E-03 13016   0.434E-02    0.490E-02
RMM:  14    -0.700154732190E+03   -0.49676E-04   -0.35974E-04 11319   0.181E-02    0.691E-02
RMM:  15    -0.700154668458E+03    0.63731E-04   -0.18345E-04  9896   0.138E-02    0.835E-03
RMM:  16    -0.700154672959E+03   -0.45006E-05   -0.54220E-05  6829   0.778E-03
   2 F= -.70015467E+03 E0= -.70014367E+03  d E =-.271230E+01
 trial-energy change:   -2.712304  1 .order   -4.453313  -13.795898    4.889272
 step:   0.6047(harm=  0.7383)  dis= 0.32584  next Energy=  -701.228586 (dE=-0.379E+01)
 bond charge predicted
       N       E                     dE             d eps       ncg     rms          rms(c)
DAV:   1    -0.699743590406E+03    0.41108E+00   -0.28689E+02 14112   0.230E+01    0.419E+00
RMM:   2    -0.700693275608E+03   -0.94969E+00   -0.10152E+01 13456   0.591E+00    0.150E+00
RMM:   3    -0.700984133957E+03   -0.29086E+00   -0.28523E+00 15496   0.232E+00    0.185E+00
RMM:   4    -0.700998656372E+03   -0.14522E-01   -0.40348E-01 15633   0.818E-01    0.118E+00
RMM:   5    -0.700998179057E+03    0.47731E-03   -0.56729E-02 15730   0.303E-01    0.773E-01
RMM:   6    -0.700994587534E+03    0.35915E-02   -0.29516E-02 13153   0.237E-01    0.446E-01
RMM:   7    -0.700994468893E+03    0.11864E-03   -0.86972E-03 15042   0.117E-01    0.387E-01
RMM:   8    -0.700993875976E+03    0.59292E-03   -0.20600E-03 13602   0.532E-02    0.182E-01
RMM:   9    -0.700993784286E+03    0.91690E-04   -0.13762E-03 13652   0.396E-02    0.289E-02
RMM:  10    -0.700993800854E+03   -0.16567E-04   -0.24873E-04 11658   0.198E-02    0.176E-02
RMM:  11    -0.700993807543E+03   -0.66899E-05   -0.96680E-05  9628   0.119E-02
   3 F= -.70099381E+03 E0= -.70098053E+03  d E =-.355144E+01
 curvature:  -0.27 expect dE=-0.457E+00 dE for cont linesearch -0.569E-02
 ZBRENT: interpolating
 opt :   0.6438  next Energy=  -701.004290 (dE=-0.356E+01)
 bond charge predicted
       N       E                     dE             d eps       ncg     rms          rms(c)
DAV:   1    -0.700994256751E+03   -0.45590E-03   -0.22758E+00 12400   0.176E+00    0.270E-01
RMM:   2    -0.701001963626E+03   -0.77069E-02   -0.83816E-02 13758   0.486E-01    0.212E-01
RMM:   3    -0.701004053232E+03   -0.20896E-02   -0.25325E-02 15348   0.203E-01    0.136E-01
RMM:   4    -0.701004212301E+03   -0.15907E-03   -0.34670E-03 15244   0.763E-02    0.887E-02
RMM:   5    -0.701004187869E+03    0.24431E-04   -0.70812E-04 13573   0.330E-02    0.485E-02
RMM:   6    -0.701004154701E+03    0.33168E-04   -0.19490E-04 11178   0.187E-02    0.170E-02
RMM:   7    -0.701004156437E+03   -0.17356E-05   -0.63560E-05  9458   0.112E-02
   4 F= -.70100416E+03 E0= -.70099103E+03  d E =-.356179E+01
 curvature:  -0.50 expect dE=-0.960E+00 dE for cont linesearch -0.123E-05
 trial: gam= 0.13887 g(F)=  0.191E+01 g(S)=  0.000E+00 ort =-0.582E-02 (trialstep = 0.929E+00)
 search vector abs. value=  0.217E+01
 bond charge predicted
       N       E                     dE             d eps       ncg     rms          rms(c)
DAV:   1    -0.700719148082E+03    0.28501E+00   -0.22962E+02 10622   0.218E+01    0.438E+00
RMM:   2    -0.701863085282E+03   -0.11439E+01   -0.12474E+01 13970   0.706E+00    0.119E+00
RMM:   3    -0.702117533962E+03   -0.25445E+00   -0.29525E+00 15399   0.264E+00    0.177E+00
RMM:   4    -0.702138937380E+03   -0.21403E-01   -0.40447E-01 15648   0.944E-01    0.154E+00
RMM:   5    -0.702117502907E+03    0.21434E-01   -0.67926E-02 15060   0.384E-01    0.590E-01
RMM:   6    -0.702113173425E+03    0.43295E-02   -0.59187E-02 12797   0.315E-01    0.576E-01
RMM:   7    -0.702111041047E+03    0.21324E-02   -0.10095E-02 15474   0.137E-01    0.341E-01
RMM:   8    -0.702110283934E+03    0.75711E-03   -0.50054E-03 13898   0.672E-02    0.711E-02
RMM:   9    -0.702110317129E+03   -0.33195E-04   -0.78809E-04 13320   0.349E-02    0.444E-02
RMM:  10    -0.702110338780E+03   -0.21651E-04   -0.38862E-04 11620   0.228E-02    0.221E-02
RMM:  11    -0.702110343501E+03   -0.47208E-05   -0.93501E-05 10018   0.128E-02
   5 F= -.70211034E+03 E0= -.70210132E+03  d E =-.110619E+01
 trial-energy change:   -1.106187  1 .order   -1.119637   -1.773139   -0.466136
 step:   1.2911(harm=  1.2600)  dis= 0.28508  next Energy=  -702.200472 (dE=-0.120E+01)
 bond charge predicted
       N       E                     dE             d eps       ncg     rms          rms(c)
DAV:   1    -0.702027950836E+03    0.82388E-01   -0.35118E+01 11248   0.854E+00    0.106E+00
RMM:   2    -0.702173010590E+03   -0.14506E+00   -0.15938E+00 13736   0.252E+00    0.442E-01
RMM:   3    -0.702203492821E+03   -0.30482E-01   -0.36890E-01 15347   0.934E-01    0.421E-01
RMM:   4    -0.702205535925E+03   -0.20431E-02   -0.47898E-02 15612   0.330E-01    0.335E-01
RMM:   5    -0.702202742774E+03    0.27932E-02   -0.11270E-02 14303   0.151E-01    0.114E-01
RMM:   6    -0.702202752291E+03   -0.95170E-05   -0.54721E-03 14438   0.905E-02    0.106E-01
RMM:   7    -0.702202622508E+03    0.12978E-03   -0.95656E-04 13619   0.388E-02    0.525E-02
RMM:   8    -0.702202612572E+03    0.99362E-05   -0.48325E-04 11583   0.236E-02    0.183E-02
RMM:   9    -0.702202613728E+03   -0.11566E-05   -0.97752E-05 10248   0.141E-02
   6 F= -.70220261E+03 E0= -.70219622E+03  d E =-.119846E+01
 curvature:  -0.71 expect dE=-0.122E+01 dE for cont linesearch -0.108E-04
 trial: gam= 0.97491 g(F)=  0.171E+01 g(S)=  0.000E+00 ort =-0.573E-02 (trialstep = 0.578E+00)
 search vector abs. value=  0.376E+01
 bond charge predicted
       N       E                     dE             d eps       ncg     rms          rms(c)
DAV:   1    -0.702421699015E+03   -0.21909E+00   -0.11406E+02 10260   0.143E+01    0.363E+00
RMM:   2    -0.702910010849E+03   -0.48831E+00   -0.55656E+00 13440   0.411E+00    0.992E-01
RMM:   3    -0.703019743095E+03   -0.10973E+00   -0.12544E+00 15497   0.156E+00    0.115E+00
RMM:   4    -0.703030774271E+03   -0.11031E-01   -0.17133E-01 15631   0.561E-01    0.102E+00
RMM:   5    -0.703026781417E+03    0.39929E-02   -0.35245E-02 15190   0.243E-01    0.482E-01
RMM:   6    -0.703026956612E+03   -0.17520E-03   -0.18898E-02 12791   0.168E-01    0.346E-01
RMM:   7    -0.703025745477E+03    0.12111E-02   -0.41943E-03 15301   0.788E-02    0.166E-01
RMM:   8    -0.703025640072E+03    0.10540E-03   -0.24527E-03 12777   0.408E-02    0.358E-02
RMM:   9    -0.703025652773E+03   -0.12701E-04   -0.36771E-04 10953   0.238E-02    0.362E-02
RMM:  10    -0.703025655069E+03   -0.22960E-05   -0.16760E-04 10221   0.135E-02    0.136E-02
RMM:  11    -0.703025658547E+03   -0.34777E-05   -0.45693E-05  8828   0.861E-03
   7 F= -.70302566E+03 E0= -.70302043E+03  d E =-.823045E+00
 trial-energy change:   -0.823045  1 .order   -0.817807   -0.985064   -0.650550
 step:   1.4845(harm=  1.7031)  dis= 0.50477  next Energy=  -703.555477 (dE=-0.135E+01)
 bond charge predicted
       N       E                     dE             d eps       ncg     rms          rms(c)
DAV:   1    -0.702036178133E+03    0.98948E+00   -0.28179E+02 10458   0.225E+01    0.997E+00
RMM:   2    -0.703329502571E+03   -0.12933E+01   -0.15216E+01 13603   0.677E+00    0.184E+00
RMM:   3    -0.703618660646E+03   -0.28916E+00   -0.33129E+00 15570   0.260E+00    0.252E+00
RMM:   4    -0.703636888730E+03   -0.18228E-01   -0.44208E-01 15588   0.932E-01    0.230E+00
RMM:   5    -0.703624380672E+03    0.12508E-01   -0.92183E-02 15487   0.399E-01    0.115E+00
RMM:   6    -0.703620233251E+03    0.41474E-02   -0.43806E-02 12904   0.257E-01    0.308E-01
RMM:   7    -0.703620249431E+03   -0.16180E-04   -0.10573E-02 15593   0.126E-01    0.245E-01
RMM:   8    -0.703620207557E+03    0.41874E-04   -0.38286E-03 13784   0.601E-02    0.490E-02
RMM:   9    -0.703620264332E+03   -0.56775E-04   -0.80837E-04 12681   0.339E-02    0.648E-02
RMM:  10    -0.703620266900E+03   -0.25675E-05   -0.44217E-04 11193   0.213E-02    0.246E-02
RMM:  11    -0.703620272854E+03   -0.59539E-05   -0.10723E-04  9784   0.121E-02    0.154E-02
RMM:  12    -0.703620274013E+03   -0.11592E-05   -0.38729E-05  8403   0.790E-03
   8 F= -.70362027E+03 E0= -.70360966E+03  d E =-.141766E+01
 curvature:  -1.81 expect dE=-0.341E+01 dE for cont linesearch -0.257E-01
 trial: gam= 0.84960 g(F)=  0.188E+01 g(S)=  0.000E+00 ort = 0.231E+00 (trialstep = 0.573E+00)
 search vector abs. value=  0.499E+01
 bond charge predicted
       N       E                     dE             d eps       ncg     rms          rms(c)
DAV:   1    -0.703892596357E+03   -0.27232E+00   -0.16398E+02 10290   0.171E+01    0.746E+00
RMM:   2    -0.704607668852E+03   -0.71507E+00   -0.88176E+00 13687   0.489E+00    0.190E+00
RMM:   3    -0.704734675906E+03   -0.12701E+00   -0.17281E+00 15455   0.183E+00    0.117E+00
RMM:   4    -0.704742511271E+03   -0.78354E-02   -0.23267E-01 15613   0.678E-01    0.678E-01
RMM:   5    -0.704741141121E+03    0.13702E-02   -0.60817E-02 15190   0.318E-01    0.192E-01
RMM:   6    -0.704742174127E+03   -0.10330E-02   -0.16517E-02 15444   0.155E-01    0.964E-02
RMM:   7    -0.704742568701E+03   -0.39457E-03   -0.51080E-03 15190   0.765E-02    0.403E-02
RMM:   8    -0.704742693463E+03   -0.12476E-03   -0.14633E-03 12229   0.401E-02    0.173E-02
RMM:   9    -0.704742733183E+03   -0.39720E-04   -0.47523E-04 10838   0.229E-02    0.816E-03
RMM:  10    -0.704742746125E+03   -0.12942E-04   -0.15576E-04 10078   0.134E-02    0.428E-03
RMM:  11    -0.704742750043E+03   -0.39175E-05   -0.52466E-05  9242   0.842E-03
   9 F= -.70474275E+03 E0= -.70473648E+03  d E =-.112248E+01
 ZBRENT: can't locate minimum, use default step
 trial-energy change:   -1.122476  1 .order   -1.050314   -1.189958   -0.910669
 step:   2.2918(harm=  2.4412)  dis= 0.80569  next Energy=  -706.155288 (dE=-0.254E+01)
 bond charge predicted
       N       E                     dE             d eps       ncg     rms          rms(c)
DAV:   1    -0.690274139443E+03    0.14469E+02   -0.14236E+03 10329   0.506E+01    0.564E+01
RMM:   2    -0.699997589167E+03   -0.97234E+01   -0.10782E+02 13020   0.159E+01    0.582E+00
RMM:   3    -0.700681241677E+03   -0.68365E+00   -0.14867E+01 15399   0.600E+00    0.786E+00
RMM:   4    -0.700617863815E+03    0.63378E-01   -0.25364E+00 13673   0.244E+00    0.307E+00
RMM:   5    -0.700651031083E+03   -0.33167E-01   -0.64235E-01 15791   0.115E+00    0.192E+00
RMM:   6    -0.700660619051E+03   -0.95880E-02   -0.14792E-01 15489   0.508E-01    0.393E-01
RMM:   7    -0.700664411463E+03   -0.37924E-02   -0.43876E-02 14502   0.262E-01    0.148E-01
RMM:   8    -0.700665619986E+03   -0.12085E-02   -0.14593E-02 15311   0.140E-01    0.584E-02
RMM:   9    -0.700666070317E+03   -0.45033E-03   -0.51607E-03 13648   0.623E-02    0.285E-02
RMM:  10    -0.700666236586E+03   -0.16627E-03   -0.18521E-03 12004   0.352E-02    0.152E-02
RMM:  11    -0.700666305510E+03   -0.68924E-04   -0.82985E-04 10641   0.215E-02    0.702E-03
RMM:  12    -0.700666344252E+03   -0.38743E-04   -0.37512E-04 10128   0.128E-02    0.463E-03
RMM:  13    -0.700666362168E+03   -0.17915E-04   -0.18792E-04  9094   0.847E-03    0.313E-03
RMM:  14    -0.700666372105E+03   -0.99369E-05   -0.97682E-05  7454   0.569E-03
  10 F= -.70066637E+03 E0= -.70066210E+03  d E =0.295390E+01
 curvature:  -2.91 expect dE=-0.913E+02 dE for cont linesearch -0.350E+02
 ZBRENT: interpolating
 opt :   0.8659  next Energy=  -704.975542 (dE=-0.136E+01)
 bond charge predicted
       N       E                     dE             d eps       ncg     rms          rms(c)
DAV:   1    -0.698518449372E+03    0.21479E+01   -0.10020E+03 10040   0.404E+01    0.162E+01
RMM:   2    -0.704339431529E+03   -0.58210E+01   -0.67658E+01 13500   0.134E+01    0.116E+01
RMM:   3    -0.705246662466E+03   -0.90723E+00   -0.10925E+01 15290   0.494E+00    0.127E+01
RMM:   4    -0.705131245882E+03    0.11542E+00   -0.14665E+00 13337   0.208E+00    0.475E+00
RMM:   5    -0.705186820118E+03   -0.55574E-01   -0.60368E-01 14949   0.106E+00    0.288E+00
RMM:   6    -0.705136342148E+03    0.50478E-01   -0.14403E-01 13357   0.571E-01    0.151E+00
RMM:   7    -0.705131503650E+03    0.48385E-02   -0.56198E-02 15002   0.294E-01    0.621E-01
RMM:   8    -0.705131248742E+03    0.25491E-03   -0.13452E-02 15397   0.150E-01    0.191E-01
RMM:   9    -0.705131541391E+03   -0.29265E-03   -0.40447E-03 15253   0.733E-02    0.427E-02
RMM:  10    -0.705131593121E+03   -0.51730E-04   -0.90834E-04 12384   0.358E-02    0.260E-02
RMM:  11    -0.705131609159E+03   -0.16038E-04   -0.32373E-04 10846   0.193E-02    0.553E-03
RMM:  12    -0.705131617636E+03   -0.84766E-05   -0.10507E-04  9653   0.107E-02    0.548E-03
RMM:  13    -0.705131620865E+03   -0.32291E-05   -0.41797E-05  8231   0.710E-03
  11 F= -.70513162E+03 E0= -.70512634E+03  d E =-.151135E+01
 curvature:  -0.02 expect dE=-0.227E-01 dE for cont linesearch -0.402E-02
 ZBRENT: interpolating
 opt :   1.3257  next Energy=  -705.392535 (dE=-0.177E+01)
 bond charge predicted
       N       E                     dE             d eps       ncg     rms          rms(c)
DAV:   1    -0.704668894754E+03    0.46272E+00   -0.10905E+02 10248   0.136E+01    0.731E+00
RMM:   2    -0.705136964647E+03   -0.46807E+00   -0.58149E+00 13544   0.378E+00    0.208E+00
RMM:   3    -0.705184581448E+03   -0.47617E-01   -0.10083E+00 15482   0.140E+00    0.826E-01
RMM:   4    -0.705187450296E+03   -0.28688E-02   -0.14940E-01 15561   0.526E-01    0.402E-01
RMM:   5    -0.705188469466E+03   -0.10192E-02   -0.34814E-02 15561   0.238E-01    0.123E-01
RMM:   6    -0.705189270082E+03   -0.80062E-03   -0.88196E-03 15308   0.116E-01    0.581E-02
RMM:   7    -0.705189486849E+03   -0.21677E-03   -0.24775E-03 14524   0.580E-02    0.190E-02
RMM:   8    -0.705189556850E+03   -0.70001E-04   -0.77087E-04 11895   0.306E-02    0.762E-03
RMM:   9    -0.705189579132E+03   -0.22283E-04   -0.25554E-04 10641   0.172E-02    0.370E-03
RMM:  10    -0.705189585848E+03   -0.67153E-05   -0.85933E-05  9891   0.105E-02
  12 F= -.70518959E+03 E0= -.70518787E+03  d E =-.156931E+01
 curvature:  -1.26 expect dE=-0.217E+01 dE for cont linesearch -0.276E+00
 ZBRENT: interpolating
 opt :   1.0926  next Energy=  -705.246895 (dE=-0.163E+01)
 bond charge predicted
       N       E                     dE             d eps       ncg     rms          rms(c)
DAV:   1    -0.705143528409E+03    0.46051E-01   -0.28174E+01 10366   0.680E+00    0.213E+00
RMM:   2    -0.705258583382E+03   -0.11505E+00   -0.14598E+00 13413   0.193E+00    0.113E+00
RMM:   3    -0.705273396223E+03   -0.14813E-01   -0.27831E-01 15482   0.716E-01    0.758E-01
RMM:   4    -0.705273977890E+03   -0.58167E-03   -0.38745E-02 15443   0.271E-01    0.502E-01
RMM:   5    -0.705274102605E+03   -0.12471E-03   -0.10148E-02 15149   0.131E-01    0.899E-02
RMM:   6    -0.705274176785E+03   -0.74180E-04   -0.22502E-03 15205   0.606E-02    0.847E-02
RMM:   7    -0.705274213006E+03   -0.36220E-04   -0.60204E-04 11856   0.292E-02    0.956E-03
RMM:   8    -0.705274226808E+03   -0.13802E-04   -0.18484E-04 10625   0.164E-02    0.116E-02
RMM:   9    -0.705274231439E+03   -0.46310E-05   -0.60810E-05  9543   0.966E-03
  13 F= -.70527423E+03 E0= -.70526882E+03  d E =-.165396E+01
 curvature:  -0.53 expect dE=-0.588E+00 dE for cont linesearch -0.504E-02
 trial: gam= 0.25793 g(F)=  0.112E+01 g(S)=  0.000E+00 ort = 0.219E+00 (trialstep = 0.677E+00)
 search vector abs. value=  0.156E+01
 bond charge predicted
       N       E                     dE             d eps       ncg     rms          rms(c)
DAV:   1    -0.705082725274E+03    0.19150E+00   -0.14035E+02 10704   0.174E+01    0.341E+00
RMM:   2    -0.705693911323E+03   -0.61119E+00   -0.64736E+00 13899   0.513E+00    0.111E+00
RMM:   3    -0.705803048204E+03   -0.10914E+00   -0.13018E+00 15448   0.185E+00    0.686E-01
RMM:   4    -0.705807102380E+03   -0.40542E-02   -0.14936E-01 15596   0.635E-01    0.287E-01
RMM:   5    -0.705807641255E+03   -0.53888E-03   -0.28361E-02 15479   0.267E-01    0.744E-02
RMM:   6    -0.705808158632E+03   -0.51738E-03   -0.62109E-03 15701   0.119E-01    0.502E-02
RMM:   7    -0.705808258809E+03   -0.10018E-03   -0.15600E-03 14448   0.577E-02    0.136E-02
RMM:   8    -0.705808301045E+03   -0.42236E-04   -0.50218E-04 13422   0.301E-02    0.663E-03
RMM:   9    -0.705808312930E+03   -0.11885E-04   -0.14125E-04 10475   0.147E-02    0.436E-03
RMM:  10    -0.705808316666E+03   -0.37370E-05   -0.48266E-05  9434   0.903E-03
  14 F= -.70580832E+03 E0= -.70580594E+03  d E =-.534085E+00
 trial-energy change:   -0.534085  1 .order   -0.517541   -0.793390   -0.241691
 step:   0.9154(harm=  0.9734)  dis= 0.06912  next Energy=  -705.851620 (dE=-0.577E+00)
 bond charge predicted
       N       E                     dE             d eps       ncg     rms          rms(c)
DAV:   1    -0.705773110833E+03    0.35202E-01   -0.17459E+01 11312   0.612E+00    0.122E+00
RMM:   2    -0.705840403187E+03   -0.67292E-01   -0.72889E-01 13538   0.174E+00    0.432E-01
RMM:   3    -0.705852892597E+03   -0.12489E-01   -0.15233E-01 15368   0.636E-01    0.266E-01
RMM:   4    -0.705853168047E+03   -0.27545E-03   -0.17042E-02 15467   0.219E-01    0.897E-02
RMM:   5    -0.705853302270E+03   -0.13422E-03   -0.32077E-03 15286   0.933E-02    0.286E-02
RMM:   6    -0.705853365174E+03   -0.62904E-04   -0.77714E-04 14857   0.422E-02    0.184E-02
RMM:   7    -0.705853374342E+03   -0.91679E-05   -0.17776E-04 11701   0.196E-02    0.446E-03
RMM:   8    -0.705853378663E+03   -0.43211E-05   -0.59182E-05  9915   0.113E-02
  15 F= -.70585338E+03 E0= -.70585045E+03  d E =-.579147E+00
 curvature:  -0.62 expect dE=-0.578E+00 dE for cont linesearch -0.371E-04
 trial: gam= 0.57125 g(F)=  0.927E+00 g(S)=  0.000E+00 ort = 0.964E-02 (trialstep = 0.725E+00)
 search vector abs. value=  0.145E+01
 bond charge predicted
       N       E                     dE             d eps       ncg     rms          rms(c)
DAV:   1    -0.705489068653E+03    0.36431E+00   -0.16711E+02 10424   0.185E+01    0.333E+00
RMM:   2    -0.706139741130E+03   -0.65067E+00   -0.70407E+00 13697   0.513E+00    0.126E+00
RMM:   3    -0.706237922062E+03   -0.98181E-01   -0.12926E+00 15298   0.188E+00    0.103E+00
RMM:   4    -0.706239324172E+03   -0.14021E-02   -0.14254E-01 15365   0.618E-01    0.602E-01
RMM:   5    -0.706237654330E+03    0.16698E-02   -0.35688E-02 14858   0.279E-01    0.111E-01
RMM:   6    -0.706238087760E+03   -0.43343E-03   -0.70741E-03 15497   0.125E-01    0.666E-02
RMM:   7    -0.706238250418E+03   -0.16266E-03   -0.20624E-03 15031   0.555E-02    0.317E-02
RMM:   8    -0.706238294694E+03   -0.44276E-04   -0.50371E-04 12509   0.286E-02    0.735E-03
RMM:   9    -0.706238311719E+03   -0.17025E-04   -0.18801E-04 10376   0.154E-02    0.505E-03
RMM:  10    -0.706238316218E+03   -0.44987E-05   -0.55591E-05  9298   0.100E-02
  16 F= -.70623832E+03 E0= -.70623441E+03  d E =-.384938E+00
 trial-energy change:   -0.384938  1 .order   -0.385813   -0.675729   -0.095898
 step:   0.8444(harm=  0.8444)  dis= 0.05645  next Energy=  -706.247122 (dE=-0.394E+00)
 bond charge predicted
       N       E                     dE             d eps       ncg     rms          rms(c)
DAV:   1    -0.706228076409E+03    0.10235E-01   -0.45779E+00 11520   0.309E+00    0.563E-01
RMM:   2    -0.706244179313E+03   -0.16103E-01   -0.17461E-01 13195   0.817E-01    0.199E-01
RMM:   3    -0.706246825556E+03   -0.26462E-02   -0.34732E-02 15241   0.308E-01    0.133E-01
RMM:   4    -0.706246822215E+03    0.33409E-05   -0.39534E-03 15160   0.104E-01    0.519E-02
RMM:   5    -0.706246841851E+03   -0.19636E-04   -0.86855E-04 14887   0.458E-02    0.166E-02
RMM:   6    -0.706246857833E+03   -0.15982E-04   -0.19222E-04 12433   0.206E-02    0.111E-02
RMM:   7    -0.706246862464E+03   -0.46304E-05   -0.57887E-05  9435   0.114E-02
  17 F= -.70624686E+03 E0= -.70624280E+03  d E =-.393484E+00
 curvature:  -0.66 expect dE=-0.236E+00 dE for cont linesearch -0.471E-05
 trial: gam= 0.35444 g(F)=  0.360E+00 g(S)=  0.000E+00 ort = 0.323E-02 (trialstep = 0.749E+00)
 search vector abs. value=  0.544E+00
 bond charge predicted
       N       E                     dE             d eps       ncg     rms          rms(c)
DAV:   1    -0.706121004967E+03    0.12585E+00   -0.69093E+01 10215   0.117E+01    0.245E+00
RMM:   2    -0.706384755644E+03   -0.26375E+00   -0.27994E+00 13320   0.313E+00    0.709E-01
RMM:   3    -0.706429603051E+03   -0.44847E-01   -0.54096E-01 15339   0.116E+00    0.472E-01
RMM:   4    -0.706430584119E+03   -0.98107E-03   -0.58230E-02 15309   0.390E-01    0.217E-01
RMM:   5    -0.706430724268E+03   -0.14015E-03   -0.13715E-02 15310   0.172E-01    0.661E-02
RMM:   6    -0.706430973359E+03   -0.24909E-03   -0.30394E-03 15508   0.765E-02    0.453E-02
RMM:   7    -0.706431046686E+03   -0.73326E-04   -0.86110E-04 13942   0.373E-02    0.182E-02
RMM:   8    -0.706431070400E+03   -0.23715E-04   -0.26408E-04 11013   0.198E-02    0.512E-03
RMM:   9    -0.706431077889E+03   -0.74892E-05   -0.88188E-05  9756   0.122E-02
  18 F= -.70643108E+03 E0= -.70642631E+03  d E =-.184215E+00
 trial-energy change:   -0.184215  1 .order   -0.178012   -0.270257   -0.085766
 step:   1.0214(harm=  1.0966)  dis= 0.04800  next Energy=  -706.447011 (dE=-0.200E+00)
 bond charge predicted
       N       E                     dE             d eps       ncg     rms          rms(c)
DAV:   1    -0.706407777791E+03    0.23293E-01   -0.92212E+00 10832   0.426E+00    0.933E-01
RMM:   2    -0.706442566115E+03   -0.34788E-01   -0.37035E-01 13265   0.112E+00    0.295E-01
RMM:   3    -0.706448223593E+03   -0.56575E-02   -0.70306E-02 15337   0.416E-01    0.172E-01
RMM:   4    -0.706448258005E+03   -0.34412E-04   -0.75306E-03 15071   0.141E-01    0.585E-02
RMM:   5    -0.706448358663E+03   -0.10066E-03   -0.17181E-03 15289   0.612E-02    0.260E-02
RMM:   6    -0.706448389618E+03   -0.30955E-04   -0.38093E-04 13164   0.275E-02    0.174E-02
RMM:   7    -0.706448398627E+03   -0.90091E-05   -0.11678E-04 10121   0.150E-02    0.296E-03
RMM:   8    -0.706448401208E+03   -0.25810E-05   -0.35971E-05  8995   0.863E-03
  19 F= -.70644840E+03 E0= -.70644351E+03  d E =-.201539E+00
 curvature:  -0.79 expect dE=-0.113E+00 dE for cont linesearch -0.564E-04
 trial: gam= 0.27613 g(F)=  0.143E+00 g(S)=  0.000E+00 ort = 0.624E-02 (trialstep = 0.803E+00)
 search vector abs. value=  0.188E+00
 bond charge predicted
       N       E                     dE             d eps       ncg     rms          rms(c)
DAV:   1    -0.706402001813E+03    0.46397E-01   -0.26977E+01 10480   0.774E+00    0.109E+00
RMM:   2    -0.706500493508E+03   -0.98492E-01   -0.10481E+00 13418   0.212E+00    0.337E-01
RMM:   3    -0.706518986365E+03   -0.18493E-01   -0.21610E-01 15255   0.790E-01    0.296E-01
RMM:   4    -0.706518987671E+03   -0.13068E-05   -0.23731E-02 15382   0.267E-01    0.123E-01
RMM:   5    -0.706518899837E+03    0.87835E-04   -0.54710E-03 15041   0.118E-01    0.427E-02
RMM:   6    -0.706518987260E+03   -0.87423E-04   -0.11942E-03 15209   0.520E-02    0.283E-02
RMM:   7    -0.706519004738E+03   -0.17478E-04   -0.33491E-04 12672   0.269E-02    0.122E-02
RMM:   8    -0.706519011034E+03   -0.62955E-05   -0.10864E-04 10529   0.149E-02    0.324E-03
RMM:   9    -0.706519013489E+03   -0.24555E-05   -0.34066E-05  8653   0.947E-03
  20 F= -.70651901E+03 E0= -.70651420E+03  d E =-.706123E-01
 trial-energy change:   -0.070612  1 .order   -0.069973   -0.116255   -0.023690
 step:   0.9986(harm=  1.0087)  dis= 0.02117  next Energy=  -706.521906 (dE=-0.735E-01)
 bond charge predicted
       N       E                     dE             d eps       ncg     rms          rms(c)
DAV:   1    -0.706515462864E+03    0.35482E-02   -0.16007E+00 11408   0.189E+00    0.264E-01
RMM:   2    -0.706521187145E+03   -0.57243E-02   -0.61086E-02 13383   0.506E-01    0.820E-02
RMM:   3    -0.706522213271E+03   -0.10261E-02   -0.12087E-02 15238   0.187E-01    0.723E-02
RMM:   4    -0.706522209061E+03    0.42099E-05   -0.13561E-03 15067   0.640E-02    0.293E-02
RMM:   5    -0.706522205106E+03    0.39545E-05   -0.32433E-04 13739   0.289E-02    0.101E-02
RMM:   6    -0.706522209636E+03   -0.45299E-05   -0.67204E-05  9999   0.133E-02
  21 F= -.70652221E+03 E0= -.70651746E+03  d E =-.738084E-01
 curvature:  -0.65 expect dE=-0.452E-01 dE for cont linesearch -0.299E-05
 trial: gam= 0.46149 g(F)=  0.693E-01 g(S)=  0.000E+00 ort = 0.927E-03 (trialstep = 0.842E+00)
 search vector abs. value=  0.110E+00
 bond charge predicted
       N       E                     dE             d eps       ncg     rms          rms(c)
DAV:   1    -0.706486423870E+03    0.35781E-01   -0.18144E+01 10552   0.618E+00    0.878E-01
RMM:   2    -0.706548243842E+03   -0.61820E-01   -0.65781E-01 13113   0.162E+00    0.270E-01
RMM:   3    -0.706560808744E+03   -0.12565E-01   -0.14050E-01 15204   0.621E-01    0.230E-01
RMM:   4    -0.706561210065E+03   -0.40132E-03   -0.14857E-02 15309   0.205E-01    0.108E-01
RMM:   5    -0.706561225773E+03   -0.15707E-04   -0.33792E-03 15005   0.891E-02    0.335E-02
RMM:   6    -0.706561284852E+03   -0.59080E-04   -0.75796E-04 14966   0.397E-02    0.211E-02
RMM:   7    -0.706561301911E+03   -0.17059E-04   -0.22053E-04 11675   0.198E-02    0.972E-03
RMM:   8    -0.706561306429E+03   -0.45172E-05   -0.63312E-05  9305   0.113E-02
  22 F= -.70656131E+03 E0= -.70655674E+03  d E =-.390968E-01
 trial-energy change:   -0.039097  1 .order   -0.038532   -0.058687   -0.018376
 step:   1.1855(harm=  1.2262)  dis= 0.02556  next Energy=  -706.565090 (dE=-0.429E-01)
 bond charge predicted
       N       E                     dE             d eps       ncg     rms          rms(c)
DAV:   1    -0.706553504873E+03    0.77970E-02   -0.30165E+00 11072   0.252E+00    0.359E-01
RMM:   2    -0.706563717766E+03   -0.10213E-01   -0.10859E-01 13153   0.657E-01    0.110E-01
RMM:   3    -0.706565754449E+03   -0.20367E-02   -0.22835E-02 15203   0.249E-01    0.926E-02
RMM:   4    -0.706565818296E+03   -0.63847E-04   -0.24243E-03 15134   0.826E-02    0.416E-02
RMM:   5    -0.706565825845E+03   -0.75489E-05   -0.55903E-04 14258   0.361E-02    0.137E-02
RMM:   6    -0.706565834867E+03   -0.90222E-05   -0.12278E-04 11268   0.166E-02    0.834E-03
RMM:   7    -0.706565837901E+03   -0.30336E-05   -0.38887E-05  8855   0.964E-03
  23 F= -.70656584E+03 E0= -.70656135E+03  d E =-.436283E-01
 curvature:  -0.96 expect dE=-0.360E-01 dE for cont linesearch -0.485E-04
 trial: gam= 0.51725 g(F)=  0.375E-01 g(S)=  0.000E+00 ort = 0.236E-02 (trialstep = 0.911E+00)
 search vector abs. value=  0.694E-01
 bond charge predicted
       N       E                     dE             d eps       ncg     rms          rms(c)
DAV:   1    -0.706536677158E+03    0.29158E-01   -0.12530E+01 10440   0.518E+00    0.620E-01
RMM:   2    -0.706579393355E+03   -0.42716E-01   -0.45436E-01 13206   0.136E+00    0.198E-01
RMM:   3    -0.706588243018E+03   -0.88497E-02   -0.97668E-02 15162   0.519E-01    0.208E-01
RMM:   4    -0.706588696952E+03   -0.45393E-03   -0.10551E-02 15412   0.173E-01    0.141E-01
RMM:   5    -0.706588464838E+03    0.23211E-03   -0.27314E-03 13993   0.810E-02    0.393E-02
RMM:   6    -0.706588506003E+03   -0.41164E-04   -0.62528E-04 14500   0.387E-02    0.296E-02
RMM:   7    -0.706588511890E+03   -0.58872E-05   -0.21107E-04 12135   0.195E-02    0.180E-02
RMM:   8    -0.706588512264E+03   -0.37421E-06   -0.55447E-05  9187   0.117E-02
  24 F= -.70658851E+03 E0= -.70658434E+03  d E =-.226744E-01
 trial-energy change:   -0.022674  1 .order   -0.022155   -0.035299   -0.009012
 step:   1.1816(harm=  1.2232)  dis= 0.01685  next Energy=  -706.589865 (dE=-0.240E-01)
 bond charge predicted
       N       E                     dE             d eps       ncg     rms          rms(c)
DAV:   1    -0.706585628462E+03    0.28834E-02   -0.11081E+00 11232   0.154E+00    0.183E-01
RMM:   2    -0.706589394335E+03   -0.37659E-02   -0.39962E-02 13171   0.402E-01    0.584E-02
RMM:   3    -0.706590171441E+03   -0.77711E-03   -0.85897E-03 15146   0.154E-01    0.627E-02
RMM:   4    -0.706590216538E+03   -0.45097E-04   -0.93320E-04 14912   0.513E-02    0.452E-02
RMM:   5    -0.706590194253E+03    0.22285E-04   -0.26420E-04 12708   0.256E-02    0.129E-02
RMM:   6    -0.706590197395E+03   -0.31417E-05   -0.53998E-05  9365   0.118E-02
  25 F= -.70659020E+03 E0= -.70658609E+03  d E =-.243595E-01
 curvature:  -1.08 expect dE=-0.243E-01 dE for cont linesearch -0.230E-04
 trial: gam= 0.62575 g(F)=  0.226E-01 g(S)=  0.000E+00 ort = 0.122E-02 (trialstep = 0.965E+00)
 search vector abs. value=  0.513E-01
 bond charge predicted
       N       E                     dE             d eps       ncg     rms          rms(c)
DAV:   1    -0.706563359334E+03    0.26835E-01   -0.99259E+00 10520   0.460E+00    0.562E-01
RMM:   2    -0.706596505526E+03   -0.33146E-01   -0.35236E-01 13176   0.120E+00    0.183E-01
RMM:   3    -0.706603581199E+03   -0.70757E-02   -0.77334E-02 15154   0.461E-01    0.183E-01
RMM:   4    -0.706603993323E+03   -0.41212E-03   -0.84923E-03 15367   0.152E-01    0.119E-01
RMM:   5    -0.706603895983E+03    0.97340E-04   -0.20747E-03 14105   0.698E-02    0.345E-02
RMM:   6    -0.706603930291E+03   -0.34308E-04   -0.48457E-04 14543   0.331E-02    0.237E-02
RMM:   7    -0.706603937904E+03   -0.76133E-05   -0.15186E-04 10981   0.165E-02    0.151E-02
RMM:   8    -0.706603938472E+03   -0.56813E-06   -0.40109E-05  8740   0.101E-02
  26 F= -.70660394E+03 E0= -.70659990E+03  d E =-.137411E-01
 trial-energy change:   -0.013741  1 .order   -0.013395   -0.022506   -0.004284
 step:   1.1645(harm=  1.1919)  dis= 0.01499  next Energy=  -706.604384 (dE=-0.142E-01)
 bond charge predicted
       N       E                     dE             d eps       ncg     rms          rms(c)
DAV:   1    -0.706602829388E+03    0.11085E-02   -0.42446E-01 11352   0.951E-01    0.117E-01
RMM:   2    -0.706604237854E+03   -0.14085E-02   -0.14962E-02 13162   0.247E-01    0.373E-02
RMM:   3    -0.706604537769E+03   -0.29992E-03   -0.32782E-03 15071   0.949E-02    0.381E-02
RMM:   4    -0.706604556801E+03   -0.19033E-04   -0.36475E-04 13823   0.320E-02    0.263E-02
RMM:   5    -0.706604552984E+03    0.38178E-05   -0.10510E-04 11019   0.174E-02    0.806E-03
RMM:   6    -0.706604554284E+03   -0.12999E-05   -0.23766E-05  7552   0.809E-03
  27 F= -.70660455E+03 E0= -.70660050E+03  d E =-.143569E-01
 curvature:  -1.29 expect dE=-0.147E-01 dE for cont linesearch -0.186E-04
 trial: gam= 0.48011 g(F)=  0.114E-01 g(S)=  0.000E+00 ort = 0.859E-03 (trialstep = 0.100E+01)
 search vector abs. value=  0.240E-01
 bond charge predicted
       N       E                     dE             d eps       ncg     rms          rms(c)
DAV:   1    -0.706589985758E+03    0.14567E-01   -0.55935E+00 10415   0.337E+00    0.585E-01
RMM:   2    -0.706607969837E+03   -0.17984E-01   -0.19253E-01 12991   0.859E-01    0.166E-01
RMM:   3    -0.706611525431E+03   -0.35556E-02   -0.40715E-02 15133   0.329E-01    0.127E-01
RMM:   4    -0.706611610216E+03   -0.84784E-04   -0.41364E-03 15092   0.107E-01    0.579E-02
RMM:   5    -0.706611613434E+03   -0.32180E-05   -0.88457E-04 14680   0.457E-02    0.157E-02
RMM:   6    -0.706611629285E+03   -0.15851E-04   -0.19284E-04 12474   0.207E-02    0.110E-02
RMM:   7    -0.706611633348E+03   -0.40634E-05   -0.53785E-05  9389   0.108E-02
  28 F= -.70661163E+03 E0= -.70660748E+03  d E =-.707906E-02
 trial-energy change:   -0.007079  1 .order   -0.006821   -0.011848   -0.001793
 step:   1.1571(harm=  1.1841)  dis= 0.01170  next Energy=  -706.611770 (dE=-0.722E-02)
 bond charge predicted
       N       E                     dE             d eps       ncg     rms          rms(c)
DAV:   1    -0.706611357712E+03    0.27157E-03   -0.12857E-01 11264   0.511E-01    0.888E-02
RMM:   2    -0.706611772230E+03   -0.41452E-03   -0.44356E-03 13000   0.131E-01    0.251E-02
RMM:   3    -0.706611855453E+03   -0.83223E-04   -0.95813E-04 14786   0.503E-02    0.191E-02
RMM:   4    -0.706611858442E+03   -0.29888E-05   -0.10586E-04 11849   0.176E-02    0.891E-03
RMM:   5    -0.706611858787E+03   -0.34530E-06   -0.27040E-05  7886   0.100E-02
  29 F= -.70661186E+03 E0= -.70660769E+03  d E =-.730450E-02
 curvature:  -1.18 expect dE=-0.692E-02 dE for cont linesearch -0.158E-04
 trial: gam= 0.50326 g(F)=  0.587E-02 g(S)=  0.000E+00 ort = 0.567E-03 (trialstep = 0.104E+01)
 search vector abs. value=  0.125E-01
 bond charge predicted
       N       E                     dE             d eps       ncg     rms          rms(c)
DAV:   1    -0.706604064395E+03    0.77940E-02   -0.28695E+00 10710   0.251E+00    0.322E-01
RMM:   2    -0.706613289278E+03   -0.92249E-02   -0.97911E-02 12988   0.655E-01    0.105E-01
RMM:   3    -0.706615541863E+03   -0.22526E-02   -0.24216E-02 15164   0.261E-01    0.933E-02
RMM:   4    -0.706615694713E+03   -0.15285E-03   -0.26123E-03 15222   0.848E-02    0.615E-02
RMM:   5    -0.706615677045E+03    0.17668E-04   -0.62702E-04 13983   0.382E-02    0.206E-02
RMM:   6    -0.706615683160E+03   -0.61153E-05   -0.13226E-04 11635   0.175E-02    0.114E-02
RMM:   7    -0.706615686205E+03   -0.30448E-05   -0.44956E-05  9019   0.102E-02
  30 F= -.70661569E+03 E0= -.70661148E+03  d E =-.382742E-02
 trial-energy change:   -0.003827  1 .order   -0.003579   -0.006373   -0.000785
 step:   1.1477(harm=  1.1809)  dis= 0.00603  next Energy=  -706.615729 (dE=-0.387E-02)
 bond charge predicted
       N       E                     dE             d eps       ncg     rms          rms(c)
DAV:   1    -0.706615641967E+03    0.41193E-04   -0.33951E-02 11656   0.272E-01    0.340E-02
RMM:   2    -0.706615752901E+03   -0.11093E-03   -0.11693E-03 12959   0.713E-02    0.113E-02
RMM:   3    -0.706615778950E+03   -0.26048E-04   -0.28701E-04 13254   0.286E-02    0.103E-02
RMM:   4    -0.706615781297E+03   -0.23470E-05   -0.39842E-05  8281   0.130E-02
  31 F= -.70661578E+03 E0= -.70661156E+03  d E =-.392251E-02
 curvature:  -1.14 expect dE=-0.313E-02 dE for cont linesearch -0.562E-05
 trial: gam= 0.46239 g(F)=  0.275E-02 g(S)=  0.000E+00 ort = 0.249E-03 (trialstep = 0.106E+01)
 search vector abs. value=  0.566E-02
 bond charge predicted
       N       E                     dE             d eps       ncg     rms          rms(c)
DAV:   1    -0.706612082454E+03    0.36965E-02   -0.14434E+00 10798   0.180E+00    0.198E-01
RMM:   2    -0.706616682899E+03   -0.46004E-02   -0.48110E-02 12986   0.470E-01    0.618E-02
RMM:   3    -0.706617813137E+03   -0.11302E-02   -0.11860E-02 14973   0.187E-01    0.577E-02
RMM:   4    -0.706617893206E+03   -0.80069E-04   -0.13101E-03 15126   0.613E-02    0.367E-02
RMM:   5    -0.706617884367E+03    0.88392E-05   -0.30315E-04 12791   0.273E-02    0.150E-02
RMM:   6    -0.706617886786E+03   -0.24197E-05   -0.57484E-05  9537   0.127E-02
  32 F= -.70661789E+03 E0= -.70661365E+03  d E =-.210549E-02
 trial-energy change:   -0.002105  1 .order   -0.001887   -0.003031   -0.000743
 step:   1.2620(harm=  1.4014)  dis= 0.00343  next Energy=  -706.617960 (dE=-0.218E-02)
 bond charge predicted
       N       E                     dE             d eps       ncg     rms          rms(c)
DAV:   1    -0.706617805798E+03    0.78568E-04   -0.54631E-02 11616   0.352E-01    0.367E-02
RMM:   2    -0.706617994010E+03   -0.18821E-03   -0.19651E-03 13048   0.956E-02    0.120E-02
RMM:   3    -0.706618037938E+03   -0.43929E-04   -0.47937E-04 14106   0.379E-02    0.124E-02
RMM:   4    -0.706618041298E+03   -0.33593E-05   -0.61532E-05 10161   0.153E-02
  33 F= -.70661804E+03 E0= -.70661381E+03  d E =-.226000E-02
 curvature:  -1.16 expect dE=-0.195E-02 dE for cont linesearch -0.195E-04
 trial: gam= 0.56075 g(F)=  0.169E-02 g(S)=  0.000E+00 ort = 0.309E-03 (trialstep = 0.110E+01)
 search vector abs. value=  0.381E-02
 bond charge predicted
       N       E                     dE             d eps       ncg     rms          rms(c)
DAV:   1    -0.706615503555E+03    0.25344E-02   -0.10530E+00 10688   0.153E+00    0.186E-01
RMM:   2    -0.706618740425E+03   -0.32369E-02   -0.34045E-02 12895   0.392E-01    0.577E-02
RMM:   3    -0.706619540427E+03   -0.80000E-03   -0.84943E-03 15027   0.158E-01    0.511E-02
RMM:   4    -0.706619591844E+03   -0.51417E-04   -0.92460E-04 15009   0.514E-02    0.297E-02
RMM:   5    -0.706619589985E+03    0.18583E-05   -0.21572E-04 12440   0.229E-02    0.117E-02
RMM:   6    -0.706619591532E+03   -0.15465E-05   -0.41014E-05  9113   0.109E-02
  34 F= -.70661959E+03 E0= -.70661534E+03  d E =-.155023E-02
 trial-energy change:   -0.001550  1 .order   -0.001360   -0.002045   -0.000674
 step:   1.3638(harm=  1.6383)  dis= 0.00339  next Energy=  -706.619676 (dE=-0.163E-02)
 bond charge predicted
       N       E                     dE             d eps       ncg     rms          rms(c)
DAV:   1    -0.706619509961E+03    0.80024E-04   -0.62091E-02 11512   0.373E-01    0.423E-02
RMM:   2    -0.706619712305E+03   -0.20234E-03   -0.21254E-03 12934   0.982E-02    0.137E-02
RMM:   3    -0.706619759502E+03   -0.47197E-04   -0.52027E-04 14209   0.393E-02    0.137E-02
RMM:   4    -0.706619762671E+03   -0.31692E-05   -0.65089E-05 10337   0.154E-02
  35 F= -.70661976E+03 E0= -.70661550E+03  d E =-.172137E-02
 curvature:  -1.24 expect dE=-0.130E-02 dE for cont linesearch -0.332E-04
 ZBRENT: increasing intervall
 opt :   1.8941  next Energy=  -706.619776 (dE=-0.173E-02)
 bond charge predicted
       N       E                     dE             d eps       ncg     rms          rms(c)
DAV:   1    -0.706618947992E+03    0.81151E-03   -0.24521E-01 10822   0.740E-01    0.903E-02
RMM:   2    -0.706619699990E+03   -0.75200E-03   -0.79076E-03 12929   0.187E-01    0.278E-02
RMM:   3    -0.706619876880E+03   -0.17689E-03   -0.18860E-03 14926   0.746E-02    0.239E-02
RMM:   4    -0.706619888436E+03   -0.11555E-04   -0.21471E-04 12629   0.248E-02    0.132E-02
RMM:   5    -0.706619888789E+03   -0.35319E-06   -0.56803E-05  9800   0.143E-02
  36 F= -.70661989E+03 E0= -.70661562E+03  d E =-.184749E-02
 curvature:  -0.50 expect dE=-0.113E-02 dE for cont linesearch -0.292E-05
 trial: gam= 1.70019 g(F)=  0.229E-02 g(S)=  0.000E+00 ort =-0.150E-03 (trialstep = 0.375E+00)
 search vector abs. value=  0.128E-01
 bond charge predicted
       N       E                     dE             d eps       ncg     rms          rms(c)
DAV:   1    -0.706619075619E+03    0.81282E-03   -0.41194E-01 11216   0.957E-01    0.100E-01
RMM:   2    -0.706620239528E+03   -0.11639E-02   -0.12183E-02 12505   0.238E-01    0.326E-02
RMM:   3    -0.706620568796E+03   -0.32927E-03   -0.33792E-03 14863   0.998E-02    0.299E-02
RMM:   4    -0.706620595265E+03   -0.26469E-04   -0.38540E-04 13879   0.332E-02    0.200E-02
RMM:   5    -0.706620595590E+03   -0.32462E-06   -0.98056E-05 10702   0.172E-02
  37 F= -.70662060E+03 E0= -.70661631E+03  d E =-.706801E-03
 trial-energy change:   -0.000707  1 .order   -0.000632   -0.000761   -0.000504
 step:   0.5748(harm=  1.1081)  dis= 0.00249  next Energy=  -706.620741 (dE=-0.852E-03)
 bond charge predicted
       N       E                     dE             d eps       ncg     rms          rms(c)
DAV:   1    -0.706620417574E+03    0.17769E-03   -0.11775E-01 11478   0.512E-01    0.560E-02
RMM:   2    -0.706620759097E+03   -0.34152E-03   -0.35785E-03 12475   0.130E-01    0.179E-02
RMM:   3    -0.706620858900E+03   -0.99802E-04   -0.10323E-03 14750   0.550E-02    0.159E-02
RMM:   4    -0.706620867853E+03   -0.89538E-05   -0.12296E-04 12010   0.192E-02    0.111E-02
RMM:   5    -0.706620867992E+03   -0.13868E-06   -0.35133E-05  8354   0.118E-02
  38 F= -.70662087E+03 E0= -.70661658E+03  d E =-.979203E-03
 curvature:  -1.65 expect dE=-0.226E-02 dE for cont linesearch -0.156E-03
 ZBRENT: increasing intervall
 opt :   0.9748  next Energy=  -706.621211 (dE=-0.132E-02)
 bond charge predicted
       N       E                     dE             d eps       ncg     rms          rms(c)
DAV:   1    -0.706619455834E+03    0.14120E-02   -0.46890E-01 11128   0.102E+00    0.107E-01
RMM:   2    -0.706620781586E+03   -0.13258E-02   -0.13877E-02 12516   0.253E-01    0.347E-02
RMM:   3    -0.706621153467E+03   -0.37188E-03   -0.38202E-03 14859   0.106E-01    0.317E-02
RMM:   4    -0.706621183131E+03   -0.29664E-04   -0.43799E-04 14217   0.353E-02    0.210E-02
RMM:   5    -0.706621183397E+03   -0.26545E-06   -0.10634E-04 10699   0.174E-02    0.105E-02
RMM:   6    -0.706621183739E+03   -0.34238E-06   -0.24178E-05  7740   0.844E-03
  39 F= -.70662118E+03 E0= -.70661688E+03  d E =-.129495E-02
 curvature:  -3.62 expect dE=-0.464E-02 dE for cont linesearch -0.104E-04
 trial: gam= 0.05850 g(F)=  0.128E-02 g(S)=  0.000E+00 ort = 0.191E-03 (trialstep = 0.495E+00)
 search vector abs. value=  0.135E-02
 bond charge predicted
       N       E                     dE             d eps       ncg     rms          rms(c)
DAV:   1    -0.706621361434E+03   -0.17804E-03   -0.71142E-02 11112   0.412E-01    0.539E-02
RMM:   2    -0.706621627043E+03   -0.26561E-03   -0.28161E-03 13544   0.116E-01    0.173E-02
RMM:   3    -0.706621680949E+03   -0.53906E-04   -0.62295E-04 14610   0.434E-02    0.144E-02
RMM:   4    -0.706621682841E+03   -0.18916E-05   -0.80559E-05 11330   0.165E-02
  40 F= -.70662168E+03 E0= -.70661739E+03  d E =-.499101E-03
 trial-energy change:   -0.000499  1 .order   -0.000463   -0.000639   -0.000288
 step:   0.9013(harm=  0.9013)  dis= 0.00107  next Energy=  -706.621765 (dE=-0.582E-03)
 bond charge predicted
       N       E                     dE             d eps       ncg     rms          rms(c)
DAV:   1    -0.706621634027E+03    0.46922E-04   -0.48020E-02 11216   0.339E-01    0.441E-02
RMM:   2    -0.706621814451E+03   -0.18042E-03   -0.19145E-03 13568   0.953E-02    0.140E-02
RMM:   3    -0.706621849876E+03   -0.35425E-04   -0.41577E-04 14413   0.357E-02    0.118E-02
RMM:   4    -0.706621851217E+03   -0.13414E-05   -0.54751E-05  9938   0.142E-02
  41 F= -.70662185E+03 E0= -.70661756E+03  d E =-.667478E-03
 curvature:  -0.47 expect dE=-0.264E-03 dE for cont linesearch -0.165E-05
 trial: gam= 0.40206 g(F)=  0.562E-03 g(S)=  0.000E+00 ort = 0.688E-04 (trialstep = 0.576E+00)
 search vector abs. value=  0.835E-03
 bond charge predicted
       N       E                     dE             d eps       ncg     rms          rms(c)
DAV:   1    -0.706621886297E+03   -0.36421E-04   -0.61649E-02 10744   0.377E-01    0.378E-02
RMM:   2    -0.706622090530E+03   -0.20423E-03   -0.21517E-03 13053   0.103E-01    0.123E-02
RMM:   3    -0.706622143343E+03   -0.52813E-04   -0.57580E-04 14737   0.417E-02    0.130E-02
RMM:   4    -0.706622147189E+03   -0.38455E-05   -0.65330E-05 10589   0.151E-02
  42 F= -.70662215E+03 E0= -.70661785E+03  d E =-.295971E-03
 trial-energy change:   -0.000296  1 .order   -0.000264   -0.000340   -0.000189
 step:   1.2964(harm=  1.2964)  dis= 0.00132  next Energy=  -706.622234 (dE=-0.382E-03)
 bond charge predicted
       N       E                     dE             d eps       ncg     rms          rms(c)
DAV:   1    -0.706621958404E+03    0.18494E-03   -0.96176E-02 11048   0.469E-01    0.482E-02
RMM:   2    -0.706622265151E+03   -0.30675E-03   -0.32311E-03 13134   0.123E-01    0.155E-02
RMM:   3    -0.706622335496E+03   -0.70345E-04   -0.75985E-04 14746   0.482E-02    0.150E-02
RMM:   4    -0.706622340557E+03   -0.50615E-05   -0.95772E-05 11810   0.176E-02
  43 F= -.70662234E+03 E0= -.70661804E+03  d E =-.489340E-03
 curvature:  -0.92 expect dE=-0.268E-03 dE for cont linesearch -0.246E-05
 trial: gam= 0.52653 g(F)=  0.292E-03 g(S)=  0.000E+00 ort = 0.473E-04 (trialstep = 0.720E+00)
 search vector abs. value=  0.573E-03
 bond charge predicted
       N       E                     dE             d eps       ncg     rms          rms(c)
DAV:   1    -0.706622299186E+03    0.36310E-04   -0.65214E-02 11408   0.390E-01    0.384E-02
RMM:   2    -0.706622503998E+03   -0.20481E-03   -0.21393E-03 12891   0.106E-01    0.128E-02
RMM:   3    -0.706622561319E+03   -0.57321E-04   -0.60362E-04 14550   0.436E-02    0.114E-02
RMM:   4    -0.706622566909E+03   -0.55907E-05   -0.79947E-05 10842   0.165E-02
  44 F= -.70662257E+03 E0= -.70661827E+03  d E =-.226352E-03
 trial-energy change:   -0.000226  1 .order   -0.000176   -0.000228   -0.000124
 step:   0.9047(harm=  1.5771)  dis= 0.00058  next Energy=  -706.622584 (dE=-0.243E-03)
 bond charge predicted
       N       E                     dE             d eps       ncg     rms          rms(c)
DAV:   1    -0.706622592684E+03   -0.31365E-04   -0.42707E-03 12056   0.101E-01    0.109E-02
RMM:   2    -0.706622608668E+03   -0.15984E-04   -0.16781E-04 12594   0.294E-02    0.406E-03
RMM:   3    -0.706622612109E+03   -0.34412E-05   -0.44848E-05  8083   0.125E-02
  45 F= -.70662261E+03 E0= -.70661832E+03  d E =-.271552E-03
 curvature:  -0.55 expect dE=-0.608E-04 dE for cont linesearch -0.200E-04
 ZBRENT: increasing intervall
 opt :   1.2738  next Energy=  -706.622655 (dE=-0.315E-03)
 bond charge predicted
       N       E                     dE             d eps       ncg     rms          rms(c)
DAV:   1    -0.706622615591E+03   -0.69239E-05   -0.17401E-02 11448   0.202E-01    0.185E-02
RMM:   2    -0.706622671284E+03   -0.55693E-04   -0.58402E-04 12798   0.546E-02    0.697E-03
RMM:   3    -0.706622685657E+03   -0.14372E-04   -0.16072E-04 12454   0.229E-02    0.650E-03
RMM:   4    -0.706622687306E+03   -0.16488E-05   -0.29025E-05  6756   0.127E-02
  46 F= -.70662269E+03 E0= -.70661839E+03  d E =-.346749E-03
 curvature:  -1.19 expect dE=-0.184E-03 dE for cont linesearch -0.225E-04
 ZBRENT: increasing intervall
 opt :   2.0121  next Energy=  -706.622734 (dE=-0.394E-03)
 bond charge predicted
       N       E                     dE             d eps       ncg     rms          rms(c)
DAV:   1    -0.706622509506E+03    0.17615E-03   -0.69015E-02 11336   0.401E-01    0.381E-02
RMM:   2    -0.706622718081E+03   -0.20857E-03   -0.21721E-03 12912   0.104E-01    0.128E-02
RMM:   3    -0.706622771038E+03   -0.52957E-04   -0.55991E-04 14698   0.419E-02    0.118E-02
RMM:   4    -0.706622775720E+03   -0.46819E-05   -0.70943E-05 10727   0.152E-02
  47 F= -.70662278E+03 E0= -.70661848E+03  d E =-.435163E-03
 curvature:  -2.48 expect dE=-0.906E-03 dE for cont linesearch -0.880E-06
 trial: gam= 1.50841 g(F)=  0.365E-03 g(S)=  0.000E+00 ort =-0.143E-04 (trialstep = 0.345E+00)
 search vector abs. value=  0.163E-02
 bond charge predicted
       N       E                     dE             d eps       ncg     rms          rms(c)
DAV:   1    -0.706622764635E+03    0.64030E-05   -0.41645E-02 11526   0.313E-01    0.307E-02
RMM:   2    -0.706622886948E+03   -0.12231E-03   -0.12693E-03 12766   0.818E-02    0.105E-02
RMM:   3    -0.706622921497E+03   -0.34550E-04   -0.36058E-04 13883   0.342E-02    0.821E-03
RMM:   4    -0.706622925085E+03   -0.35877E-05   -0.50156E-05  8772   0.143E-02
  48 F= -.70662293E+03 E0= -.70661863E+03  d E =-.149365E-03
 trial-energy change:   -0.000149  1 .order   -0.000099   -0.000118   -0.000080
 step:   1.0762(harm=  1.0762)  dis= 0.00113  next Energy=  -706.622960 (dE=-0.185E-03)
 bond charge predicted
       N       E                     dE             d eps       ncg     rms          rms(c)
DAV:   1    -0.706622417134E+03    0.50436E-03   -0.18789E-01 11424   0.663E-01    0.627E-02
RMM:   2    -0.706622961091E+03   -0.54396E-03   -0.56399E-03 12813   0.170E-01    0.217E-02
RMM:   3    -0.706623112904E+03   -0.15181E-03   -0.15657E-03 14731   0.701E-02    0.185E-02
RMM:   4    -0.706623126892E+03   -0.13988E-04   -0.18931E-04 12780   0.240E-02    0.130E-02
RMM:   5    -0.706623126665E+03    0.22762E-06   -0.49542E-05  9531   0.140E-02
  49 F= -.70662313E+03 E0= -.70661883E+03  d E =-.350945E-03
 curvature:  -2.55 expect dE=-0.521E-03 dE for cont linesearch -0.199E-04
 ZBRENT: increasing intervall
 opt :   2.5387  next Energy=  -706.623115 (dE=-0.340E-03)
 bond charge predicted
       N       E                     dE             d eps       ncg     rms          rms(c)
DAV:   1    -0.706620302434E+03    0.28245E-02   -0.75239E-01 11351   0.133E+00    0.126E-01
RMM:   2    -0.706622487975E+03   -0.21855E-02   -0.22673E-02 12796   0.339E-01    0.432E-02
RMM:   3    -0.706623089612E+03   -0.60164E-03   -0.61842E-03 14773   0.140E-01    0.374E-02
RMM:   4    -0.706623146292E+03   -0.56680E-04   -0.76308E-04 15010   0.476E-02    0.268E-02
RMM:   5    -0.706623143427E+03    0.28647E-05   -0.16241E-04 12187   0.211E-02    0.107E-02
RMM:   6    -0.706623144984E+03   -0.15569E-05   -0.32609E-05  8560   0.989E-03
  50 F= -.70662314E+03 E0= -.70661883E+03  d E =-.369264E-03
 curvature:   1.45 expect dE= 0.141E-02 dE for cont linesearch  0.603E-04
 ZBRENT: bracketing found
 ZBRENT: interpolating
 opt :   1.5182  next Energy=  -706.623152 (dE=-0.376E-03)
 bond charge predicted
       N       E                     dE             d eps       ncg     rms          rms(c)
DAV:   1    -0.706621851006E+03    0.12924E-02   -0.36382E-01 11280   0.923E-01    0.882E-02
RMM:   2    -0.706622886108E+03   -0.10351E-02   -0.10747E-02 12827   0.231E-01    0.302E-02
RMM:   3    -0.706623159619E+03   -0.27351E-03   -0.28069E-03 14714   0.945E-02    0.253E-02
RMM:   4    -0.706623184390E+03   -0.24771E-04   -0.34563E-04 14250   0.323E-02    0.175E-02
RMM:   5    -0.706623183129E+03    0.12603E-05   -0.74530E-05 10334   0.155E-02
  51 F= -.70662318E+03 E0= -.70661888E+03  d E =-.407409E-03
 curvature:  -0.60 expect dE=-0.227E-03 dE for cont linesearch -0.982E-05
 ZBRENT: bisectioning
 opt :   2.0284  next Energy=  -706.623281 (dE=-0.506E-03)
 bond charge predicted
       N       E                     dE             d eps       ncg     rms          rms(c)
DAV:   1    -0.706622868455E+03    0.31594E-03   -0.90964E-02 11256   0.461E-01    0.408E-02
RMM:   2    -0.706623127576E+03   -0.25912E-03   -0.26923E-03 12891   0.114E-01    0.149E-02
RMM:   3    -0.706623189386E+03   -0.61809E-04   -0.65348E-04 14487   0.457E-02    0.137E-02
RMM:   4    -0.706623193759E+03   -0.43730E-05   -0.78871E-05 10918   0.160E-02
  52 F= -.70662319E+03 E0= -.70661888E+03  d E =-.418039E-03
 curvature:  -5.98 expect dE=-0.348E-02 dE for cont linesearch -0.979E-04
 ZBRENT: interpolating
 opt :   1.7736  next Energy=  -706.623215 (dE=-0.439E-03)
 bond charge predicted
       N       E                     dE             d eps       ncg     rms          rms(c)
DAV:   1    -0.706623105411E+03    0.83974E-04   -0.22914E-02 11512   0.233E-01    0.201E-02
RMM:   2    -0.706623180125E+03   -0.74713E-04   -0.77711E-04 13042   0.617E-02    0.763E-03
RMM:   3    -0.706623196764E+03   -0.16640E-04   -0.18310E-04 12799   0.246E-02    0.784E-03
RMM:   4    -0.706623197881E+03   -0.11170E-05   -0.27582E-05  6707   0.120E-02
  53 F= -.70662320E+03 E0= -.70661889E+03  d E =-.422161E-03
 curvature:  -1.27 expect dE=-0.592E-03 dE for cont linesearch -0.130E-04
 ZBRENT: interpolating
 opt :   1.8860  next Energy=  -706.623205 (dE=-0.429E-03)
 bond charge predicted
       N       E                     dE             d eps       ncg     rms          rms(c)
DAV:   1    -0.706623180603E+03    0.16161E-04   -0.44185E-03 11336   0.102E-01    0.922E-03
RMM:   2    -0.706623195579E+03   -0.14976E-04   -0.15570E-04 12172   0.268E-02    0.340E-03
RMM:   3    -0.706623197909E+03   -0.23299E-05   -0.33812E-05  6876   0.111E-02
  54 F= -.70662320E+03 E0= -.70661889E+03  d E =-.422189E-03
 curvature:  -0.71 expect dE=-0.358E-03 dE for cont linesearch -0.645E-05
 ZBRENT: interpolating
 opt :   1.8314  next Energy=  -706.623201 (dE=-0.426E-03)
 bond charge predicted
       N       E                     dE             d eps       ncg     rms          rms(c)
DAV:   1    -0.706623194259E+03    0.13199E-05   -0.10088E-03 11010   0.491E-02    0.598E-03
RMM:   2    -0.706623198089E+03   -0.38300E-05   -0.39993E-05  7837   0.132E-02
  55 F= -.70662320E+03 E0= -.70661889E+03  d E =-.422369E-03
 curvature:  -0.37 expect dE=-0.178E-03 dE for cont linesearch -0.702E-05
 ZBRENT: interpolating
 opt :   1.8638  next Energy=  -706.623199 (dE=-0.424E-03)
 bond charge predicted
       N       E                     dE             d eps       ncg     rms          rms(c)
DAV:   1    -0.706623197162E+03   -0.29030E-05   -0.32628E-04 10560   0.280E-02    0.331E-03
RMM:   2    -0.706623198447E+03   -0.12851E-05   -0.14495E-05  5590   0.914E-03
  56 F= -.70662320E+03 E0= -.70661889E+03  d E =-.422728E-03
 curvature:  -0.07 expect dE=-0.346E-04 dE for cont linesearch -0.624E-06
 ZBRENT: bisectioning
 opt :   1.8476  next Energy=  -706.623200 (dE=-0.425E-03)
 bond charge predicted
       N       E                     dE             d eps       ncg     rms          rms(c)
DAV:   1    -0.706623197871E+03   -0.70859E-06   -0.73812E-05 10752   0.164E-02    0.167E-03
RMM:   2    -0.706623198754E+03   -0.88359E-06   -0.10060E-05  5141   0.731E-03
  57 F= -.70662320E+03 E0= -.70661889E+03  d E =-.423035E-03
 curvature:  -0.22 expect dE=-0.109E-03 dE for cont linesearch -0.110E-05
 ZBRENT: interpolating
 opt :   1.8546  next Energy=  -706.623199 (dE=-0.423E-03)
 bond charge predicted
       N       E                     dE             d eps       ncg     rms          rms(c)
DAV:   1    -0.706623198294E+03   -0.42307E-06   -0.94531E-06  5784   0.928E-03    0.103E-03
RMM:   2    -0.706623198671E+03   -0.37729E-06   -0.40072E-06  5095   0.453E-03
  58 F= -.70662320E+03 E0= -.70661889E+03  d E =-.422951E-03
 curvature:  -0.06 expect dE=-0.310E-04 dE for cont linesearch -0.657E-06
 ZBRENT: interpolating
 opt :   1.8505  next Energy=  -706.623199 (dE=-0.423E-03)
 bond charge predicted
       N       E                     dE             d eps       ncg     rms          rms(c)
DAV:   1    -0.706623198666E+03   -0.37252E-06   -0.16831E-06  5350   0.576E-03    0.936E-04
RMM:   2    -0.706623198764E+03   -0.97949E-07   -0.12075E-06  4907   0.214E-03
  59 F= -.70662320E+03 E0= -.70661889E+03  d E =-.423045E-03
 curvature:  -0.01 expect dE=-0.587E-05 dE for cont linesearch -0.277E-07
 trial: gam= 1.32254 g(F)=  0.479E-03 g(S)=  0.000E+00 ort = 0.606E-04 (trialstep = 0.302E+00)
 search vector abs. value=  0.348E-02
 bond charge predicted
       N       E                     dE             d eps       ncg     rms          rms(c)
DAV:   1    -0.706623078024E+03    0.12064E-03   -0.67883E-02 11360   0.399E-01    0.364E-02
RMM:   2    -0.706623270565E+03   -0.19254E-03   -0.19917E-03 12737   0.100E-01    0.127E-02
RMM:   3    -0.706623322553E+03   -0.51988E-04   -0.53655E-04 14575   0.414E-02    0.109E-02
RMM:   4    -0.706623327161E+03   -0.46079E-05   -0.66952E-05 10151   0.149E-02
  60 F= -.70662333E+03 E0= -.70661902E+03  d E =-.128396E-03
 trial-energy change:   -0.000128  1 .order   -0.000117   -0.000169   -0.000064
 step:   0.4875(harm=  0.4875)  dis= 0.00074  next Energy=  -706.623335 (dE=-0.136E-03)
 bond charge predicted
       N       E                     dE             d eps       ncg     rms          rms(c)
DAV:   1    -0.706623299121E+03    0.23432E-04   -0.25829E-02 11600   0.247E-01    0.238E-02
RMM:   2    -0.706623372762E+03   -0.73641E-04   -0.76139E-04 12678   0.640E-02    0.835E-03
RMM:   3    -0.706623394552E+03   -0.21790E-04   -0.22608E-04 12689   0.273E-02    0.602E-03
RMM:   4    -0.706623397333E+03   -0.27816E-05   -0.39557E-05  7782   0.143E-02
  61 F= -.70662340E+03 E0= -.70661909E+03  d E =-.198569E-03
 curvature:  -1.52 expect dE=-0.473E-03 dE for cont linesearch -0.841E-05
 ZBRENT: increasing intervall
 opt :   0.8595  next Energy=  -706.623421 (dE=-0.223E-03)
 bond charge predicted
       N       E                     dE             d eps       ncg     rms          rms(c)
DAV:   1    -0.706623120888E+03    0.27366E-03   -0.10398E-01 11432   0.494E-01    0.452E-02
RMM:   2    -0.706623409623E+03   -0.28874E-03   -0.29842E-03 12719   0.123E-01    0.156E-02
RMM:   3    -0.706623490651E+03   -0.81028E-04   -0.82254E-04 14652   0.512E-02    0.130E-02
RMM:   4    -0.706623498261E+03   -0.76096E-05   -0.10476E-04 11718   0.178E-02    0.905E-03
RMM:   5    -0.706623497817E+03    0.44308E-06   -0.26710E-05  7694   0.108E-02
  62 F= -.70662350E+03 E0= -.70661920E+03  d E =-.299053E-03
 curvature:  -4.32 expect dE=-0.125E-02 dE for cont linesearch -0.310E-04
 ZBRENT: increasing intervall
 opt :   1.6035  next Energy=  -706.623630 (dE=-0.431E-03)
 bond charge predicted
       N       E                     dE             d eps       ncg     rms          rms(c)
DAV:   1    -0.706622031479E+03    0.14668E-02   -0.41553E-01 11400   0.988E-01    0.911E-02
RMM:   2    -0.706623207769E+03   -0.11763E-02   -0.12163E-02 12738   0.249E-01    0.314E-02
RMM:   3    -0.706623539284E+03   -0.33151E-03   -0.33681E-03 14790   0.103E-01    0.267E-02
RMM:   4    -0.706623571137E+03   -0.31853E-04   -0.41827E-04 14710   0.352E-02    0.192E-02
RMM:   5    -0.706623569758E+03    0.13788E-05   -0.88781E-05 10453   0.161E-02
  63 F= -.70662357E+03 E0= -.70661928E+03  d E =-.370993E-03
 curvature: -18.38 expect dE=-0.752E-02 dE for cont linesearch -0.147E-03
 ZBRENT: bracketing found
 ZBRENT: interpolating
 opt :   1.2217  next Energy=  -706.623526 (dE=-0.328E-03)
 bond charge predicted
       N       E                     dE             d eps       ncg     rms          rms(c)
DAV:   1    -0.706623167535E+03    0.40360E-03   -0.10880E-01 11264   0.506E-01    0.428E-02
RMM:   2    -0.706623472032E+03   -0.30450E-03   -0.31512E-03 12868   0.124E-01    0.159E-02
RMM:   3    -0.706623547099E+03   -0.75067E-04   -0.78239E-04 14480   0.499E-02    0.146E-02
RMM:   4    -0.706623552616E+03   -0.55163E-05   -0.94154E-05 11482   0.174E-02
  64 F= -.70662355E+03 E0= -.70661926E+03  d E =-.353851E-03
 curvature:  -3.59 expect dE=-0.116E-02 dE for cont linesearch -0.934E-04
 ZBRENT: interpolating
 opt :   1.4674  next Energy=  -706.623581 (dE=-0.382E-03)
 bond charge predicted
       N       E                     dE             d eps       ncg     rms          rms(c)
DAV:   1    -0.706623393834E+03    0.15327E-03   -0.45439E-02 11480   0.328E-01    0.277E-02
RMM:   2    -0.706623533778E+03   -0.13994E-03   -0.14500E-03 13004   0.847E-02    0.104E-02
RMM:   3    -0.706623567488E+03   -0.33710E-04   -0.35628E-04 13592   0.340E-02    0.102E-02
RMM:   4    -0.706623570044E+03   -0.25555E-05   -0.49680E-05  8332   0.148E-02
  65 F= -.70662357E+03 E0= -.70661928E+03  d E =-.371279E-03
 curvature:  -0.44 expect dE=-0.156E-03 dE for cont linesearch -0.376E-05
 ZBRENT: bisectioning
 opt :   1.3445  next Energy=  -706.623592 (dE=-0.393E-03)
 bond charge predicted
       N       E                     dE             d eps       ncg     rms          rms(c)
DAV:   1    -0.706623517499E+03    0.49989E-04   -0.11282E-02 11264   0.163E-01    0.144E-02
RMM:   2    -0.706623554709E+03   -0.37210E-04   -0.38436E-04 13156   0.427E-02    0.525E-03
RMM:   3    -0.706623562371E+03   -0.76622E-05   -0.87867E-05 11299   0.169E-02
  66 F= -.70662356E+03 E0= -.70661927E+03  d E =-.363607E-03
 curvature:  -2.51 expect dE=-0.856E-03 dE for cont linesearch -0.587E-04
 ZBRENT: interpolating
 opt :   1.4210  next Energy=  -706.623574 (dE=-0.375E-03)
 bond charge predicted
       N       E                     dE             d eps       ncg     rms          rms(c)
DAV:   1    -0.706623549459E+03    0.52495E-05   -0.42571E-03 11430   0.101E-01    0.110E-02
RMM:   2    -0.706623565082E+03   -0.15622E-04   -0.16164E-04 12248   0.267E-02    0.301E-03
RMM:   3    -0.706623567289E+03   -0.22078E-05   -0.30227E-05  6888   0.111E-02
  67 F= -.70662357E+03 E0= -.70661928E+03  d E =-.368525E-03
 curvature:  -0.17 expect dE=-0.597E-04 dE for cont linesearch -0.158E-05
 ZBRENT: bisectioning
 opt :   1.3827  next Energy=  -706.623574 (dE=-0.375E-03)
 bond charge predicted
       N       E                     dE             d eps       ncg     rms          rms(c)
DAV:   1    -0.706623561878E+03    0.32034E-05   -0.10296E-03 10864   0.497E-02    0.591E-03
RMM:   2    -0.706623565899E+03   -0.40206E-05   -0.41768E-05  8244   0.135E-02
  68 F= -.70662357E+03 E0= -.70661928E+03  d E =-.367135E-03
 curvature:  -0.75 expect dE=-0.267E-03 dE for cont linesearch -0.207E-04
 ZBRENT: interpolating
 opt :   1.4070  next Energy=  -706.623569 (dE=-0.370E-03)
 bond charge predicted
       N       E                     dE             d eps       ncg     rms          rms(c)
DAV:   1    -0.706623566102E+03   -0.42235E-05   -0.39461E-04 10622   0.302E-02    0.329E-03
RMM:   2    -0.706623567309E+03   -0.12069E-05   -0.12759E-05  5660   0.782E-03
  69 F= -.70662357E+03 E0= -.70661928E+03  d E =-.368544E-03
 curvature:  -0.05 expect dE=-0.152E-04 dE for cont linesearch -0.204E-06
 ZBRENT: bisectioning
 opt :   1.3949  next Energy=  -706.623569 (dE=-0.370E-03)
 bond charge predicted
       N       E                     dE             d eps       ncg     rms          rms(c)
DAV:   1    -0.706623566562E+03   -0.45981E-06   -0.94534E-05 11328   0.163E-02    0.188E-03
RMM:   2    -0.706623567131E+03   -0.56982E-06   -0.69967E-06  5139   0.620E-03
  70 F= -.70662357E+03 E0= -.70661928E+03  d E =-.368367E-03
 curvature:  -0.27 expect dE=-0.919E-04 dE for cont linesearch -0.158E-05
 ZBRENT: interpolating
 opt :   1.4013  next Energy=  -706.623568 (dE=-0.369E-03)
 bond charge predicted
       N       E                     dE             d eps       ncg     rms          rms(c)
DAV:   1    -0.706623566757E+03   -0.19543E-06   -0.21299E-05  6952   0.100E-02    0.105E-03
RMM:   2    -0.706623567303E+03   -0.54602E-06   -0.58484E-06  5089   0.585E-03
  71 F= -.70662357E+03 E0= -.70661928E+03  d E =-.368539E-03
 curvature:  -0.06 expect dE=-0.207E-04 dE for cont linesearch -0.358E-06
 ZBRENT: interpolating
 opt :   1.3981  next Energy=  -706.623567 (dE=-0.369E-03)
 bond charge predicted
       N       E                     dE             d eps       ncg     rms          rms(c)
DAV:   1    -0.706623567116E+03   -0.35859E-06   -0.27546E-06  5356   0.611E-03    0.955E-04
RMM:   2    -0.706623567228E+03   -0.11190E-06   -0.13833E-06  4788   0.252E-03
  72 F= -.70662357E+03 E0= -.70661928E+03  d E =-.368463E-03
 curvature:  -0.04 expect dE=-0.133E-04 dE for cont linesearch -0.376E-06
 ZBRENT: interpolating
 opt :   1.3999  next Energy=  -706.623567 (dE=-0.369E-03)
 bond charge predicted
       N       E                     dE             d eps       ncg     rms          rms(c)
DAV:   1    -0.706623567347E+03   -0.23172E-06   -0.44421E-07  5320   0.380E-03    0.611E-04
RMM:   2    -0.706623567378E+03   -0.31025E-07   -0.42249E-07  3724   0.137E-03
  73 F= -.70662357E+03 E0= -.70661928E+03  d E =-.368614E-03
 curvature:  -0.01 expect dE=-0.343E-05 dE for cont linesearch -0.101E-08
 trial: gam= 0.36844 g(F)=  0.329E-03 g(S)=  0.000E+00 ort =-0.184E-04 (trialstep = 0.521E+00)
 search vector abs. value=  0.788E-03
 bond charge predicted
       N       E                     dE             d eps       ncg     rms          rms(c)
DAV:   1    -0.706623536772E+03    0.30576E-04   -0.46849E-02 11077   0.331E-01    0.312E-02
RMM:   2    -0.706623681751E+03   -0.14498E-03   -0.15050E-03 12917   0.852E-02    0.106E-02
RMM:   3    -0.706623717531E+03   -0.35780E-04   -0.38419E-04 14294   0.346E-02    0.103E-02
RMM:   4    -0.706623720578E+03   -0.30478E-05   -0.47616E-05  8972   0.135E-02
  74 F= -.70662372E+03 E0= -.70661943E+03  d E =-.153200E-03
 trial-energy change:   -0.000153  1 .order   -0.000121   -0.000168   -0.000074
 step:   0.9315(harm=  0.9315)  dis= 0.00086  next Energy=  -706.623717 (dE=-0.150E-03)
 bond charge predicted
       N       E                     dE             d eps       ncg     rms          rms(c)
DAV:   1    -0.706623680566E+03    0.36965E-04   -0.28847E-02 11536   0.260E-01    0.259E-02
RMM:   2    -0.706623770189E+03   -0.89623E-04   -0.92956E-04 12915   0.688E-02    0.871E-03
RMM:   3    -0.706623793270E+03   -0.23080E-04   -0.24534E-04 13131   0.281E-02    0.715E-03
RMM:   4    -0.706623796091E+03   -0.28216E-05   -0.41647E-05  8218   0.144E-02
  75 F= -.70662380E+03 E0= -.70661951E+03  d E =-.228713E-03
 curvature:  -1.14 expect dE=-0.156E-03 dE for cont linesearch -0.289E-05
 ZBRENT: extrapolating
 opt :   1.1203  next Energy=  -706.623800 (dE=-0.233E-03)
 bond charge predicted
       N       E                     dE             d eps       ncg     rms          rms(c)
DAV:   1    -0.706623793728E+03   -0.45815E-06   -0.61651E-03 11768   0.120E-01    0.118E-02
RMM:   2    -0.706623813724E+03   -0.19996E-04   -0.20681E-04 12694   0.326E-02    0.403E-03
RMM:   3    -0.706623818465E+03   -0.47414E-05   -0.55562E-05  9401   0.136E-02
  76 F= -.70662382E+03 E0= -.70661953E+03  d E =-.251086E-03
 curvature:  -1.66 expect dE=-0.282E-03 dE for cont linesearch -0.735E-08
 trial: gam= 0.38072 g(F)=  0.169E-03 g(S)=  0.000E+00 ort = 0.187E-05 (trialstep = 0.641E+00)
 search vector abs. value=  0.285E-03
 bond charge predicted
       N       E                     dE             d eps       ncg     rms          rms(c)
DAV:   1    -0.706623815479E+03   -0.17552E-05   -0.25898E-02 11008   0.246E-01    0.240E-02
RMM:   2    -0.706623904265E+03   -0.88787E-04   -0.92726E-04 13084   0.683E-02    0.835E-03
RMM:   3    -0.706623926264E+03   -0.21999E-04   -0.24358E-04 13156   0.277E-02    0.829E-03
RMM:   4    -0.706623928417E+03   -0.21531E-05   -0.37895E-05  7751   0.138E-02
  77 F= -.70662393E+03 E0= -.70661964E+03  d E =-.109952E-03
 trial-energy change:   -0.000110  1 .order   -0.000081   -0.000109   -0.000052
 step:   1.2281(harm=  1.2281)  dis= 0.00074  next Energy=  -706.623923 (dE=-0.104E-03)
 bond charge predicted
       N       E                     dE             d eps       ncg     rms          rms(c)
DAV:   1    -0.706623895681E+03    0.30582E-04   -0.21674E-02 11296   0.225E-01    0.232E-02
RMM:   2    -0.706623966007E+03   -0.70326E-04   -0.73360E-04 13035   0.603E-02    0.743E-03
RMM:   3    -0.706623983362E+03   -0.17355E-04   -0.18803E-04 12908   0.242E-02    0.663E-03
RMM:   4    -0.706623984891E+03   -0.15285E-05   -0.27456E-05  6670   0.118E-02
  78 F= -.70662398E+03 E0= -.70661969E+03  d E =-.166426E-03
 curvature:  -1.03 expect dE=-0.105E-03 dE for cont linesearch -0.852E-06
 trial: gam= 0.68377 g(F)=  0.102E-03 g(S)=  0.000E+00 ort = 0.154E-04 (trialstep = 0.758E+00)
 search vector abs. value=  0.256E-03
 bond charge predicted
       N       E                     dE             d eps       ncg     rms          rms(c)
DAV:   1    -0.706623938238E+03    0.45124E-04   -0.32968E-02 11112   0.273E-01    0.290E-02
RMM:   2    -0.706624042450E+03   -0.10421E-03   -0.10967E-03 12802   0.722E-02    0.942E-03
RMM:   3    -0.706624067437E+03   -0.24987E-04   -0.27564E-04 13273   0.293E-02    0.886E-03
RMM:   4    -0.706624069554E+03   -0.21162E-05   -0.39751E-05  8048   0.136E-02
  79 F= -.70662407E+03 E0= -.70661977E+03  d E =-.846625E-04
 trial-energy change:   -0.000085  1 .order   -0.000055   -0.000085   -0.000024
 step:   1.0584(harm=  1.0584)  dis= 0.00061  next Energy=  -706.624045 (dE=-0.596E-04)
 reached required accuracy - stopping structural energy minimisation
Warning: ieee_invalid is signaling
Warning: ieee_divide_by_zero is signaling
Warning: ieee_underflow is signaling
Warning: ieee_inexact is signaling
FORTRAN STOP
Warning: ieee_invalid is signaling
Warning: ieee_divide_by_zero is signaling
Warning: ieee_underflow is signaling
Warning: ieee_inexact is signaling
FORTRAN STOP
Warning: ieee_invalid is signaling
Warning: ieee_divide_by_zero is signaling
Warning: ieee_underflow is signaling
Warning: ieee_inexact is signaling
FORTRAN STOP
Warning: ieee_invalid is signaling
Warning: ieee_divide_by_zero is signaling
Warning: ieee_underflow is signaling
Warning: ieee_inexact is signaling
FORTRAN STOP
