<?xml version="1.0" encoding="ISO-8859-1"?>
<modeling>
 <generator>
  <i name="program" type="string">vasp </i>
  <i name="version" type="string">6.4.2  </i>
  <i name="subversion" type="string">20Jul23 (build Nov 12 2023 22:16:35) complex                          parallel </i>
  <i name="platform" type="string">LinuxNV </i>
  <i name="date" type="string">2025 03 14 </i>
  <i name="time" type="string">20:02:51 </i>
 </generator>
 <incar>
  <i type="int" name="ISTART">     0</i>
  <i type="string" name="PREC">Normal</i>
  <i type="string" name="ALGO">Fast</i>
  <i type="int" name="ISPIN">     1</i>
  <i type="int" name="ICHARG">     2</i>
  <i type="int" name="IBRION">     2</i>
  <i name="EDIFF">      0.00001000</i>
  <i name="EDIFFG">     -0.00500000</i>
  <i type="int" name="NSW">   300</i>
  <i type="int" name="ISIF">     2</i>
  <i name="ENCUT">    450.00000000</i>
  <i type="string" name="LREAL">Auto</i>
  <i type="logical" name="LPLANE"> T  </i>
  <i type="int" name="ISMEAR">     0</i>
  <i name="SIGMA">      0.05000000</i>
  <i type="logical" name="LWAVE"> F  </i>
  <i type="logical" name="LCHARG"> F  </i>
 </incar>
 <primitive_cell>
  <structure name="primitive_cell" >
   <crystal>
    <varray name="basis" >
     <v>       0.00000000      12.28047342       0.00000000 </v>
     <v>       9.14270205       0.00000000       0.00000000 </v>
     <v>       0.00000000      -2.76826177     -11.30069772 </v>
    </varray>
    <i name="volume">   1268.80515525 </i>
    <varray name="rec_basis" >
     <v>       0.00000000       0.08143009      -0.01994742 </v>
     <v>       0.10937686      -0.00000000       0.00000000 </v>
     <v>       0.00000000       0.00000000      -0.08849011 </v>
    </varray>
   </crystal>
   <varray name="positions" >
    <v>       0.65883830       0.00000000       0.15736517 </v>
    <v>       0.65883830       0.00000000       0.65736517 </v>
    <v>       0.65883830       0.33333333       0.15736517 </v>
    <v>       0.65883830       0.33333333       0.65736517 </v>
    <v>       0.65883830       0.66666667       0.15736517 </v>
    <v>       0.65883830       0.66666667       0.65736517 </v>
    <v>       0.84116170       0.16666667       0.34263483 </v>
    <v>       0.84116170       0.16666667       0.84263483 </v>
    <v>       0.84116170       0.50000000       0.34263483 </v>
    <v>       0.84116170       0.50000000       0.84263483 </v>
    <v>       0.84116170       0.83333333       0.34263483 </v>
    <v>       0.84116170       0.83333333       0.84263483 </v>
    <v>       0.59047440       0.16666667       0.39739300 </v>
    <v>       0.59047440       0.16666667       0.89739300 </v>
    <v>       0.59047440       0.50000000       0.39739300 </v>
    <v>       0.59047440       0.50000000       0.89739300 </v>
    <v>       0.59047440       0.83333333       0.39739300 </v>
    <v>       0.59047440       0.83333333       0.89739300 </v>
    <v>       0.90952560       0.00000000       0.10260700 </v>
    <v>       0.90952560       0.00000000       0.60260700 </v>
    <v>       0.90952560       0.33333333       0.10260700 </v>
    <v>       0.90952560       0.33333333       0.60260700 </v>
    <v>       0.90952560       0.66666667       0.10260700 </v>
    <v>       0.90952560       0.66666667       0.60260700 </v>
    <v>       0.15883830       0.16666667       0.15736517 </v>
    <v>       0.15883830       0.16666667       0.65736517 </v>
    <v>       0.15883830       0.50000000       0.15736517 </v>
    <v>       0.15883830       0.50000000       0.65736517 </v>
    <v>       0.15883830       0.83333333       0.15736517 </v>
    <v>       0.15883830       0.83333333       0.65736517 </v>
    <v>       0.34116170       0.00000000       0.34263483 </v>
    <v>       0.34116170       0.00000000       0.84263483 </v>
    <v>       0.34116170       0.33333333       0.34263483 </v>
    <v>       0.34116170       0.33333333       0.84263483 </v>
    <v>       0.34116170       0.66666667       0.34263483 </v>
    <v>       0.34116170       0.66666667       0.84263483 </v>
    <v>       0.09047440       0.00000000       0.89739300 </v>
    <v>       0.09047440       0.33333333       0.39739300 </v>
    <v>       0.09047440       0.33333333       0.89739300 </v>
    <v>       0.09047440       0.66666667       0.39739300 </v>
    <v>       0.09047440       0.66666667       0.89739300 </v>
    <v>       0.40952560       0.16666667       0.10260700 </v>
    <v>       0.40952560       0.16666667       0.60260700 </v>
    <v>       0.40952560       0.50000000       0.10260700 </v>
    <v>       0.40952560       0.50000000       0.60260700 </v>
    <v>       0.40952560       0.83333333       0.10260700 </v>
    <v>       0.40952560       0.83333333       0.60260700 </v>
    <v>       0.99646913       0.16666667       0.12833205 </v>
    <v>       0.99646913       0.16666667       0.62833205 </v>
    <v>       0.99646913       0.50000000       0.12833205 </v>
    <v>       0.99646913       0.50000000       0.62833205 </v>
    <v>       0.99646913       0.83333333       0.12833205 </v>
    <v>       0.99646913       0.83333333       0.62833205 </v>
    <v>       0.50353087       0.00000000       0.37166795 </v>
    <v>       0.50353087       0.00000000       0.87166795 </v>
    <v>       0.50353087       0.33333333       0.37166795 </v>
    <v>       0.50353087       0.33333333       0.87166795 </v>
    <v>       0.50353087       0.66666667       0.37166795 </v>
    <v>       0.50353087       0.66666667       0.87166795 </v>
    <v>       0.67337106       0.16666667       0.28161508 </v>
    <v>       0.67337106       0.16666667       0.78161508 </v>
    <v>       0.67337106       0.50000000       0.28161508 </v>
    <v>       0.67337106       0.50000000       0.78161508 </v>
    <v>       0.67337106       0.83333333       0.28161508 </v>
    <v>       0.67337106       0.83333333       0.78161508 </v>
    <v>       0.82662894       0.00000000       0.21838492 </v>
    <v>       0.82662894       0.00000000       0.71838492 </v>
    <v>       0.82662894       0.33333333       0.21838492 </v>
    <v>       0.82662894       0.33333333       0.71838492 </v>
    <v>       0.82662894       0.66666667       0.21838492 </v>
    <v>       0.82662894       0.66666667       0.71838492 </v>
    <v>       0.83549502       0.00000000       0.44542296 </v>
    <v>       0.83549502       0.00000000       0.94542296 </v>
    <v>       0.83549502       0.33333333       0.44542296 </v>
    <v>       0.83549502       0.33333333       0.94542296 </v>
    <v>       0.83549502       0.66666667       0.44542296 </v>
    <v>       0.83549502       0.66666667       0.94542296 </v>
    <v>       0.66450498       0.16666667       0.05457704 </v>
    <v>       0.66450498       0.16666667       0.55457704 </v>
    <v>       0.66450498       0.50000000       0.05457704 </v>
    <v>       0.66450498       0.50000000       0.55457704 </v>
    <v>       0.66450498       0.83333333       0.05457704 </v>
    <v>       0.66450498       0.83333333       0.55457704 </v>
    <v>       0.49646913       0.00000000       0.12833205 </v>
    <v>       0.49646913       0.00000000       0.62833205 </v>
    <v>       0.49646913       0.33333333       0.12833205 </v>
    <v>       0.49646913       0.33333333       0.62833205 </v>
    <v>       0.49646913       0.66666667       0.12833205 </v>
    <v>       0.49646913       0.66666667       0.62833205 </v>
    <v>       0.00353087       0.16666667       0.37166795 </v>
    <v>       0.00353087       0.16666667       0.87166795 </v>
    <v>       0.00353087       0.50000000       0.37166795 </v>
    <v>       0.00353087       0.50000000       0.87166795 </v>
    <v>       0.00353087       0.83333333       0.37166795 </v>
    <v>       0.00353087       0.83333333       0.87166795 </v>
    <v>       0.17337106       0.00000000       0.28161508 </v>
    <v>       0.17337106       0.00000000       0.78161508 </v>
    <v>       0.17337106       0.33333333       0.28161508 </v>
    <v>       0.17337106       0.33333333       0.78161508 </v>
    <v>       0.17337106       0.66666667       0.28161508 </v>
    <v>       0.17337106       0.66666667       0.78161508 </v>
    <v>       0.32662894       0.16666667       0.21838492 </v>
    <v>       0.32662894       0.16666667       0.71838492 </v>
    <v>       0.32662894       0.50000000       0.21838492 </v>
    <v>       0.32662894       0.50000000       0.71838492 </v>
    <v>       0.32662894       0.83333333       0.21838492 </v>
    <v>       0.32662894       0.83333333       0.71838492 </v>
    <v>       0.33549502       0.16666667       0.44542296 </v>
    <v>       0.33549502       0.16666667       0.94542296 </v>
    <v>       0.33549502       0.50000000       0.44542296 </v>
    <v>       0.33549502       0.50000000       0.94542296 </v>
    <v>       0.33549502       0.83333333       0.44542296 </v>
    <v>       0.33549502       0.83333333       0.94542296 </v>
    <v>       0.16450498       0.00000000       0.05457704 </v>
    <v>       0.16450498       0.33333333       0.05457704 </v>
    <v>       0.16450498       0.33333333       0.55457704 </v>
    <v>       0.16450498       0.66666667       0.05457704 </v>
    <v>       0.16450498       0.66666667       0.55457704 </v>
    <v>       0.16450498       0.00000000       0.55457704 </v>
   </varray>
  </structure>
  <varray name="primitive_index" >
   <v type="int" >        1 </v>
   <v type="int" >        2 </v>
   <v type="int" >        3 </v>
   <v type="int" >        4 </v>
   <v type="int" >        5 </v>
   <v type="int" >        6 </v>
   <v type="int" >        7 </v>
   <v type="int" >        8 </v>
   <v type="int" >        9 </v>
   <v type="int" >       10 </v>
   <v type="int" >       11 </v>
   <v type="int" >       12 </v>
   <v type="int" >       13 </v>
   <v type="int" >       14 </v>
   <v type="int" >       15 </v>
   <v type="int" >       16 </v>
   <v type="int" >       17 </v>
   <v type="int" >       18 </v>
   <v type="int" >       19 </v>
   <v type="int" >       20 </v>
   <v type="int" >       21 </v>
   <v type="int" >       22 </v>
   <v type="int" >       23 </v>
   <v type="int" >       24 </v>
   <v type="int" >       25 </v>
   <v type="int" >       26 </v>
   <v type="int" >       27 </v>
   <v type="int" >       28 </v>
   <v type="int" >       29 </v>
   <v type="int" >       30 </v>
   <v type="int" >       31 </v>
   <v type="int" >       32 </v>
   <v type="int" >       33 </v>
   <v type="int" >       34 </v>
   <v type="int" >       35 </v>
   <v type="int" >       36 </v>
   <v type="int" >       37 </v>
   <v type="int" >       38 </v>
   <v type="int" >       39 </v>
   <v type="int" >       40 </v>
   <v type="int" >       41 </v>
   <v type="int" >       42 </v>
   <v type="int" >       43 </v>
   <v type="int" >       44 </v>
   <v type="int" >       45 </v>
   <v type="int" >       46 </v>
   <v type="int" >       47 </v>
   <v type="int" >       48 </v>
   <v type="int" >       49 </v>
   <v type="int" >       50 </v>
   <v type="int" >       51 </v>
   <v type="int" >       52 </v>
   <v type="int" >       53 </v>
   <v type="int" >       54 </v>
   <v type="int" >       55 </v>
   <v type="int" >       56 </v>
   <v type="int" >       57 </v>
   <v type="int" >       58 </v>
   <v type="int" >       59 </v>
   <v type="int" >       60 </v>
   <v type="int" >       61 </v>
   <v type="int" >       62 </v>
   <v type="int" >       63 </v>
   <v type="int" >       64 </v>
   <v type="int" >       65 </v>
   <v type="int" >       66 </v>
   <v type="int" >       67 </v>
   <v type="int" >       68 </v>
   <v type="int" >       69 </v>
   <v type="int" >       70 </v>
   <v type="int" >       71 </v>
   <v type="int" >       72 </v>
   <v type="int" >       73 </v>
   <v type="int" >       74 </v>
   <v type="int" >       75 </v>
   <v type="int" >       76 </v>
   <v type="int" >       77 </v>
   <v type="int" >       78 </v>
   <v type="int" >       79 </v>
   <v type="int" >       80 </v>
   <v type="int" >       81 </v>
   <v type="int" >       82 </v>
   <v type="int" >       83 </v>
   <v type="int" >       84 </v>
   <v type="int" >       85 </v>
   <v type="int" >       86 </v>
   <v type="int" >       87 </v>
   <v type="int" >       88 </v>
   <v type="int" >       89 </v>
   <v type="int" >       90 </v>
   <v type="int" >       91 </v>
   <v type="int" >       92 </v>
   <v type="int" >       93 </v>
   <v type="int" >       94 </v>
   <v type="int" >       95 </v>
   <v type="int" >       96 </v>
   <v type="int" >       97 </v>
   <v type="int" >       98 </v>
   <v type="int" >       99 </v>
   <v type="int" >      100 </v>
   <v type="int" >      101 </v>
   <v type="int" >      102 </v>
   <v type="int" >      103 </v>
   <v type="int" >      104 </v>
   <v type="int" >      105 </v>
   <v type="int" >      106 </v>
   <v type="int" >      107 </v>
   <v type="int" >      108 </v>
   <v type="int" >      109 </v>
   <v type="int" >      110 </v>
   <v type="int" >      111 </v>
   <v type="int" >      112 </v>
   <v type="int" >      113 </v>
   <v type="int" >      114 </v>
   <v type="int" >      115 </v>
   <v type="int" >      116 </v>
   <v type="int" >      117 </v>
   <v type="int" >      118 </v>
   <v type="int" >      119 </v>
  </varray>
 </primitive_cell>
 <kpoints>
  <generation param="Gamma">
   <v type="int" name="divisions">       2        2        2 </v>
   <v name="usershift">      0.00000000       0.00000000       0.00000000 </v>
   <v name="genvec1">      0.50000000       0.00000000       0.00000000 </v>
   <v name="genvec2">      0.00000000       0.50000000       0.00000000 </v>
   <v name="genvec3">      0.00000000       0.00000000       0.50000000 </v>
   <v name="shift">      0.00000000       0.00000000       0.00000000 </v>
  </generation>
  <varray name="kpointlist" >
   <v>       0.00000000       0.00000000       0.00000000 </v>
   <v>       0.50000000       0.00000000       0.00000000 </v>
   <v>       0.00000000       0.50000000       0.00000000 </v>
   <v>       0.50000000       0.50000000       0.00000000 </v>
   <v>       0.00000000       0.00000000       0.50000000 </v>
   <v>       0.50000000       0.00000000       0.50000000 </v>
   <v>       0.00000000       0.50000000       0.50000000 </v>
   <v>       0.50000000       0.50000000       0.50000000 </v>
  </varray>
  <varray name="weights" >
   <v>       0.12500000 </v>
   <v>       0.12500000 </v>
   <v>       0.12500000 </v>
   <v>       0.12500000 </v>
   <v>       0.12500000 </v>
   <v>       0.12500000 </v>
   <v>       0.12500000 </v>
   <v>       0.12500000 </v>
  </varray>
 </kpoints>
 <parameters>
  <separator name="general" >
   <i type="string" name="SYSTEM">unknown system</i>
   <i type="logical" name="LCOMPAT"> F  </i>
  </separator>
  <separator name="electronic" >
   <i type="string" name="PREC">normal</i>
   <i name="ENMAX">    450.00000000</i>
   <i name="ENAUG">    605.39200000</i>
   <i name="EDIFF">      0.00001000</i>
   <i type="int" name="IALGO">    68</i>
   <i type="int" name="IWAVPR">    11</i>
   <i type="int" name="NBANDS">   625</i>
   <i type="int" name="NBANDSLOW">    -1</i>
   <i type="int" name="NBANDSHIGH">    -1</i>
   <i name="NELECT">   1042.00000000</i>
   <i type="int" name="TURBO">     0</i>
   <i type="int" name="IRESTART">     0</i>
   <i type="int" name="NREBOOT">     0</i>
   <i type="int" name="NMIN">     0</i>
   <i name="EREF">      0.00000000</i>
   <separator name="electronic smearing" >
    <i type="int" name="ISMEAR">     0</i>
    <i name="SIGMA">      0.05000000</i>
    <i name="KSPACING">      0.50000000</i>
    <i type="logical" name="KGAMMA"> T  </i>
    <i type="logical" name="KBLOWUP"> T  </i>
   </separator>
   <separator name="electronic projectors" >
    <i type="logical" name="LREAL"> T  </i>
    <v name="ROPT">     -0.00050000     -0.00050000     -0.00050000</v>
    <i type="int" name="LMAXPAW">  -100</i>
    <i type="int" name="LMAXMIX">     2</i>
    <i type="logical" name="NLSPLINE"> F  </i>
   </separator>
   <separator name="electronic startup" >
    <i type="int" name="ISTART">     0</i>
    <i type="int" name="ICHARG">     2</i>
    <i type="int" name="INIWAV">     1</i>
   </separator>
   <separator name="electronic spin" >
    <i type="int" name="ISPIN">     1</i>
    <i type="logical" name="LNONCOLLINEAR"> F  </i>
    <v name="MAGMOM">      1.00000000      1.00000000      1.00000000      1.00000000      1.00000000      1.00000000      1.00000000      1.00000000      1.00000000      1.00000000      1.00000000      1.00000000      1.00000000      1.00000000      1.00000000      1.00000000      1.00000000      1.00000000      1.00000000      1.00000000
      1.00000000      1.00000000      1.00000000      1.00000000      1.00000000      1.00000000      1.00000000      1.00000000      1.00000000      1.00000000      1.00000000      1.00000000      1.00000000      1.00000000      1.00000000      1.00000000      1.00000000      1.00000000      1.00000000      1.00000000
      1.00000000      1.00000000      1.00000000      1.00000000      1.00000000      1.00000000      1.00000000      1.00000000      1.00000000      1.00000000      1.00000000      1.00000000      1.00000000      1.00000000      1.00000000      1.00000000      1.00000000      1.00000000      1.00000000      1.00000000
      1.00000000      1.00000000      1.00000000      1.00000000      1.00000000      1.00000000      1.00000000      1.00000000      1.00000000      1.00000000      1.00000000      1.00000000      1.00000000      1.00000000      1.00000000      1.00000000      1.00000000      1.00000000      1.00000000      1.00000000
      1.00000000      1.00000000      1.00000000      1.00000000      1.00000000      1.00000000      1.00000000      1.00000000      1.00000000      1.00000000      1.00000000      1.00000000      1.00000000      1.00000000      1.00000000      1.00000000      1.00000000      1.00000000      1.00000000      1.00000000
      1.00000000      1.00000000      1.00000000      1.00000000      1.00000000      1.00000000      1.00000000      1.00000000      1.00000000      1.00000000      1.00000000      1.00000000      1.00000000      1.00000000      1.00000000      1.00000000      1.00000000      1.00000000      1.00000000</v>
    <i name="NUPDOWN">     -1.00000000</i>
    <i type="logical" name="LSORBIT"> F  </i>
    <v name="SAXIS">      0.00000000      0.00000000      1.00000000</v>
    <i type="logical" name="LSPIRAL"> F  </i>
    <v name="QSPIRAL">      0.00000000      0.00000000      0.00000000</v>
    <i type="logical" name="LZEROZ"> F  </i>
   </separator>
   <separator name="electronic exchange-correlation" >
    <i type="logical" name="LASPH"> F  </i>
    <i type="logical" name="LMETAGGA"> F  </i>
   </separator>
   <separator name="electronic convergence" >
    <i type="int" name="NELM">    60</i>
    <i type="int" name="NELMDL">    -5</i>
    <i type="int" name="NELMIN">     2</i>
    <i name="ENINI">    450.00000000</i>
    <separator name="electronic convergence detail" >
     <i type="logical" name="LDIAG"> T  </i>
     <i type="logical" name="LSUBROT"> F  </i>
     <i name="WEIMIN">      0.00100000</i>
     <i name="EBREAK">      0.00000000</i>
     <i name="DEPER">      0.30000000</i>
     <i type="int" name="NRMM">     4</i>
     <i name="TIME">      0.40000000</i>
    </separator>
   </separator>
   <separator name="electronic mixer" >
    <i name="AMIX">      0.40000000</i>
    <i name="BMIX">      1.00000000</i>
    <i name="AMIN">      0.10000000</i>
    <i name="AMIX_MAG">      1.60000000</i>
    <i name="BMIX_MAG">      1.00000000</i>
    <separator name="electronic mixer details" >
     <i type="int" name="IMIX">     4</i>
     <i type="logical" name="MIXFIRST"> F  </i>
     <i type="int" name="MAXMIX">   -45</i>
     <i name="WC">    100.00000000</i>
     <i type="int" name="INIMIX">     1</i>
     <i type="int" name="MIXPRE">     1</i>
     <i type="int" name="MREMOVE">     5</i>
    </separator>
   </separator>
   <separator name="electronic dipolcorrection" >
    <i type="logical" name="LDIPOL"> F  </i>
    <i type="logical" name="LMONO"> F  </i>
    <i type="int" name="IDIPOL">     0</i>
    <i name="EPSILON">      1.00000000</i>
    <v name="DIPOL">   -100.00000000   -100.00000000   -100.00000000</v>
    <i name="EFIELD">      0.00000000</i>
   </separator>
  </separator>
  <separator name="grids" >
   <i type="int" name="NGX">    64</i>
   <i type="int" name="NGY">    48</i>
   <i type="int" name="NGZ">    60</i>
   <i type="int" name="NGXF">   128</i>
   <i type="int" name="NGYF">    96</i>
   <i type="int" name="NGZF">   120</i>
   <i type="logical" name="ADDGRID"> F  </i>
  </separator>
  <separator name="ionic" >
   <i type="int" name="NSW">   300</i>
   <i type="int" name="IBRION">     2</i>
   <i type="int" name="MDALGO">     0</i>
   <i type="int" name="ISIF">     2</i>
   <i name="PSTRESS">      0.00000000</i>
   <i name="EDIFFG">     -0.00500000</i>
   <i type="int" name="NFREE">     1</i>
   <i name="POTIM">      0.50000000</i>
   <i name="SMASS">     -3.00000000</i>
   <i name="SCALEE">      1.00000000</i>
  </separator>
  <separator name="ionic md" >
   <i name="TEBEG">      0.00010000</i>
   <i name="TEEND">      0.00010000</i>
   <i type="int" name="NBLOCK">     1</i>
   <i type="int" name="KBLOCK">   300</i>
   <i type="int" name="NPACO">   256</i>
   <i name="APACO">     10.00000000</i>
  </separator>
  <separator name="symmetry" >
   <i type="int" name="ISYM">     2</i>
   <i name="SYMPREC">      0.00001000</i>
  </separator>
  <separator name="dos" >
   <i type="int" name="LORBIT">     0</i>
   <v name="RWIGS">     -1.00000000     -1.00000000     -1.00000000</v>
   <i type="int" name="NEDOS">   301</i>
   <i name="EMIN">     10.00000000</i>
   <i name="EMAX">    -10.00000000</i>
   <i name="EFERMI">      0.00000000</i>
  </separator>
  <separator name="writing" >
   <i type="int" name="NWRITE">     2</i>
   <i type="logical" name="LWAVE"> F  </i>
   <i type="logical" name="LDOWNSAMPLE"> F  </i>
   <i type="logical" name="LCHARG"> F  </i>
   <i type="logical" name="LPARD"> F  </i>
   <i type="logical" name="LVTOT"> F  </i>
   <i type="logical" name="LVHAR"> F  </i>
   <i type="logical" name="LELF"> F  </i>
   <i type="logical" name="LOPTICS"> F  </i>
   <v name="STM">      0.00000000      0.00000000      0.00000000      0.00000000      0.00000000      0.00000000      0.00000000</v>
  </separator>
  <separator name="performance" >
   <i type="int" name="NPAR">     1</i>
   <i type="int" name="NSIM">     4</i>
   <i type="int" name="NBLK">    -1</i>
   <i type="logical" name="LPLANE"> T  </i>
   <i type="logical" name="LSCALAPACK"> T  </i>
   <i type="logical" name="LSCAAWARE"> F  </i>
   <i type="logical" name="LSCALU"> F  </i>
   <i type="logical" name="LASYNC"> F  </i>
   <i type="logical" name="LORBITALREAL"> F  </i>
  </separator>
  <separator name="miscellaneous" >
   <i type="int" name="IDIOT">     3</i>
   <i type="int" name="PHON_NSTRUCT">    -1</i>
   <i type="logical" name="LMUSIC"> F  </i>
   <v name="POMASS">     69.72300000     16.00000000     30.97400000</v>
   <v name="DARWINR">      0.00000000      0.00000000      0.00000000</v>
   <v name="DARWINV">      1.00000000      1.00000000      1.00000000</v>
   <i type="logical" name="LCORR"> T  </i>
  </separator>
  <i type="logical" name="GGA_COMPAT"> T  </i>
  <i type="logical" name="LBERRY"> F  </i>
  <i type="int" name="ICORELEVEL">     0</i>
  <i type="logical" name="LDAU"> F  </i>
  <i type="int" name="I_CONSTRAINED_M">     0</i>
  <separator name="electronic exchange-correlation" >
   <i type="string" name="GGA">--</i>
   <i type="int" name="VOSKOWN">     0</i>
   <i type="logical" name="LHFCALC"> F  </i>
   <i type="string" name="PRECFOCK"></i>
   <i type="logical" name="LSYMGRAD"> F  </i>
   <i type="logical" name="LHFONE"> F  </i>
   <i type="logical" name="LRHFCALC"> F  </i>
   <i type="logical" name="LTHOMAS"> F  </i>
   <i type="logical" name="LMODELHF"> F  </i>
   <i type="logical" name="LFOCKACE"> F  </i>
   <i name="ENCUT4O">     -1.00000000</i>
   <i type="int" name="EXXOEP">     0</i>
   <i type="int" name="FOURORBIT">     0</i>
   <i name="AEXX">      0.00000000</i>
   <i name="HFALPHA">      0.00000000</i>
   <i name="MCALPHA">      0.00000000</i>
   <i name="ALDAX">      1.00000000</i>
   <i name="AGGAX">      1.00000000</i>
   <i name="ALDAC">      1.00000000</i>
   <i name="AGGAC">      1.00000000</i>
   <i type="int" name="NKREDX">     1</i>
   <i type="int" name="NKREDY">     1</i>
   <i type="int" name="NKREDZ">     1</i>
   <i type="logical" name="SHIFTRED"> F  </i>
   <i type="logical" name="ODDONLY"> F  </i>
   <i type="logical" name="EVENONLY"> F  </i>
   <i type="int" name="LMAXFOCK">     0</i>
   <i type="int" name="NMAXFOCKAE">     0</i>
   <i type="logical" name="LFOCKAEDFT"> F  </i>
   <i name="HFSCREEN">      0.00000000</i>
   <i name="HFSCREENC">      0.00000000</i>
   <i type="int" name="NBANDSGWLOW">     0</i>
  </separator>
  <separator name="vdW DFT" >
   <i type="logical" name="LUSE_VDW"> F  </i>
   <i type="int" name="IVDW_NL">     1</i>
   <i type="logical" name="LSPIN_VDW"> F  </i>
   <i name="Zab_VDW">     -0.84910000</i>
   <i name="PARAM1">      0.12340000</i>
   <i name="PARAM2">      1.00000000</i>
   <i name="PARAM3">      0.00000000</i>
  </separator>
  <separator name="model GW" >
   <i type="int" name="MODEL_GW">     0</i>
   <i name="MODEL_EPS0">      6.39733692</i>
   <i name="MODEL_ALPHA">      1.00000000</i>
  </separator>
  <separator name="linear response parameters" >
   <i type="logical" name="LEPSILON"> F  </i>
   <i type="logical" name="LRPA"> F  </i>
   <i type="logical" name="LNABLA"> F  </i>
   <i type="logical" name="LVEL"> F  </i>
   <i name="CSHIFT">      0.10000000</i>
   <i name="OMEGAMAX">     -1.00000000</i>
   <i name="DEG_THRESHOLD">      0.00200000</i>
   <i name="RTIME">     -0.10000000</i>
   <i name="WPLASMAI">      0.00000000</i>
   <v name="DFIELD">      0.00000000      0.00000000      0.00000000</v>
   <v name="WPLASMA">      0.00000000      0.00000000      0.00000000      0.00000000      0.00000000      0.00000000      0.00000000      0.00000000      0.00000000</v>
  </separator>
  <separator name="orbital magnetization" >
   <i type="logical" name="NUCIND"> F  </i>
   <v name="MAGPOS">      0.00000000      0.00000000      0.00000000</v>
   <i type="logical" name="LNICSALL"> T  </i>
   <i type="logical" name="ORBITALMAG"> F  </i>
   <i type="logical" name="LMAGBLOCH"> F  </i>
   <i type="logical" name="LCHIMAG"> F  </i>
   <i type="logical" name="LGAUGE"> T  </i>
   <i type="int" name="MAGATOM">     0</i>
   <v name="MAGDIPOL">      0.00000000      0.00000000      0.00000000</v>
   <v name="AVECCONST">      0.00000000      0.00000000      0.00000000</v>
  </separator>
  <separator name="response functions" >
   <i type="logical" name="LALL_IN_ONE"> F  </i>
   <i type="int" name="IALL_IN_ONE">    -1</i>
   <i type="int" name="NBANDS_WAVE">    -1</i>
   <i type="logical" name="LFINITE_TEMPERATURE"> F  </i>
   <i type="logical" name="LADDER"> F  </i>
   <i type="logical" name="LRPAFORCE"> F  </i>
   <i type="logical" name="LFXC"> F  </i>
   <i type="logical" name="LHARTREE"> T  </i>
   <i type="int" name="IBSE">     0</i>
   <v type="int" name="KPOINT">    -1     0     0     0</v>
   <i type="logical" name="LTCTC"> F  </i>
   <i type="logical" name="LTCTE"> F  </i>
   <i type="logical" name="LTETE"> F  </i>
   <i type="logical" name="LTRIPLET"> F  </i>
   <i type="logical" name="LFXCEPS"> F  </i>
   <i type="logical" name="LFXHEG"> F  </i>
   <i type="int" name="NATURALO">     2</i>
   <i type="logical" name="LHOLEGF"> F  </i>
   <i type="logical" name="L2ORDER"> F  </i>
   <i type="logical" name="LDMP1"> F  </i>
   <i type="logical" name="LMP2LT"> F  </i>
   <i type="logical" name="LSMP2LT"> F  </i>
   <i type="logical" name="LGWLF"> F  </i>
   <i name="ENCUTGW">     -1.60000002</i>
   <i name="ENCUTGWSOFT">     -1.60000002</i>
   <i name="ENCUTLF">     -1.00000000</i>
   <i type="logical" name="LESF_SPLINES"> F  </i>
   <i type="int" name="LMAXMP2">    -1</i>
   <i name="SCISSOR">      0.00000000</i>
   <i type="int" name="NOMEGA">     0</i>
   <i type="int" name="NOMEGAR">     0</i>
   <i type="int" name="NBANDSGW">    -1</i>
   <i type="int" name="NBANDSO">    -1</i>
   <i type="int" name="NBANDSV">    -1</i>
   <i type="int" name="NELMGW">     1</i>
   <i type="int" name="NELMHF">     1</i>
   <i type="int" name="DIM">     3</i>
   <i type="int" name="IESPILON">     4</i>
   <i type="int" name="ANTIRES">     0</i>
   <i name="OMEGAMAX">    -30.00000000</i>
   <i name="OMEGAMIN">    -30.00000000</i>
   <i name="OMEGATL">   -200.00000000</i>
   <i type="int" name="OMEGAGRID">     0</i>
   <i name="CSHIFT">     -0.10000000</i>
   <i type="logical" name="LSELFENERGY"> F  </i>
   <i type="logical" name="LSPECTRAL"> F  </i>
   <i type="logical" name="LSPECTRALGW"> F  </i>
   <i type="logical" name="LSINGLES"> F  </i>
   <i type="logical" name="LFERMIGW"> F  </i>
   <i type="logical" name="ODDONLYGW"> F  </i>
   <i type="logical" name="EVENONLYGW"> F  </i>
   <i type="int" name="NKREDLFX">     1</i>
   <i type="int" name="NKREDLFY">     1</i>
   <i type="int" name="NKREDLFZ">     1</i>
   <i type="int" name="MAXMEM">  2800</i>
   <i type="int" name="TELESCOPE">     0</i>
   <i type="int" name="NTAUPAR">    -1</i>
   <i type="int" name="NOMEGAPAR">    -1</i>
   <i name="DAMP_NEWTON">      0.80000001</i>
   <i name="LAMBDA">      1.00000000</i>
  </separator>
  <separator name="External order field" >
   <i name="OFIELD_KAPPA">      0.00000000</i>
   <v name="OFIELD_K">      0.00000000      0.00000000      0.00000000</v>
   <i name="OFIELD_Q6_NEAR">      0.00000000</i>
   <i name="OFIELD_Q6_FAR">      0.00000000</i>
   <i name="OFIELD_A">      0.00000000</i>
  </separator>
  <separator name="optional k-points parameters" >
   <i type="int" name="KPOINTS_OPT_MODE">     1</i>
   <i type="logical" name="LKPOINTS_OPT"> F  </i>
  </separator>
 </parameters>
 <atominfo>
  <atoms>     119 </atoms>
  <types>       3 </types>
  <array name="atoms" >
   <dimension dim="1">ion</dimension>
   <field type="string">element</field>
   <field type="int">atomtype</field>
   <set>
    <rc><c>Ga</c><c>   1</c></rc>
    <rc><c>Ga</c><c>   1</c></rc>
    <rc><c>Ga</c><c>   1</c></rc>
    <rc><c>Ga</c><c>   1</c></rc>
    <rc><c>Ga</c><c>   1</c></rc>
    <rc><c>Ga</c><c>   1</c></rc>
    <rc><c>Ga</c><c>   1</c></rc>
    <rc><c>Ga</c><c>   1</c></rc>
    <rc><c>Ga</c><c>   1</c></rc>
    <rc><c>Ga</c><c>   1</c></rc>
    <rc><c>Ga</c><c>   1</c></rc>
    <rc><c>Ga</c><c>   1</c></rc>
    <rc><c>Ga</c><c>   1</c></rc>
    <rc><c>Ga</c><c>   1</c></rc>
    <rc><c>Ga</c><c>   1</c></rc>
    <rc><c>Ga</c><c>   1</c></rc>
    <rc><c>Ga</c><c>   1</c></rc>
    <rc><c>Ga</c><c>   1</c></rc>
    <rc><c>Ga</c><c>   1</c></rc>
    <rc><c>Ga</c><c>   1</c></rc>
    <rc><c>Ga</c><c>   1</c></rc>
    <rc><c>Ga</c><c>   1</c></rc>
    <rc><c>Ga</c><c>   1</c></rc>
    <rc><c>Ga</c><c>   1</c></rc>
    <rc><c>Ga</c><c>   1</c></rc>
    <rc><c>Ga</c><c>   1</c></rc>
    <rc><c>Ga</c><c>   1</c></rc>
    <rc><c>Ga</c><c>   1</c></rc>
    <rc><c>Ga</c><c>   1</c></rc>
    <rc><c>Ga</c><c>   1</c></rc>
    <rc><c>Ga</c><c>   1</c></rc>
    <rc><c>Ga</c><c>   1</c></rc>
    <rc><c>Ga</c><c>   1</c></rc>
    <rc><c>Ga</c><c>   1</c></rc>
    <rc><c>Ga</c><c>   1</c></rc>
    <rc><c>Ga</c><c>   1</c></rc>
    <rc><c>Ga</c><c>   1</c></rc>
    <rc><c>Ga</c><c>   1</c></rc>
    <rc><c>Ga</c><c>   1</c></rc>
    <rc><c>Ga</c><c>   1</c></rc>
    <rc><c>Ga</c><c>   1</c></rc>
    <rc><c>Ga</c><c>   1</c></rc>
    <rc><c>Ga</c><c>   1</c></rc>
    <rc><c>Ga</c><c>   1</c></rc>
    <rc><c>Ga</c><c>   1</c></rc>
    <rc><c>Ga</c><c>   1</c></rc>
    <rc><c>Ga</c><c>   1</c></rc>
    <rc><c>O </c><c>   2</c></rc>
    <rc><c>O </c><c>   2</c></rc>
    <rc><c>O </c><c>   2</c></rc>
    <rc><c>O </c><c>   2</c></rc>
    <rc><c>O </c><c>   2</c></rc>
    <rc><c>O </c><c>   2</c></rc>
    <rc><c>O </c><c>   2</c></rc>
    <rc><c>O </c><c>   2</c></rc>
    <rc><c>O </c><c>   2</c></rc>
    <rc><c>O </c><c>   2</c></rc>
    <rc><c>O </c><c>   2</c></rc>
    <rc><c>O </c><c>   2</c></rc>
    <rc><c>O </c><c>   2</c></rc>
    <rc><c>O </c><c>   2</c></rc>
    <rc><c>O </c><c>   2</c></rc>
    <rc><c>O </c><c>   2</c></rc>
    <rc><c>O </c><c>   2</c></rc>
    <rc><c>O </c><c>   2</c></rc>
    <rc><c>O </c><c>   2</c></rc>
    <rc><c>O </c><c>   2</c></rc>
    <rc><c>O </c><c>   2</c></rc>
    <rc><c>O </c><c>   2</c></rc>
    <rc><c>O </c><c>   2</c></rc>
    <rc><c>O </c><c>   2</c></rc>
    <rc><c>O </c><c>   2</c></rc>
    <rc><c>O </c><c>   2</c></rc>
    <rc><c>O </c><c>   2</c></rc>
    <rc><c>O </c><c>   2</c></rc>
    <rc><c>O </c><c>   2</c></rc>
    <rc><c>O </c><c>   2</c></rc>
    <rc><c>O </c><c>   2</c></rc>
    <rc><c>O </c><c>   2</c></rc>
    <rc><c>O </c><c>   2</c></rc>
    <rc><c>O </c><c>   2</c></rc>
    <rc><c>O </c><c>   2</c></rc>
    <rc><c>O </c><c>   2</c></rc>
    <rc><c>O </c><c>   2</c></rc>
    <rc><c>O </c><c>   2</c></rc>
    <rc><c>O </c><c>   2</c></rc>
    <rc><c>O </c><c>   2</c></rc>
    <rc><c>O </c><c>   2</c></rc>
    <rc><c>O </c><c>   2</c></rc>
    <rc><c>O </c><c>   2</c></rc>
    <rc><c>O </c><c>   2</c></rc>
    <rc><c>O </c><c>   2</c></rc>
    <rc><c>O </c><c>   2</c></rc>
    <rc><c>O </c><c>   2</c></rc>
    <rc><c>O </c><c>   2</c></rc>
    <rc><c>O </c><c>   2</c></rc>
    <rc><c>O </c><c>   2</c></rc>
    <rc><c>O </c><c>   2</c></rc>
    <rc><c>O </c><c>   2</c></rc>
    <rc><c>O </c><c>   2</c></rc>
    <rc><c>O </c><c>   2</c></rc>
    <rc><c>O </c><c>   2</c></rc>
    <rc><c>O </c><c>   2</c></rc>
    <rc><c>O </c><c>   2</c></rc>
    <rc><c>O </c><c>   2</c></rc>
    <rc><c>O </c><c>   2</c></rc>
    <rc><c>O </c><c>   2</c></rc>
    <rc><c>O </c><c>   2</c></rc>
    <rc><c>O </c><c>   2</c></rc>
    <rc><c>O </c><c>   2</c></rc>
    <rc><c>O </c><c>   2</c></rc>
    <rc><c>O </c><c>   2</c></rc>
    <rc><c>O </c><c>   2</c></rc>
    <rc><c>O </c><c>   2</c></rc>
    <rc><c>O </c><c>   2</c></rc>
    <rc><c>O </c><c>   2</c></rc>
    <rc><c>O </c><c>   2</c></rc>
    <rc><c>O </c><c>   2</c></rc>
    <rc><c>P </c><c>   3</c></rc>
   </set>
  </array>
  <array name="atomtypes" >
   <dimension dim="1">type</dimension>
   <field type="int">atomspertype</field>
   <field type="string">element</field>
   <field>mass</field>
   <field>valence</field>
   <field type="string">pseudopotential</field>
   <set>
    <rc><c>  47</c><c>Ga</c><c>     69.72300000</c><c>     13.00000000</c><c>  PAW_PBE Ga_d 06Jul2010                </c></rc>
    <rc><c>  71</c><c>O </c><c>     16.00000000</c><c>      6.00000000</c><c>   PAW_PBE O 08Apr2002                  </c></rc>
    <rc><c>   1</c><c>P </c><c>     30.97400000</c><c>      5.00000000</c><c>  PAW_PBE P 06Sep2000                   </c></rc>
   </set>
  </array>
 </atominfo>
 <structure name="initialpos" >
  <crystal>
   <varray name="basis" >
    <v>       0.00000000      12.28047342       0.00000000 </v>
    <v>       9.14270205       0.00000000       0.00000000 </v>
    <v>       0.00000000      -2.76826177     -11.30069772 </v>
   </varray>
   <i name="volume">   1268.80515525 </i>
   <varray name="rec_basis" >
    <v>       0.00000000       0.08143009      -0.01994742 </v>
    <v>       0.10937686      -0.00000000       0.00000000 </v>
    <v>       0.00000000       0.00000000      -0.08849011 </v>
   </varray>
  </crystal>
  <varray name="positions" >
   <v>       0.65883830       0.00000000       0.15736517 </v>
   <v>       0.65883830       0.00000000       0.65736517 </v>
   <v>       0.65883830       0.33333333       0.15736517 </v>
   <v>       0.65883830       0.33333333       0.65736517 </v>
   <v>       0.65883830       0.66666667       0.15736517 </v>
   <v>       0.65883830       0.66666667       0.65736517 </v>
   <v>       0.84116170       0.16666667       0.34263483 </v>
   <v>       0.84116170       0.16666667       0.84263483 </v>
   <v>       0.84116170       0.50000000       0.34263483 </v>
   <v>       0.84116170       0.50000000       0.84263483 </v>
   <v>       0.84116170       0.83333333       0.34263483 </v>
   <v>       0.84116170       0.83333333       0.84263483 </v>
   <v>       0.59047440       0.16666667       0.39739300 </v>
   <v>       0.59047440       0.16666667       0.89739300 </v>
   <v>       0.59047440       0.50000000       0.39739300 </v>
   <v>       0.59047440       0.50000000       0.89739300 </v>
   <v>       0.59047440       0.83333333       0.39739300 </v>
   <v>       0.59047440       0.83333333       0.89739300 </v>
   <v>       0.90952560       0.00000000       0.10260700 </v>
   <v>       0.90952560       0.00000000       0.60260700 </v>
   <v>       0.90952560       0.33333333       0.10260700 </v>
   <v>       0.90952560       0.33333333       0.60260700 </v>
   <v>       0.90952560       0.66666667       0.10260700 </v>
   <v>       0.90952560       0.66666667       0.60260700 </v>
   <v>       0.15883830       0.16666667       0.15736517 </v>
   <v>       0.15883830       0.16666667       0.65736517 </v>
   <v>       0.15883830       0.50000000       0.15736517 </v>
   <v>       0.15883830       0.50000000       0.65736517 </v>
   <v>       0.15883830       0.83333333       0.15736517 </v>
   <v>       0.15883830       0.83333333       0.65736517 </v>
   <v>       0.34116170       0.00000000       0.34263483 </v>
   <v>       0.34116170       0.00000000       0.84263483 </v>
   <v>       0.34116170       0.33333333       0.34263483 </v>
   <v>       0.34116170       0.33333333       0.84263483 </v>
   <v>       0.34116170       0.66666667       0.34263483 </v>
   <v>       0.34116170       0.66666667       0.84263483 </v>
   <v>       0.09047440       0.00000000       0.89739300 </v>
   <v>       0.09047440       0.33333333       0.39739300 </v>
   <v>       0.09047440       0.33333333       0.89739300 </v>
   <v>       0.09047440       0.66666667       0.39739300 </v>
   <v>       0.09047440       0.66666667       0.89739300 </v>
   <v>       0.40952560       0.16666667       0.10260700 </v>
   <v>       0.40952560       0.16666667       0.60260700 </v>
   <v>       0.40952560       0.50000000       0.10260700 </v>
   <v>       0.40952560       0.50000000       0.60260700 </v>
   <v>       0.40952560       0.83333333       0.10260700 </v>
   <v>       0.40952560       0.83333333       0.60260700 </v>
   <v>       0.99646913       0.16666667       0.12833205 </v>
   <v>       0.99646913       0.16666667       0.62833205 </v>
   <v>       0.99646913       0.50000000       0.12833205 </v>
   <v>       0.99646913       0.50000000       0.62833205 </v>
   <v>       0.99646913       0.83333333       0.12833205 </v>
   <v>       0.99646913       0.83333333       0.62833205 </v>
   <v>       0.50353087       0.00000000       0.37166795 </v>
   <v>       0.50353087       0.00000000       0.87166795 </v>
   <v>       0.50353087       0.33333333       0.37166795 </v>
   <v>       0.50353087       0.33333333       0.87166795 </v>
   <v>       0.50353087       0.66666667       0.37166795 </v>
   <v>       0.50353087       0.66666667       0.87166795 </v>
   <v>       0.67337106       0.16666667       0.28161508 </v>
   <v>       0.67337106       0.16666667       0.78161508 </v>
   <v>       0.67337106       0.50000000       0.28161508 </v>
   <v>       0.67337106       0.50000000       0.78161508 </v>
   <v>       0.67337106       0.83333333       0.28161508 </v>
   <v>       0.67337106       0.83333333       0.78161508 </v>
   <v>       0.82662894       0.00000000       0.21838492 </v>
   <v>       0.82662894       0.00000000       0.71838492 </v>
   <v>       0.82662894       0.33333333       0.21838492 </v>
   <v>       0.82662894       0.33333333       0.71838492 </v>
   <v>       0.82662894       0.66666667       0.21838492 </v>
   <v>       0.82662894       0.66666667       0.71838492 </v>
   <v>       0.83549502       0.00000000       0.44542296 </v>
   <v>       0.83549502       0.00000000       0.94542296 </v>
   <v>       0.83549502       0.33333333       0.44542296 </v>
   <v>       0.83549502       0.33333333       0.94542296 </v>
   <v>       0.83549502       0.66666667       0.44542296 </v>
   <v>       0.83549502       0.66666667       0.94542296 </v>
   <v>       0.66450498       0.16666667       0.05457704 </v>
   <v>       0.66450498       0.16666667       0.55457704 </v>
   <v>       0.66450498       0.50000000       0.05457704 </v>
   <v>       0.66450498       0.50000000       0.55457704 </v>
   <v>       0.66450498       0.83333333       0.05457704 </v>
   <v>       0.66450498       0.83333333       0.55457704 </v>
   <v>       0.49646913       0.00000000       0.12833205 </v>
   <v>       0.49646913       0.00000000       0.62833205 </v>
   <v>       0.49646913       0.33333333       0.12833205 </v>
   <v>       0.49646913       0.33333333       0.62833205 </v>
   <v>       0.49646913       0.66666667       0.12833205 </v>
   <v>       0.49646913       0.66666667       0.62833205 </v>
   <v>       0.00353087       0.16666667       0.37166795 </v>
   <v>       0.00353087       0.16666667       0.87166795 </v>
   <v>       0.00353087       0.50000000       0.37166795 </v>
   <v>       0.00353087       0.50000000       0.87166795 </v>
   <v>       0.00353087       0.83333333       0.37166795 </v>
   <v>       0.00353087       0.83333333       0.87166795 </v>
   <v>       0.17337106       0.00000000       0.28161508 </v>
   <v>       0.17337106       0.00000000       0.78161508 </v>
   <v>       0.17337106       0.33333333       0.28161508 </v>
   <v>       0.17337106       0.33333333       0.78161508 </v>
   <v>       0.17337106       0.66666667       0.28161508 </v>
   <v>       0.17337106       0.66666667       0.78161508 </v>
   <v>       0.32662894       0.16666667       0.21838492 </v>
   <v>       0.32662894       0.16666667       0.71838492 </v>
   <v>       0.32662894       0.50000000       0.21838492 </v>
   <v>       0.32662894       0.50000000       0.71838492 </v>
   <v>       0.32662894       0.83333333       0.21838492 </v>
   <v>       0.32662894       0.83333333       0.71838492 </v>
   <v>       0.33549502       0.16666667       0.44542296 </v>
   <v>       0.33549502       0.16666667       0.94542296 </v>
   <v>       0.33549502       0.50000000       0.44542296 </v>
   <v>       0.33549502       0.50000000       0.94542296 </v>
   <v>       0.33549502       0.83333333       0.44542296 </v>
   <v>       0.33549502       0.83333333       0.94542296 </v>
   <v>       0.16450498       0.00000000       0.05457704 </v>
   <v>       0.16450498       0.33333333       0.05457704 </v>
   <v>       0.16450498       0.33333333       0.55457704 </v>
   <v>       0.16450498       0.66666667       0.05457704 </v>
   <v>       0.16450498       0.66666667       0.55457704 </v>
   <v>       0.16450498       0.00000000       0.55457704 </v>
  </varray>
 </structure>
 <calculation>
  <scstep>
   <time name="dav">    1.77    1.77</time>
   <time name="total">    1.90    1.90</time>
   <energy>
    <i name="alphaZ">   5376.25786726 </i>
    <i name="ewald"> -86186.08526395 </i>
    <i name="hartreedc"> -33713.75777736 </i>
    <i name="XCdc">   4078.38769252 </i>
    <i name="pawpsdc"> 100093.09196360 </i>
    <i name="pawaedc">-115889.62880893 </i>
    <i name="eentropy">     -0.00537560 </i>
    <i name="bandstr">  16045.38572711 </i>
    <i name="atom"> 131866.99277783 </i>
    <i name="e_fr_energy">  21670.63880248 </i>
    <i name="e_wo_entrp">  21670.64417808 </i>
    <i name="e_0_energy">  21670.64149028 </i>
   </energy>
  </scstep>
  <scstep>
   <time name="dav">    1.68    1.68</time>
   <time name="total">    1.69    1.69</time>
   <energy>
    <i name="e_fr_energy">   4806.31310569 </i>
    <i name="e_wo_entrp">   4806.33227911 </i>
    <i name="e_0_energy">   4806.32269240 </i>
   </energy>
  </scstep>
  <scstep>
   <time name="dav">    2.06    2.06</time>
   <time name="total">    2.06    2.06</time>
   <energy>
    <i name="e_fr_energy">   -141.20937600 </i>
    <i name="e_wo_entrp">   -141.20937600 </i>
    <i name="e_0_energy">   -141.20937600 </i>
   </energy>
  </scstep>
  <scstep>
   <time name="dav">    2.01    2.01</time>
   <time name="total">    2.01    2.01</time>
   <energy>
    <i name="e_fr_energy">   -763.89681660 </i>
    <i name="e_wo_entrp">   -763.89681660 </i>
    <i name="e_0_energy">   -763.89681660 </i>
   </energy>
  </scstep>
  <scstep>
   <time name="dav">    2.29    2.29</time>
   <time name="total">    2.56    2.56</time>
   <energy>
    <i name="e_fr_energy">   -807.71434668 </i>
    <i name="e_wo_entrp">   -807.71434668 </i>
    <i name="e_0_energy">   -807.71434668 </i>
   </energy>
  </scstep>
  <scstep>
   <time name="diag">    0.24    0.24</time>
   <time name="diis">    2.49    2.49</time>
   <time name="orth">    0.03    0.03</time>
   <time name="total">    3.14    3.14</time>
   <energy>
    <i name="e_fr_energy">   -698.63750626 </i>
    <i name="e_wo_entrp">   -698.63704048 </i>
    <i name="e_0_energy">   -698.63727337 </i>
   </energy>
  </scstep>
  <scstep>
   <time name="diag">    0.24    0.24</time>
   <time name="diis">    2.62    2.62</time>
   <time name="orth">    0.03    0.03</time>
   <time name="total">    3.27    3.27</time>
   <energy>
    <i name="e_fr_energy">   -703.96610400 </i>
    <i name="e_wo_entrp">   -703.96610400 </i>
    <i name="e_0_energy">   -703.96610400 </i>
   </energy>
  </scstep>
  <scstep>
   <time name="diag">    0.24    0.24</time>
   <time name="diis">    2.88    2.88</time>
   <time name="orth">    0.03    0.03</time>
   <time name="total">    3.53    3.53</time>
   <energy>
    <i name="e_fr_energy">   -698.93884982 </i>
    <i name="e_wo_entrp">   -698.93881997 </i>
    <i name="e_0_energy">   -698.93883489 </i>
   </energy>
  </scstep>
  <scstep>
   <time name="diag">    0.24    0.24</time>
   <time name="diis">    2.51    2.51</time>
   <time name="orth">    0.03    0.03</time>
   <time name="total">    3.17    3.17</time>
   <energy>
    <i name="e_fr_energy">   -699.67275703 </i>
    <i name="e_wo_entrp">   -699.65788815 </i>
    <i name="e_0_energy">   -699.66532259 </i>
   </energy>
  </scstep>
  <scstep>
   <time name="diag">    0.24    0.24</time>
   <time name="diis">    2.28    2.28</time>
   <time name="orth">    0.03    0.03</time>
   <time name="total">    2.94    2.94</time>
   <energy>
    <i name="e_fr_energy">   -697.97544034 </i>
    <i name="e_wo_entrp">   -697.94233894 </i>
    <i name="e_0_energy">   -697.95888964 </i>
   </energy>
  </scstep>
  <scstep>
   <time name="diag">    0.24    0.24</time>
   <time name="diis">    2.63    2.63</time>
   <time name="orth">    0.03    0.03</time>
   <time name="total">    3.29    3.29</time>
   <energy>
    <i name="e_fr_energy">   -698.65450245 </i>
    <i name="e_wo_entrp">   -698.63867999 </i>
    <i name="e_0_energy">   -698.64659122 </i>
   </energy>
  </scstep>
  <scstep>
   <time name="diag">    0.24    0.24</time>
   <time name="diis">    2.68    2.68</time>
   <time name="orth">    0.03    0.03</time>
   <time name="total">    3.34    3.34</time>
   <energy>
    <i name="e_fr_energy">   -697.57143950 </i>
    <i name="e_wo_entrp">   -697.57081198 </i>
    <i name="e_0_energy">   -697.57112574 </i>
   </energy>
  </scstep>
  <scstep>
   <time name="diag">    0.24    0.24</time>
   <time name="diis">    2.52    2.52</time>
   <time name="orth">    0.03    0.03</time>
   <time name="total">    3.19    3.19</time>
   <energy>
    <i name="e_fr_energy">   -697.70091547 </i>
    <i name="e_wo_entrp">   -697.70091141 </i>
    <i name="e_0_energy">   -697.70091344 </i>
   </energy>
  </scstep>
  <scstep>
   <time name="diag">    0.24    0.24</time>
   <time name="diis">    2.89    2.89</time>
   <time name="orth">    0.03    0.03</time>
   <time name="total">    3.55    3.55</time>
   <energy>
    <i name="e_fr_energy">   -697.52589798 </i>
    <i name="e_wo_entrp">   -697.52422857 </i>
    <i name="e_0_energy">   -697.52506327 </i>
   </energy>
  </scstep>
  <scstep>
   <time name="diag">    0.24    0.24</time>
   <time name="diis">    2.79    2.79</time>
   <time name="orth">    0.03    0.03</time>
   <time name="total">    3.45    3.45</time>
   <energy>
    <i name="e_fr_energy">   -697.47250916 </i>
    <i name="e_wo_entrp">   -697.46517409 </i>
    <i name="e_0_energy">   -697.46884163 </i>
   </energy>
  </scstep>
  <scstep>
   <time name="diag">    0.24    0.24</time>
   <time name="diis">    2.41    2.41</time>
   <time name="orth">    0.03    0.03</time>
   <time name="total">    3.08    3.08</time>
   <energy>
    <i name="e_fr_energy">   -697.44416451 </i>
    <i name="e_wo_entrp">   -697.41756272 </i>
    <i name="e_0_energy">   -697.43086361 </i>
   </energy>
  </scstep>
  <scstep>
   <time name="diag">    0.24    0.24</time>
   <time name="diis">    2.67    2.67</time>
   <time name="orth">    0.03    0.03</time>
   <time name="total">    3.34    3.34</time>
   <energy>
    <i name="e_fr_energy">   -697.44944105 </i>
    <i name="e_wo_entrp">   -697.42945879 </i>
    <i name="e_0_energy">   -697.43944992 </i>
   </energy>
  </scstep>
  <scstep>
   <time name="diag">    0.24    0.24</time>
   <time name="diis">    2.61    2.61</time>
   <time name="orth">    0.03    0.03</time>
   <time name="total">    3.29    3.28</time>
   <energy>
    <i name="e_fr_energy">   -697.44511277 </i>
    <i name="e_wo_entrp">   -697.41205977 </i>
    <i name="e_0_energy">   -697.42858627 </i>
   </energy>
  </scstep>
  <scstep>
   <time name="diag">    0.24    0.24</time>
   <time name="diis">    2.55    2.55</time>
   <time name="orth">    0.03    0.03</time>
   <time name="total">    3.23    3.22</time>
   <energy>
    <i name="e_fr_energy">   -697.45062246 </i>
    <i name="e_wo_entrp">   -697.41439758 </i>
    <i name="e_0_energy">   -697.43251002 </i>
   </energy>
  </scstep>
  <scstep>
   <time name="diag">    0.24    0.24</time>
   <time name="diis">    2.45    2.45</time>
   <time name="orth">    0.03    0.03</time>
   <time name="total">    3.13    3.13</time>
   <energy>
    <i name="e_fr_energy">   -697.44212659 </i>
    <i name="e_wo_entrp">   -697.41804391 </i>
    <i name="e_0_energy">   -697.43008525 </i>
   </energy>
  </scstep>
  <scstep>
   <time name="diag">    0.24    0.24</time>
   <time name="diis">    2.17    2.17</time>
   <time name="orth">    0.03    0.03</time>
   <time name="total">    2.85    2.85</time>
   <energy>
    <i name="e_fr_energy">   -697.44308237 </i>
    <i name="e_wo_entrp">   -697.41869651 </i>
    <i name="e_0_energy">   -697.43088944 </i>
   </energy>
  </scstep>
  <scstep>
   <time name="diag">    0.24    0.24</time>
   <time name="diis">    1.91    1.91</time>
   <time name="orth">    0.03    0.03</time>
   <time name="total">    2.59    2.59</time>
   <energy>
    <i name="e_fr_energy">   -697.44245763 </i>
    <i name="e_wo_entrp">   -697.41328494 </i>
    <i name="e_0_energy">   -697.42787129 </i>
   </energy>
  </scstep>
  <scstep>
   <time name="diag">    0.24    0.24</time>
   <time name="diis">    1.75    1.75</time>
   <time name="orth">    0.03    0.03</time>
   <time name="total">    2.43    2.43</time>
   <energy>
    <i name="e_fr_energy">   -697.44251650 </i>
    <i name="e_wo_entrp">   -697.41644405 </i>
    <i name="e_0_energy">   -697.42948027 </i>
   </energy>
  </scstep>
  <scstep>
   <time name="diag">    0.24    0.24</time>
   <time name="diis">    1.17    1.17</time>
   <time name="orth">    0.03    0.03</time>
   <time name="total">    1.86    1.86</time>
   <energy>
    <i name="e_fr_energy">   -697.44239110 </i>
    <i name="e_wo_entrp">   -697.41545372 </i>
    <i name="e_0_energy">   -697.42892241 </i>
   </energy>
  </scstep>
  <scstep>
   <time name="diag">    0.24    0.24</time>
   <time name="diis">    1.10    1.10</time>
   <time name="orth">    0.03    0.03</time>
   <time name="total">    1.80    1.80</time>
   <energy>
    <i name="e_fr_energy">   -697.44237391 </i>
    <i name="e_wo_entrp">   -697.41506341 </i>
    <i name="e_0_energy">   -697.42871866 </i>
   </energy>
  </scstep>
  <scstep>
   <time name="diag">    0.24    0.24</time>
   <time name="diis">    1.10    1.10</time>
   <time name="orth">    0.03    0.03</time>
   <time name="total">    1.48    1.48</time>
   <energy>
    <i name="alphaZ">   5376.25786726 </i>
    <i name="ewald"> -86186.08526395 </i>
    <i name="hartreedc"> -34173.61200779 </i>
    <i name="XCdc">   4137.27257338 </i>
    <i name="pawpsdc"> 118133.74440367 </i>
    <i name="pawaedc">-134182.57138193 </i>
    <i name="eentropy">     -0.02768717 </i>
    <i name="bandstr">  -5669.41365029 </i>
    <i name="atom"> 131866.99277783 </i>
    <i name="e_fr_energy">   -697.44236899 </i>
    <i name="e_wo_entrp">   -697.41468182 </i>
    <i name="e_0_energy">   -697.42852540 </i>
   </energy>
  </scstep>
  <structure>
   <crystal>
    <varray name="basis" >
     <v>       0.00000000      12.28047342       0.00000000 </v>
     <v>       9.14270205       0.00000000       0.00000000 </v>
     <v>       0.00000000      -2.76826177     -11.30069772 </v>
    </varray>
    <i name="volume">   1268.80515525 </i>
    <varray name="rec_basis" >
     <v>       0.00000000       0.08143009      -0.01994742 </v>
     <v>       0.10937686      -0.00000000       0.00000000 </v>
     <v>       0.00000000       0.00000000      -0.08849011 </v>
    </varray>
   </crystal>
   <varray name="positions" >
    <v>       0.65883830       0.00000000       0.15736517 </v>
    <v>       0.65883830       0.00000000       0.65736517 </v>
    <v>       0.65883830       0.33333333       0.15736517 </v>
    <v>       0.65883830       0.33333333       0.65736517 </v>
    <v>       0.65883830       0.66666667       0.15736517 </v>
    <v>       0.65883830       0.66666667       0.65736517 </v>
    <v>       0.84116170       0.16666667       0.34263483 </v>
    <v>       0.84116170       0.16666667       0.84263483 </v>
    <v>       0.84116170       0.50000000       0.34263483 </v>
    <v>       0.84116170       0.50000000       0.84263483 </v>
    <v>       0.84116170       0.83333333       0.34263483 </v>
    <v>       0.84116170       0.83333333       0.84263483 </v>
    <v>       0.59047440       0.16666667       0.39739300 </v>
    <v>       0.59047440       0.16666667       0.89739300 </v>
    <v>       0.59047440       0.50000000       0.39739300 </v>
    <v>       0.59047440       0.50000000       0.89739300 </v>
    <v>       0.59047440       0.83333333       0.39739300 </v>
    <v>       0.59047440       0.83333333       0.89739300 </v>
    <v>       0.90952560       0.00000000       0.10260700 </v>
    <v>       0.90952560       0.00000000       0.60260700 </v>
    <v>       0.90952560       0.33333333       0.10260700 </v>
    <v>       0.90952560       0.33333333       0.60260700 </v>
    <v>       0.90952560       0.66666667       0.10260700 </v>
    <v>       0.90952560       0.66666667       0.60260700 </v>
    <v>       0.15883830       0.16666667       0.15736517 </v>
    <v>       0.15883830       0.16666667       0.65736517 </v>
    <v>       0.15883830       0.50000000       0.15736517 </v>
    <v>       0.15883830       0.50000000       0.65736517 </v>
    <v>       0.15883830       0.83333333       0.15736517 </v>
    <v>       0.15883830       0.83333333       0.65736517 </v>
    <v>       0.34116170       0.00000000       0.34263483 </v>
    <v>       0.34116170       0.00000000       0.84263483 </v>
    <v>       0.34116170       0.33333333       0.34263483 </v>
    <v>       0.34116170       0.33333333       0.84263483 </v>
    <v>       0.34116170       0.66666667       0.34263483 </v>
    <v>       0.34116170       0.66666667       0.84263483 </v>
    <v>       0.09047440       0.00000000       0.89739300 </v>
    <v>       0.09047440       0.33333333       0.39739300 </v>
    <v>       0.09047440       0.33333333       0.89739300 </v>
    <v>       0.09047440       0.66666667       0.39739300 </v>
    <v>       0.09047440       0.66666667       0.89739300 </v>
    <v>       0.40952560       0.16666667       0.10260700 </v>
    <v>       0.40952560       0.16666667       0.60260700 </v>
    <v>       0.40952560       0.50000000       0.10260700 </v>
    <v>       0.40952560       0.50000000       0.60260700 </v>
    <v>       0.40952560       0.83333333       0.10260700 </v>
    <v>       0.40952560       0.83333333       0.60260700 </v>
    <v>       0.99646913       0.16666667       0.12833205 </v>
    <v>       0.99646913       0.16666667       0.62833205 </v>
    <v>       0.99646913       0.50000000       0.12833205 </v>
    <v>       0.99646913       0.50000000       0.62833205 </v>
    <v>       0.99646913       0.83333333       0.12833205 </v>
    <v>       0.99646913       0.83333333       0.62833205 </v>
    <v>       0.50353087       0.00000000       0.37166795 </v>
    <v>       0.50353087       0.00000000       0.87166795 </v>
    <v>       0.50353087       0.33333333       0.37166795 </v>
    <v>       0.50353087       0.33333333       0.87166795 </v>
    <v>       0.50353087       0.66666667       0.37166795 </v>
    <v>       0.50353087       0.66666667       0.87166795 </v>
    <v>       0.67337106       0.16666667       0.28161508 </v>
    <v>       0.67337106       0.16666667       0.78161508 </v>
    <v>       0.67337106       0.50000000       0.28161508 </v>
    <v>       0.67337106       0.50000000       0.78161508 </v>
    <v>       0.67337106       0.83333333       0.28161508 </v>
    <v>       0.67337106       0.83333333       0.78161508 </v>
    <v>       0.82662894       0.00000000       0.21838492 </v>
    <v>       0.82662894       0.00000000       0.71838492 </v>
    <v>       0.82662894       0.33333333       0.21838492 </v>
    <v>       0.82662894       0.33333333       0.71838492 </v>
    <v>       0.82662894       0.66666667       0.21838492 </v>
    <v>       0.82662894       0.66666667       0.71838492 </v>
    <v>       0.83549502       0.00000000       0.44542296 </v>
    <v>       0.83549502       0.00000000       0.94542296 </v>
    <v>       0.83549502       0.33333333       0.44542296 </v>
    <v>       0.83549502       0.33333333       0.94542296 </v>
    <v>       0.83549502       0.66666667       0.44542296 </v>
    <v>       0.83549502       0.66666667       0.94542296 </v>
    <v>       0.66450498       0.16666667       0.05457704 </v>
    <v>       0.66450498       0.16666667       0.55457704 </v>
    <v>       0.66450498       0.50000000       0.05457704 </v>
    <v>       0.66450498       0.50000000       0.55457704 </v>
    <v>       0.66450498       0.83333333       0.05457704 </v>
    <v>       0.66450498       0.83333333       0.55457704 </v>
    <v>       0.49646913       0.00000000       0.12833205 </v>
    <v>       0.49646913       0.00000000       0.62833205 </v>
    <v>       0.49646913       0.33333333       0.12833205 </v>
    <v>       0.49646913       0.33333333       0.62833205 </v>
    <v>       0.49646913       0.66666667       0.12833205 </v>
    <v>       0.49646913       0.66666667       0.62833205 </v>
    <v>       0.00353087       0.16666667       0.37166795 </v>
    <v>       0.00353087       0.16666667       0.87166795 </v>
    <v>       0.00353087       0.50000000       0.37166795 </v>
    <v>       0.00353087       0.50000000       0.87166795 </v>
    <v>       0.00353087       0.83333333       0.37166795 </v>
    <v>       0.00353087       0.83333333       0.87166795 </v>
    <v>       0.17337106       0.00000000       0.28161508 </v>
    <v>       0.17337106       0.00000000       0.78161508 </v>
    <v>       0.17337106       0.33333333       0.28161508 </v>
    <v>       0.17337106       0.33333333       0.78161508 </v>
    <v>       0.17337106       0.66666667       0.28161508 </v>
    <v>       0.17337106       0.66666667       0.78161508 </v>
    <v>       0.32662894       0.16666667       0.21838492 </v>
    <v>       0.32662894       0.16666667       0.71838492 </v>
    <v>       0.32662894       0.50000000       0.21838492 </v>
    <v>       0.32662894       0.50000000       0.71838492 </v>
    <v>       0.32662894       0.83333333       0.21838492 </v>
    <v>       0.32662894       0.83333333       0.71838492 </v>
    <v>       0.33549502       0.16666667       0.44542296 </v>
    <v>       0.33549502       0.16666667       0.94542296 </v>
    <v>       0.33549502       0.50000000       0.44542296 </v>
    <v>       0.33549502       0.50000000       0.94542296 </v>
    <v>       0.33549502       0.83333333       0.44542296 </v>
    <v>       0.33549502       0.83333333       0.94542296 </v>
    <v>       0.16450498       0.00000000       0.05457704 </v>
    <v>       0.16450498       0.33333333       0.05457704 </v>
    <v>       0.16450498       0.33333333       0.55457704 </v>
    <v>       0.16450498       0.66666667       0.05457704 </v>
    <v>       0.16450498       0.66666667       0.55457704 </v>
    <v>       0.16450498       0.00000000       0.55457704 </v>
   </varray>
  </structure>
  <varray name="forces" >
   <v>       0.00000000       0.21044101      -0.10530195 </v>
   <v>       0.00000000       0.05288718       0.09353223 </v>
   <v>      -0.04869836       0.07224958      -0.04874193 </v>
   <v>      -0.01323757      -0.01418594       0.09409942 </v>
   <v>       0.04869836       0.07224958      -0.04874193 </v>
   <v>       0.01323757      -0.01418594       0.09409942 </v>
   <v>      -0.35678491       0.97681944      -0.15342187 </v>
   <v>      -0.00557647      -0.04601173      -0.16331796 </v>
   <v>       0.00000000       0.39044565      -0.03204027 </v>
   <v>       0.00000000       0.04185326      -0.16648546 </v>
   <v>       0.35678491       0.97681944      -0.15342187 </v>
   <v>       0.00557647      -0.04601173      -0.16331796 </v>
   <v>      -0.02854945       0.08342204       0.06364634 </v>
   <v>       0.01234736       0.10036227      -0.15134292 </v>
   <v>       0.00000000       0.02382492       0.02534488 </v>
   <v>       0.00000000       0.05974642      -0.10708448 </v>
   <v>       0.02854945       0.08342204       0.06364634 </v>
   <v>      -0.01234736       0.10036227      -0.15134292 </v>
   <v>       0.00000000       0.19107831      -0.71242260 </v>
   <v>       0.00000000      -0.47838010       0.56310073 </v>
   <v>      -0.07763312       0.11747605      -0.21258115 </v>
   <v>       0.24570102      -0.11041988       0.35614541 </v>
   <v>       0.07763312       0.11747605      -0.21258115 </v>
   <v>      -0.24570102      -0.11041988       0.35614541 </v>
   <v>      -0.48880635      -0.45243935      -0.97348270 </v>
   <v>       7.10224163      -1.54024143      -3.79972834 </v>
   <v>       0.00000000      -0.16685634      -0.28382727 </v>
   <v>       0.00000000       0.00536791       0.54493785 </v>
   <v>       0.48880635      -0.45243935      -0.97348270 </v>
   <v>      -7.10224163      -1.54024143      -3.79972834 </v>
   <v>       0.00000000      -1.07070990       0.45296233 </v>
   <v>       0.00000000       0.40055473      -0.56886011 </v>
   <v>       0.09364447      -0.23853489       0.22737615 </v>
   <v>       0.30332618       0.04210253      -0.27184679 </v>
   <v>      -0.09364447      -0.23853489       0.22737615 </v>
   <v>      -0.30332618       0.04210253      -0.27184679 </v>
   <v>       0.00000000      -0.41244700      -0.51492186 </v>
   <v>      -1.02838416      -0.32302492       0.27518388 </v>
   <v>       0.08105104      -0.06317693      -0.25687992 </v>
   <v>       1.02838416      -0.32302492       0.27518388 </v>
   <v>      -0.08105104      -0.06317693      -0.25687992 </v>
   <v>       0.00404950      -0.02541463      -0.24076699 </v>
   <v>       0.24515399       0.48807289       0.21550712 </v>
   <v>       0.00000000      -0.04776615      -0.12509144 </v>
   <v>       0.00000000      -0.04370824       0.18603869 </v>
   <v>      -0.00404950      -0.02541463      -0.24076699 </v>
   <v>      -0.24515399       0.48807289       0.21550712 </v>
   <v>       0.17925446      -0.17226569       0.17193554 </v>
   <v>      -0.14472620      -0.22008147      -0.29929046 </v>
   <v>       0.00000000      -0.04658846       0.07676882 </v>
   <v>       0.00000000      -0.04257189      -0.13904447 </v>
   <v>      -0.17925446      -0.17226569       0.17193554 </v>
   <v>       0.14472620      -0.22008147      -0.29929046 </v>
   <v>       0.00000000      -0.02558723      -0.01838943 </v>
   <v>       0.00000000      -0.13208985       0.11858654 </v>
   <v>      -0.03237512      -0.03410759      -0.00403350 </v>
   <v>      -0.05018416      -0.10505065       0.10039553 </v>
   <v>       0.03237512      -0.03410759      -0.00403350 </v>
   <v>       0.05018416      -0.10505065       0.10039553 </v>
   <v>       0.04383852      -0.13152739       0.01062524 </v>
   <v>      -0.01095982      -0.05721248       0.04583142 </v>
   <v>       0.00000000      -0.10277838      -0.00184389 </v>
   <v>       0.00000000      -0.03920116       0.04300745 </v>
   <v>      -0.04383852      -0.13152739       0.01062524 </v>
   <v>       0.01095982      -0.05721248       0.04583142 </v>
   <v>       0.00000000      -0.30284806       0.23907287 </v>
   <v>       0.00000000       0.09408682      -0.03049745 </v>
   <v>       0.11505878      -0.14349599       0.13060133 </v>
   <v>      -0.04347330       0.06960961      -0.01574459 </v>
   <v>      -0.11505878      -0.14349599       0.13060133 </v>
   <v>       0.04347330       0.06960961      -0.01574459 </v>
   <v>       0.00000000      -0.48381272      -0.37163274 </v>
   <v>       0.00000000      -0.16648060       0.16104423 </v>
   <v>       0.14261064      -0.37597644      -0.29012877 </v>
   <v>       0.00514775      -0.18301383       0.13264328 </v>
   <v>      -0.14261064      -0.37597644      -0.29012877 </v>
   <v>      -0.00514775      -0.18301383       0.13264328 </v>
   <v>       0.02247891       0.10795824       0.16263725 </v>
   <v>       0.00441782       0.12247213      -0.05815075 </v>
   <v>       0.00000000       0.12589544       0.13259150 </v>
   <v>       0.00000000       0.13751121      -0.03644182 </v>
   <v>      -0.02247891       0.10795824       0.16263725 </v>
   <v>      -0.00441782       0.12247213      -0.05815075 </v>
   <v>       0.00000000      -0.03111844       0.04943177 </v>
   <v>       0.00000000      -0.14532960      -0.07388934 </v>
   <v>       0.00153332      -0.00780899       0.03050500 </v>
   <v>      -0.06140933      -0.07041410      -0.07728461 </v>
   <v>      -0.00153332      -0.00780899       0.03050500 </v>
   <v>       0.06140933      -0.07041410      -0.07728461 </v>
   <v>      -0.12693947       0.10571645      -0.42835007 </v>
   <v>      -0.06831296       0.10350962       0.15214574 </v>
   <v>       0.00000000      -0.09089742       0.01133092 </v>
   <v>       0.00000000       0.04742374       0.09038297 </v>
   <v>       0.12693947       0.10571645      -0.42835007 </v>
   <v>       0.06831296       0.10350962       0.15214574 </v>
   <v>       0.00000000       0.75340804       0.47637548 </v>
   <v>       0.00000000       0.06333968      -0.42685460 </v>
   <v>       0.25727475       0.26531569       0.11581672 </v>
   <v>      -0.23402403       0.06157758       0.10296939 </v>
   <v>      -0.25727475       0.26531569       0.11581672 </v>
   <v>       0.23402403       0.06157758       0.10296939 </v>
   <v>       0.21322274       0.40131828       0.11316053 </v>
   <v>      -0.28931468       0.31048757      -0.16127939 </v>
   <v>       0.00000000       0.17842578       0.04719986 </v>
   <v>       0.00000000       0.06252772      -0.15276945 </v>
   <v>      -0.21322274       0.40131828       0.11316053 </v>
   <v>       0.28931468       0.31048757      -0.16127939 </v>
   <v>      -0.05377022      -0.07819043      -0.53353466 </v>
   <v>      -0.06416562      -0.19646661       0.24129788 </v>
   <v>       0.00000000      -0.07999992      -0.14724302 </v>
   <v>       0.00000000      -0.16967925       0.08027512 </v>
   <v>       0.05377022      -0.07819043      -0.53353466 </v>
   <v>       0.06416562      -0.19646661       0.24129788 </v>
   <v>       0.00000000       0.33252764       0.56979421 </v>
   <v>      -0.00811006       0.21821523       0.22107593 </v>
   <v>       0.61146741       0.25488227      -0.38195621 </v>
   <v>       0.00811006       0.21821523       0.22107593 </v>
   <v>      -0.61146741       0.25488227      -0.38195621 </v>
   <v>       0.00000000       2.28249308      11.16939207 </v>
  </varray>
  <varray name="stress" >
   <v>      92.38109288       0.00000000       0.00000000 </v>
   <v>       0.00000000      62.62165779       3.77361686 </v>
   <v>       0.00000000       3.77361634      65.22947263 </v>
  </varray>
  <energy>
   <i name="e_fr_energy">   -697.44236899 </i>
   <i name="e_wo_entrp">   -697.41468182 </i>
   <i name="e_0_energy">   -697.42852540 </i>
  </energy>
  <time name="totalsc">   81.52   81.53</time>
 </calculation>
 <calculation>
  <scstep>
   <time name="dav">    1.86    1.86</time>
   <time name="total">    2.24    2.24</time>
   <energy>
    <i name="alphaZ">   5376.25786726 </i>
    <i name="ewald"> -86020.53375372 </i>
    <i name="hartreedc"> -34339.72817171 </i>
    <i name="XCdc">   4136.88065555 </i>
    <i name="pawpsdc"> 118133.59145189 </i>
    <i name="pawaedc">-134182.41463440 </i>
    <i name="eentropy">     -0.01062555 </i>
    <i name="bandstr">  -5634.71202023 </i>
    <i name="atom"> 131866.99277783 </i>
    <i name="e_fr_energy">   -663.67645309 </i>
    <i name="e_wo_entrp">   -663.66582754 </i>
    <i name="e_0_energy">   -663.67114031 </i>
   </energy>
  </scstep>
  <scstep>
   <time name="diag">    0.24    0.24</time>
   <time name="diis">    2.60    2.60</time>
   <time name="orth">    0.03    0.03</time>
   <time name="total">    3.25    3.25</time>
   <energy>
    <i name="e_fr_energy">   -694.19996552 </i>
    <i name="e_wo_entrp">   -694.18383285 </i>
    <i name="e_0_energy">   -694.19189918 </i>
   </energy>
  </scstep>
  <scstep>
   <time name="diag">    0.24    0.24</time>
   <time name="diis">    2.64    2.64</time>
   <time name="orth">    0.03    0.03</time>
   <time name="total">    3.29    3.29</time>
   <energy>
    <i name="e_fr_energy">   -699.64982125 </i>
    <i name="e_wo_entrp">   -699.63433283 </i>
    <i name="e_0_energy">   -699.64207704 </i>
   </energy>
  </scstep>
  <scstep>
   <time name="diag">    0.24    0.24</time>
   <time name="diis">    2.97    2.97</time>
   <time name="orth">    0.03    0.03</time>
   <time name="total">    3.62    3.62</time>
   <energy>
    <i name="e_fr_energy">   -700.25620754 </i>
    <i name="e_wo_entrp">   -700.24240332 </i>
    <i name="e_0_energy">   -700.24930543 </i>
   </energy>
  </scstep>
  <scstep>
   <time name="diag">    0.24    0.24</time>
   <time name="diis">    2.77    2.77</time>
   <time name="orth">    0.03    0.03</time>
   <time name="total">    3.42    3.42</time>
   <energy>
    <i name="e_fr_energy">   -700.16263778 </i>
    <i name="e_wo_entrp">   -700.14917210 </i>
    <i name="e_0_energy">   -700.15590494 </i>
   </energy>
  </scstep>
  <scstep>
   <time name="diag">    0.24    0.24</time>
   <time name="diis">    2.56    2.56</time>
   <time name="orth">    0.03    0.03</time>
   <time name="total">    3.21    3.21</time>
   <energy>
    <i name="e_fr_energy">   -700.12437388 </i>
    <i name="e_wo_entrp">   -700.10996891 </i>
    <i name="e_0_energy">   -700.11717139 </i>
   </energy>
  </scstep>
  <scstep>
   <time name="diag">    0.24    0.24</time>
   <time name="diis">    2.69    2.69</time>
   <time name="orth">    0.03    0.03</time>
   <time name="total">    3.35    3.35</time>
   <energy>
    <i name="e_fr_energy">   -700.16420387 </i>
    <i name="e_wo_entrp">   -700.14409561 </i>
    <i name="e_0_energy">   -700.15414974 </i>
   </energy>
  </scstep>
  <scstep>
   <time name="diag">    0.24    0.24</time>
   <time name="diis">    2.75    2.75</time>
   <time name="orth">    0.03    0.03</time>
   <time name="total">    3.41    3.41</time>
   <energy>
    <i name="e_fr_energy">   -700.14951730 </i>
    <i name="e_wo_entrp">   -700.13208464 </i>
    <i name="e_0_energy">   -700.14080097 </i>
   </energy>
  </scstep>
  <scstep>
   <time name="diag">    0.24    0.24</time>
   <time name="diis">    2.85    2.85</time>
   <time name="orth">    0.03    0.03</time>
   <time name="total">    3.51    3.51</time>
   <energy>
    <i name="e_fr_energy">   -700.15454119 </i>
    <i name="e_wo_entrp">   -700.13594567 </i>
    <i name="e_0_energy">   -700.14524343 </i>
   </energy>
  </scstep>
  <scstep>
   <time name="diag">    0.24    0.24</time>
   <time name="diis">    2.92    2.92</time>
   <time name="orth">    0.03    0.03</time>
   <time name="total">    3.58    3.58</time>
   <energy>
    <i name="e_fr_energy">   -700.15554248 </i>
    <i name="e_wo_entrp">   -700.13544966 </i>
    <i name="e_0_energy">   -700.14549607 </i>
   </energy>
  </scstep>
  <scstep>
   <time name="diag">    0.24    0.24</time>
   <time name="diis">    2.46    2.46</time>
   <time name="orth">    0.03    0.03</time>
   <time name="total">    3.13    3.13</time>
   <energy>
    <i name="e_fr_energy">   -700.15508620 </i>
    <i name="e_wo_entrp">   -700.13161810 </i>
    <i name="e_0_energy">   -700.14335215 </i>
   </energy>
  </scstep>
  <scstep>
   <time name="diag">    0.24    0.24</time>
   <time name="diis">    2.55    2.55</time>
   <time name="orth">    0.03    0.03</time>
   <time name="total">    3.22    3.22</time>
   <energy>
    <i name="e_fr_energy">   -700.15483972 </i>
    <i name="e_wo_entrp">   -700.13211666 </i>
    <i name="e_0_energy">   -700.14347819 </i>
   </energy>
  </scstep>
  <scstep>
   <time name="diag">    0.24    0.24</time>
   <time name="diis">    2.45    2.44</time>
   <time name="orth">    0.03    0.03</time>
   <time name="total">    3.12    3.12</time>
   <energy>
    <i name="e_fr_energy">   -700.15468251 </i>
    <i name="e_wo_entrp">   -700.13300362 </i>
    <i name="e_0_energy">   -700.14384307 </i>
   </energy>
  </scstep>
  <scstep>
   <time name="diag">    0.24    0.24</time>
   <time name="diis">    2.15    2.15</time>
   <time name="orth">    0.03    0.03</time>
   <time name="total">    2.82    2.82</time>
   <energy>
    <i name="e_fr_energy">   -700.15473219 </i>
    <i name="e_wo_entrp">   -700.13328247 </i>
    <i name="e_0_energy">   -700.14400733 </i>
   </energy>
  </scstep>
  <scstep>
   <time name="diag">    0.24    0.24</time>
   <time name="diis">    1.88    1.88</time>
   <time name="orth">    0.03    0.03</time>
   <time name="total">    2.55    2.56</time>
   <energy>
    <i name="e_fr_energy">   -700.15466846 </i>
    <i name="e_wo_entrp">   -700.13264999 </i>
    <i name="e_0_energy">   -700.14365922 </i>
   </energy>
  </scstep>
  <scstep>
   <time name="diag">    0.24    0.24</time>
   <time name="diis">    1.28    1.28</time>
   <time name="orth">    0.03    0.03</time>
   <time name="total">    1.66    1.66</time>
   <energy>
    <i name="alphaZ">   5376.25786726 </i>
    <i name="ewald"> -86020.53375372 </i>
    <i name="hartreedc"> -34354.18384584 </i>
    <i name="XCdc">   4137.50517274 </i>
    <i name="pawpsdc"> 117833.55640342 </i>
    <i name="pawaedc">-133884.34952226 </i>
    <i name="eentropy">     -0.02201193 </i>
    <i name="bandstr">  -5655.37776045 </i>
    <i name="atom"> 131866.99277783 </i>
    <i name="e_fr_energy">   -700.15467296 </i>
    <i name="e_wo_entrp">   -700.13266103 </i>
    <i name="e_0_energy">   -700.14366699 </i>
   </energy>
  </scstep>
  <structure>
   <crystal>
    <varray name="basis" >
     <v>       0.00000000      12.28047342       0.00000000 </v>
     <v>       9.14270205       0.00000000       0.00000000 </v>
     <v>       0.00000000      -2.76826177     -11.30069772 </v>
    </varray>
    <i name="volume">   1268.80515525 </i>
    <varray name="rec_basis" >
     <v>       0.00000000       0.08143009      -0.01994742 </v>
     <v>       0.10937686      -0.00000000       0.00000000 </v>
     <v>       0.00000000       0.00000000      -0.08849011 </v>
    </varray>
   </crystal>
   <varray name="positions" >
    <v>       0.65976633       0.00000000       0.15781470 </v>
    <v>       0.65895605       0.00000000       0.65696588 </v>
    <v>       0.65916903       0.33307637       0.15757325 </v>
    <v>       0.65869202       0.33326348       0.65696346 </v>
    <v>       0.65916903       0.66692363       0.15757325 </v>
    <v>       0.65869202       0.66673652       0.65696346 </v>
    <v>       0.84514668       0.16478404       0.34328979 </v>
    <v>       0.84113811       0.16663724       0.84333203 </v>
    <v>       0.84272636       0.50000000       0.34277161 </v>
    <v>       0.84148633       0.50000000       0.84334556 </v>
    <v>       0.84514668       0.83521596       0.34328979 </v>
    <v>       0.84113811       0.83336276       0.84333203 </v>
    <v>       0.59074087       0.16651602       0.39712129 </v>
    <v>       0.59101430       0.16673182       0.89803908 </v>
    <v>       0.59054360       0.50000000       0.39728480 </v>
    <v>       0.59081216       0.50000000       0.89785014 </v>
    <v>       0.59074087       0.83348398       0.39712129 </v>
    <v>       0.59101430       0.83326818       0.89803908 </v>
    <v>       0.91096181       0.00000000       0.10564833 </v>
    <v>       0.90710445       0.00000000       0.60020312 </v>
    <v>       0.91019166       0.33292369       0.10351451 </v>
    <v>       0.90874910       0.33462981       0.60108662 </v>
    <v>       0.91019166       0.66707631       0.10351451 </v>
    <v>       0.90874910       0.66537019       0.60108662 </v>
    <v>       0.15799773       0.16408742       0.16152097 </v>
    <v>       0.15644415       0.20414257       0.67358620 </v>
    <v>       0.15845595       0.50000000       0.15857683 </v>
    <v>       0.15833498       0.50000000       0.65503883 </v>
    <v>       0.15799773       0.83591258       0.16152097 </v>
    <v>       0.15644415       0.79585743       0.67358620 </v>
    <v>       0.33651963       0.00000000       0.34070113 </v>
    <v>       0.34328266       0.00000000       0.84506329 </v>
    <v>       0.34000583       0.33382746       0.34166416 </v>
    <v>       0.34158870       0.33493387       0.84379534 </v>
    <v>       0.34000583       0.66617254       0.34166416 </v>
    <v>       0.34158870       0.66506613       0.84379534 </v>
    <v>       0.08934966       0.00000000       0.89959120 </v>
    <v>       0.08894061       0.32790693       0.39621824 </v>
    <v>       0.09047342       0.33376101       0.89848962 </v>
    <v>       0.08894061       0.67209307       0.39621824 </v>
    <v>       0.09047342       0.66623899       0.89848962 </v>
    <v>       0.40965746       0.16668803       0.10363483 </v>
    <v>       0.41123556       0.16796025       0.60168700 </v>
    <v>       0.40945833       0.50000000       0.10314102 </v>
    <v>       0.40917487       0.50000000       0.60181280 </v>
    <v>       0.40965746       0.83331197       0.10363483 </v>
    <v>       0.41123556       0.83203975       0.60168700 </v>
    <v>       0.99562694       0.16761253       0.12759805 </v>
    <v>       0.99589257       0.16590300       0.62960972 </v>
    <v>       0.99621224       0.50000000       0.12800432 </v>
[...]
       <r>   -10.7891     0.0000   142.0000 </r>
       <r>   -10.6761     0.0000   142.0000 </r>
       <r>   -10.5630     0.0000   142.0000 </r>
       <r>   -10.4499     0.0000   142.0000 </r>
       <r>   -10.3369     0.0000   142.0000 </r>
       <r>   -10.2238     0.0000   142.0000 </r>
       <r>   -10.1107     0.0000   142.0000 </r>
       <r>    -9.9977     0.0000   142.0000 </r>
       <r>    -9.8846     0.0000   142.0000 </r>
       <r>    -9.7715     0.0000   142.0000 </r>
       <r>    -9.6585     0.0000   142.0000 </r>
       <r>    -9.5454     0.0000   142.0000 </r>
       <r>    -9.4323     0.1698   142.0192 </r>
       <r>    -9.3193    17.0308   143.9448 </r>
       <r>    -9.2062    72.9088   152.1883 </r>
       <r>    -9.0931   141.2264   168.1563 </r>
       <r>    -8.9801   371.4934   210.1597 </r>
       <r>    -8.8670   643.6660   282.9367 </r>
       <r>    -8.7539   749.6007   367.6914 </r>
       <r>    -8.6409   670.3925   443.4902 </r>
       <r>    -8.5278   536.6913   504.1720 </r>
       <r>    -8.4147   303.6931   538.5095 </r>
       <r>    -8.3017   136.7522   553.9716 </r>
       <r>    -8.1886   118.9790   567.4241 </r>
       <r>    -8.0756   103.2121   579.0939 </r>
       <r>    -7.9625   112.2776   591.7887 </r>
       <r>    -7.8494   112.1287   604.4667 </r>
       <r>    -7.7364    59.2839   611.1697 </r>
       <r>    -7.6233     7.3328   611.9988 </r>
       <r>    -7.5102     0.0105   612.0000 </r>
       <r>    -7.3972     0.0000   612.0000 </r>
       <r>    -7.2841     0.0000   612.0000 </r>
       <r>    -7.1710     0.0000   612.0000 </r>
       <r>    -7.0580     0.0000   612.0000 </r>
       <r>    -6.9449     0.0000   612.0000 </r>
       <r>    -6.8318     0.0000   612.0000 </r>
       <r>    -6.7188     0.0000   612.0000 </r>
       <r>    -6.6057     0.0000   612.0000 </r>
       <r>    -6.4926     0.0000   612.0000 </r>
       <r>    -6.3796     0.0000   612.0000 </r>
       <r>    -6.2665     0.0000   612.0000 </r>
       <r>    -6.1534     0.0000   612.0000 </r>
       <r>    -6.0404     0.0000   612.0000 </r>
       <r>    -5.9273     0.0000   612.0000 </r>
       <r>    -5.8142     0.0000   612.0000 </r>
       <r>    -5.7012     0.0000   612.0000 </r>
       <r>    -5.5881     0.0000   612.0000 </r>
       <r>    -5.4750     0.0000   612.0000 </r>
       <r>    -5.3620     0.0000   612.0000 </r>
       <r>    -5.2489     0.0000   612.0000 </r>
       <r>    -5.1358     0.0000   612.0000 </r>
       <r>    -5.0228     0.5749   612.0650 </r>
       <r>    -4.9097    13.4169   613.5820 </r>
       <r>    -4.7966     3.6950   613.9998 </r>
       <r>    -4.6836     0.0019   614.0000 </r>
       <r>    -4.5705     0.0000   614.0000 </r>
       <r>    -4.4574     0.0000   614.0000 </r>
       <r>    -4.3444     0.0000   614.0000 </r>
       <r>    -4.2313     0.0000   614.0000 </r>
       <r>    -4.1182     0.0000   614.0000 </r>
       <r>    -4.0052     0.0000   614.0000 </r>
       <r>    -3.8921     0.0000   614.0000 </r>
       <r>    -3.7790     0.0000   614.0000 </r>
       <r>    -3.6660     0.0000   614.0000 </r>
       <r>    -3.5529     0.0000   614.0000 </r>
       <r>    -3.4398     0.0000   614.0000 </r>
       <r>    -3.3268     0.1765   614.0200 </r>
       <r>    -3.2137     6.1207   614.7120 </r>
       <r>    -3.1006    11.7956   616.0457 </r>
       <r>    -2.9876    21.5198   618.4789 </r>
       <r>    -2.8745    21.8071   620.9445 </r>
       <r>    -2.7614    36.3782   625.0577 </r>
       <r>    -2.6484    37.4933   629.2969 </r>
       <r>    -2.5353    43.4969   634.2149 </r>
       <r>    -2.4222    47.8848   639.6291 </r>
       <r>    -2.3092    43.2897   644.5237 </r>
       <r>    -2.1961    65.2201   651.8979 </r>
       <r>    -2.0830    52.4970   657.8335 </r>
       <r>    -1.9700    35.9463   661.8979 </r>
       <r>    -1.8569    60.6248   668.7525 </r>
       <r>    -1.7438    47.0925   674.0771 </r>
       <r>    -1.6308    31.9938   677.6945 </r>
       <r>    -1.5177    35.4169   681.6990 </r>
       <r>    -1.4046    28.0497   684.8704 </r>
       <r>    -1.2916    35.9210   688.9319 </r>
       <r>    -1.1785    33.0414   692.6678 </r>
       <r>    -1.0654    36.5854   696.8043 </r>
       <r>    -0.9524    35.8663   700.8596 </r>
       <r>    -0.8393    44.7382   705.9180 </r>
       <r>    -0.7262    36.8290   710.0821 </r>
       <r>    -0.6132    42.1680   714.8499 </r>
       <r>    -0.5001    38.0021   719.1467 </r>
       <r>    -0.3870    44.8920   724.2224 </r>
       <r>    -0.2740    42.1932   728.9931 </r>
       <r>    -0.1609    39.7851   733.4914 </r>
       <r>    -0.0478    49.0947   739.0424 </r>
       <r>     0.0652    61.0589   745.9461 </r>
       <r>     0.1783    77.3533   754.6922 </r>
       <r>     0.2914    67.8092   762.3591 </r>
       <r>     0.4044    67.4297   769.9831 </r>
       <r>     0.5175    65.5332   777.3927 </r>
       <r>     0.6306    63.4976   784.5722 </r>
       <r>     0.7436    61.3778   791.5119 </r>
       <r>     0.8567    63.7550   798.7205 </r>
       <r>     0.9698    72.5160   806.9196 </r>
       <r>     1.0828    80.9200   816.0690 </r>
       <r>     1.1959    78.7339   824.9711 </r>
       <r>     1.3090    75.6262   833.5219 </r>
       <r>     1.4220    65.7175   840.9523 </r>
       <r>     1.5351    74.3365   849.3573 </r>
       <r>     1.6482    73.5628   857.6748 </r>
       <r>     1.7612    82.2813   866.9780 </r>
       <r>     1.8743    87.0692   876.8226 </r>
       <r>     1.9874    69.5991   884.6919 </r>
       <r>     2.1004    60.4581   891.5277 </r>
       <r>     2.2135    62.6953   898.6165 </r>
       <r>     2.3266    88.5058   908.6235 </r>
       <r>     2.4396    98.3733   919.7462 </r>
       <r>     2.5527    84.7954   929.3337 </r>
       <r>     2.6658    98.5836   940.4802 </r>
       <r>     2.7788    98.3121   951.5960 </r>
       <r>     2.8919   109.7159   964.0012 </r>
       <r>     3.0050   109.3263   976.3623 </r>
       <r>     3.1180   128.2676   990.8651 </r>
       <r>     3.2311   116.3086  1004.0157 </r>
       <r>     3.3442    91.7912  1014.3942 </r>
       <r>     3.4572    68.4337  1022.1317 </r>
       <r>     3.5703    48.8097  1027.6504 </r>
       <r>     3.6834    40.8257  1032.2665 </r>
       <r>     3.7964    47.6320  1037.6520 </r>
       <r>     3.9095     3.0861  1038.0010 </r>
       <r>     4.0226     1.6279  1038.1850 </r>
       <r>     4.1356     9.4018  1039.2481 </r>
       <r>     4.2487     6.6217  1039.9968 </r>
       <r>     4.3618     0.0287  1040.0000 </r>
       <r>     4.4748     0.0000  1040.0000 </r>
       <r>     4.5879     0.0000  1040.0000 </r>
       <r>     4.7010     0.0000  1040.0000 </r>
       <r>     4.8140     0.0000  1040.0000 </r>
       <r>     4.9271     0.0000  1040.0000 </r>
       <r>     5.0402     0.0000  1040.0000 </r>
       <r>     5.1532     0.0000  1040.0000 </r>
       <r>     5.2663     0.0000  1040.0000 </r>
       <r>     5.3794     0.0000  1040.0000 </r>
       <r>     5.4924     0.0000  1040.0000 </r>
       <r>     5.6055     0.0000  1040.0000 </r>
       <r>     5.7186     0.0000  1040.0000 </r>
       <r>     5.8316     0.0000  1040.0000 </r>
       <r>     5.9447     0.0000  1040.0000 </r>
       <r>     6.0578     0.1025  1040.0116 </r>
       <r>     6.1708     1.9656  1040.2338 </r>
       <r>     6.2839     0.1430  1040.2500 </r>
       <r>     6.3969     0.0000  1040.2500 </r>
       <r>     6.5100     0.0000  1040.2500 </r>
       <r>     6.6231     0.2740  1040.2810 </r>
       <r>     6.7361     1.9754  1040.5043 </r>
       <r>     6.8492     2.1126  1040.7432 </r>
       <r>     6.9623     4.0146  1041.1971 </r>
       <r>     7.0753     2.0546  1041.4294 </r>
       <r>     7.1884     2.6567  1041.7298 </r>
       <r>     7.3015     5.5210  1042.3541 </r>
       <r>     7.4145     3.9714  1042.8031 </r>
       <r>     7.5276     6.0669  1043.4890 </r>
       <r>     7.6407     4.3863  1043.9850 </r>
       <r>     7.7537     8.6716  1044.9655 </r>
       <r>     7.8668     3.7823  1045.3931 </r>
       <r>     7.9799     5.2280  1045.9842 </r>
       <r>     8.0929     3.0268  1046.3264 </r>
       <r>     8.2060     7.0112  1047.1192 </r>
       <r>     8.3191     7.5171  1047.9691 </r>
       <r>     8.4321    15.1741  1049.6848 </r>
       <r>     8.5452    12.1148  1051.0546 </r>
       <r>     8.6583    12.4220  1052.4591 </r>
       <r>     8.7713     9.2160  1053.5011 </r>
       <r>     8.8844    11.8922  1054.8457 </r>
       <r>     8.9975    11.7282  1056.1718 </r>
       <r>     9.1105    14.2654  1057.7847 </r>
       <r>     9.2236    16.4797  1059.6480 </r>
       <r>     9.3367    23.7409  1062.3323 </r>
       <r>     9.4497    28.7704  1065.5853 </r>
       <r>     9.5628    28.2605  1068.7806 </r>
       <r>     9.6759    34.0647  1072.6321 </r>
       <r>     9.7889    49.8211  1078.2652 </r>
       <r>     9.9020    38.9214  1082.6659 </r>
       <r>    10.0151    37.0178  1086.8514 </r>
       <r>    10.1281    31.4968  1090.4126 </r>
       <r>    10.2412    37.2161  1094.6205 </r>
       <r>    10.3543    32.7659  1098.3252 </r>
       <r>    10.4673    30.7226  1101.7989 </r>
       <r>    10.5804    37.8885  1106.0828 </r>
       <r>    10.6935    29.9438  1109.4685 </r>
       <r>    10.8065    37.7495  1113.7367 </r>
       <r>    10.9196    34.0649  1117.5883 </r>
       <r>    11.0327    36.7734  1121.7461 </r>
       <r>    11.1457    43.9941  1126.7204 </r>
       <r>    11.2588    37.0952  1130.9146 </r>
       <r>    11.3719    32.4787  1134.5868 </r>
       <r>    11.4849    34.1306  1138.4459 </r>
       <r>    11.5980    44.2353  1143.4474 </r>
       <r>    11.7111    29.7337  1146.8093 </r>
       <r>    11.8241    15.0064  1148.5060 </r>
       <r>    11.9372    20.4431  1150.8174 </r>
       <r>    12.0503    23.7507  1153.5028 </r>
       <r>    12.1633    27.9619  1156.6644 </r>
       <r>    12.2764    35.0056  1160.6223 </r>
       <r>    12.3895    35.6771  1164.6562 </r>
       <r>    12.5025    48.1933  1170.1053 </r>
       <r>    12.6156    37.5692  1174.3531 </r>
       <r>    12.7287    40.6621  1178.9506 </r>
       <r>    12.8417    41.6009  1183.6543 </r>
       <r>    12.9548    37.4419  1187.8877 </r>
       <r>    13.0679    29.9728  1191.2766 </r>
       <r>    13.1809    40.2447  1195.8269 </r>
       <r>    13.2940    43.3603  1200.7295 </r>
       <r>    13.4071    47.8507  1206.1398 </r>
       <r>    13.5201    41.0823  1210.7848 </r>
       <r>    13.6332    35.3070  1214.7769 </r>
       <r>    13.7463    35.5354  1218.7947 </r>
       <r>    13.8593    35.5806  1222.8177 </r>
       <r>    13.9724    34.2502  1226.6903 </r>
       <r>    14.0855    31.7265  1230.2775 </r>
       <r>    14.1985    25.7999  1233.1946 </r>
       <r>    14.3116    34.1741  1237.0585 </r>
       <r>    14.4247    39.7205  1241.5496 </r>
       <r>    14.5377    38.9997  1245.9591 </r>
       <r>    14.6508    28.7710  1249.2122 </r>
       <r>    14.7639     6.8957  1249.9918 </r>
       <r>    14.8769     0.0722  1250.0000 </r>
       <r>    14.9900     0.0000  1250.0000 </r>
       <r>    15.1031     0.0000  1250.0000 </r>
       <r>    15.2161     0.0000  1250.0000 </r>
       <r>    15.3292     0.0000  1250.0000 </r>
       <r>    15.4423     0.0000  1250.0000 </r>
       <r>    15.5553     0.0000  1250.0000 </r>
       <r>    15.6684     0.0000  1250.0000 </r>
       <r>    15.7815     0.0000  1250.0000 </r>
       <r>    15.8945     0.0000  1250.0000 </r>
       <r>    16.0076     0.0000  1250.0000 </r>
       <r>    16.1207     0.0000  1250.0000 </r>
       <r>    16.2337     0.0000  1250.0000 </r>
      </set>
     </set>
    </array>
   </total>
  </dos>
 </calculation>
 <structure name="finalpos" >
  <crystal>
   <varray name="basis" >
    <v>       0.00000000      12.28047342       0.00000000 </v>
    <v>       9.14270205       0.00000000       0.00000000 </v>
    <v>       0.00000000      -2.76826177     -11.30069772 </v>
   </varray>
   <i name="volume">   1268.80515525 </i>
   <varray name="rec_basis" >
    <v>       0.00000000       0.08143009      -0.01994742 </v>
    <v>       0.10937686      -0.00000000       0.00000000 </v>
    <v>       0.00000000       0.00000000      -0.08849011 </v>
   </varray>
  </crystal>
  <varray name="positions" >
   <v>       0.65682255      -0.00000000       0.15587234 </v>
   <v>       0.66050280      -0.00000000       0.65696829 </v>
   <v>       0.65856673       0.33305875       0.15785831 </v>
   <v>       0.66064973       0.33346769       0.65673483 </v>
   <v>       0.65856673       0.66694125       0.15785831 </v>
   <v>       0.66064973       0.66653231       0.65673483 </v>
   <v>       0.83857518       0.16357439       0.34178553 </v>
   <v>       0.84118771       0.16642315       0.84405648 </v>
   <v>       0.84363971       0.50000000       0.34323002 </v>
   <v>       0.84056778       0.50000000       0.84346049 </v>
   <v>       0.83857518       0.83642561       0.34178553 </v>
   <v>       0.84118771       0.83357685       0.84405648 </v>
   <v>       0.59089909       0.16710913       0.39867719 </v>
   <v>       0.59296747       0.16677628       0.89832987 </v>
   <v>       0.59063110       0.50000000       0.39811751 </v>
   <v>       0.59289749       0.50000000       0.89878614 </v>
   <v>       0.59089909       0.83289087       0.39867719 </v>
   <v>       0.59296747       0.83322372       0.89832987 </v>
   <v>       0.90965338      -0.00000000       0.10318880 </v>
   <v>       0.90831525      -0.00000000       0.60281283 </v>
   <v>       0.90795363       0.33389951       0.10145927 </v>
   <v>       0.91072572       0.33300183       0.60399302 </v>
   <v>       0.90795363       0.66610049       0.10145927 </v>
   <v>       0.91072572       0.66699817       0.60399302 </v>
   <v>       0.15732697       0.17071049       0.15626192 </v>
   <v>       0.15910536       0.17514756       0.66802125 </v>
   <v>       0.15859865       0.50000000       0.15846921 </v>
   <v>       0.16051428       0.50000000       0.65742403 </v>
   <v>       0.15732697       0.82928951       0.15626192 </v>
   <v>       0.15910536       0.82485244       0.66802125 </v>
   <v>       0.34274499      -0.00000000       0.34658800 </v>
   <v>       0.34360687      -0.00000000       0.84428083 </v>
   <v>       0.34020072       0.33340396       0.34591442 </v>
   <v>       0.34332032       0.33452603       0.84730070 </v>
   <v>       0.34020072       0.66659604       0.34591442 </v>
   <v>       0.34332032       0.66547397       0.84730070 </v>
   <v>       0.09236830      -0.00000000       0.90062018 </v>
   <v>       0.09246348       0.32916263       0.39974992 </v>
   <v>       0.09055110       0.33419847       0.90021988 </v>
   <v>       0.09246348       0.67083737       0.39974992 </v>
   <v>       0.09055110       0.66580153       0.90021988 </v>
   <v>       0.40661365       0.16633237       0.10409236 </v>
   <v>       0.41117529       0.16702533       0.60363976 </v>
   <v>       0.40867671       0.50000000       0.10569121 </v>
   <v>       0.40979577       0.50000000       0.60395864 </v>
   <v>       0.40661365       0.83366763       0.10409236 </v>
   <v>       0.41117529       0.83297467       0.60363976 </v>
   <v>       0.99625178       0.16765596       0.12890124 </v>
   <v>       0.99886083       0.16440332       0.62361770 </v>
   <v>       0.99628722       0.50000000       0.12697919 </v>
   <v>       0.99841970       0.50000000       0.62876964 </v>
   <v>       0.99625178       0.83234404       0.12890124 </v>
   <v>       0.99886083       0.83559668       0.62361770 </v>
   <v>       0.50380630      -0.00000000       0.37413086 </v>
   <v>       0.50501002      -0.00000000       0.87366029 </v>
   <v>       0.50236970       0.33328543       0.37378490 </v>
   <v>       0.50458276       0.33316467       0.87354082 </v>
   <v>       0.50236970       0.66671457       0.37378490 </v>
   <v>       0.50458276       0.66683533       0.87354082 </v>
   <v>       0.67181070       0.16678144       0.28084974 </v>
   <v>       0.67330681       0.16652490       0.78030457 </v>
   <v>       0.67486049       0.50000000       0.28258327 </v>
   <v>       0.67297849       0.50000000       0.78003508 </v>
   <v>       0.67181070       0.83321856       0.28084974 </v>
   <v>       0.67330681       0.83347510       0.78030457 </v>
   <v>       0.82774055      -0.00000000       0.22058764 </v>
   <v>       0.82882803      -0.00000000       0.72067600 </v>
   <v>       0.83036187       0.33032547       0.22186319 </v>
   <v>       0.82910766       0.33275673       0.72033710 </v>
   <v>       0.83036187       0.66967453       0.22186319 </v>
   <v>       0.82910766       0.66724327       0.72033710 </v>
   <v>       0.83242823      -0.00000000       0.44564958 </v>
   <v>       0.83277644      -0.00000000       0.94683403 </v>
   <v>       0.84200941       0.32981784       0.44484316 </v>
   <v>       0.83082374       0.33322324       0.94560336 </v>
   <v>       0.84200941       0.67018216       0.44484316 </v>
   <v>       0.83082374       0.66677676       0.94560336 </v>
   <v>       0.66858889       0.16680346       0.05550678 </v>
   <v>       0.67016371       0.16696648       0.55435098 </v>
   <v>       0.66902181       0.50000000       0.05639708 </v>
   <v>       0.67123951       0.50000000       0.55373749 </v>
   <v>       0.66858889       0.83319654       0.05550678 </v>
   <v>       0.67016371       0.83303352       0.55435098 </v>
   <v>       0.49471903      -0.00000000       0.12845182 </v>
   <v>       0.49806223      -0.00000000       0.62754328 </v>
   <v>       0.49541979       0.33237565       0.12941657 </v>
   <v>       0.49777716       0.33375776       0.62752798 </v>
   <v>       0.49541979       0.66762435       0.12941657 </v>
   <v>       0.49777716       0.66624224       0.62752798 </v>
   <v>       0.01666230       0.14090449       0.37442049 </v>
   <v>       0.00449403       0.16658938       0.87288174 </v>
   <v>       0.00717754       0.50000000       0.37358883 </v>
   <v>       0.00300238       0.50000000       0.87407192 </v>
   <v>       0.01666230       0.85909551       0.37442049 </v>
   <v>       0.00449403       0.83341062       0.87288174 </v>
   <v>       0.16211394      -0.00000000       0.29371646 </v>
   <v>       0.17094122      -0.00000000       0.77625034 </v>
   <v>       0.17103033       0.33165344       0.28116755 </v>
   <v>       0.17366092       0.33581644       0.78386097 </v>
   <v>       0.17103033       0.66834656       0.28116755 </v>
   <v>       0.17366092       0.66418356       0.78386097 </v>
   <v>       0.32384630       0.16282172       0.22215234 </v>
   <v>       0.32577062       0.16312310       0.71781965 </v>
   <v>       0.32637267       0.50000000       0.22251331 </v>
   <v>       0.32782949       0.50000000       0.72112779 </v>
   <v>       0.32384630       0.83717828       0.22215234 </v>
   <v>       0.32577062       0.83687690       0.71781965 </v>
   <v>       0.33065452       0.16552614       0.44796600 </v>
   <v>       0.33069427       0.16577033       0.94602960 </v>
   <v>       0.32950112       0.50000000       0.44801665 </v>
   <v>       0.33306910       0.50000000       0.94844429 </v>
   <v>       0.33065452       0.83447386       0.44796600 </v>
   <v>       0.33069427       0.83422967       0.94602960 </v>
   <v>       0.16593165      -0.00000000       0.06004126 </v>
   <v>       0.16987046       0.33466272       0.05559861 </v>
   <v>       0.16756820       0.33009195       0.55606107 </v>
   <v>       0.16987046       0.66533728       0.05559861 </v>
   <v>       0.16756820       0.66990805       0.55606107 </v>
   <v>       0.10213498      -0.00000000       0.40633080 </v>
  </varray>
 </structure>
</modeling>
