 running    4 mpi-ranks, on    1 nodes
 distrk:  each k-point on    1 cores,    4 groups
 distr:  one band on    1 cores,    1 groups
 OpenACC runtime initialized ...    4 GPUs detected
 vasp.6.4.2 20Jul23 (build Nov 12 2023 22:16:35) complex                         
 POSCAR found type information on POSCAR O 
 POSCAR found :  1 types and       2 ions
 -----------------------------------------------------------------------------
|                                                                             |
|           W    W    AA    RRRRR   N    N  II  N    N   GGGG   !!!           |
|           W    W   A  A   R    R  NN   N  II  NN   N  G    G  !!!           |
|           W    W  A    A  R    R  N N  N  II  N N  N  G       !!!           |
|           W WW W  AAAAAA  RRRRR   N  N N  II  N  N N  G  GGG   !            |
|           WW  WW  A    A  R   R   N   NN  II  N   NN  G    G                |
|           W    W  A    A  R    R  N    N  II  N    N   GGGG   !!!           |
|                                                                             |
|     You use a magnetic or noncollinear calculation, but did not specify     |
|     the initial magnetic moment with the MAGMOM tag. Note that a            |
|     default of 1 will be used for all atoms. This ferromagnetic setup       |
|     may break the symmetry of the crystal, in particular it may rule        |
|     out finding an antiferromagnetic solution. Thence, we recommend         |
|     setting the initial magnetic moment manually or verifying carefully     |
|     that this magnetic setup is desired.                                    |
|                                                                             |
 -----------------------------------------------------------------------------

 scaLAPACK will be used selectively (only on CPU)
 WARNING: type information on POSCAR and POTCAR are incompatible
 POTCAR overwrites the type information in POSCAR
 typ   1 type information:  O  N 
 -----------------------------------------------------------------------------
|                                                                             |
|               ----> ADVICE to this user running VASP <----                  |
|                                                                             |
|     You have a (more or less) 'small supercell' and for smaller cells       |
|     it is recommended to use the reciprocal-space projection scheme!        |
|     The real-space optimization is not efficient for small cells and it     |
|     is also less accurate ...                                               |
|     Therefore, set LREAL=.FALSE. in the INCAR file.                         |
|                                                                             |
 -----------------------------------------------------------------------------

 LDA part: xc-table for Pade appr. of Perdew
 POSCAR, INCAR and KPOINTS ok, starting setup
 FFT: planning ... GRIDC
 FFT: planning ... GRID_SOFT
 FFT: planning ... GRID
 WAVECAR not read
 initial charge from wavefunction
 entering main loop
       N       E                     dE             d eps       ncg     rms          ort
DAV:   1    -0.509171134589E+03   -0.50917E+03   -0.95226E+03    80   0.622E+02
DAV:   2    -0.607415788479E+03   -0.98245E+02   -0.97932E+02    80   0.330E+02
DAV:   3    -0.610539645999E+03   -0.31239E+01   -0.31069E+01    80   0.716E+01
DAV:   4    -0.610648442719E+03   -0.10880E+00   -0.10879E+00    80   0.131E+01
DAV:   5    -0.554735346250E+03    0.55913E+02   -0.38920E+00    80   0.207E+01
 gam= 0.000 g(H,U,f)=  0.414E+03 0.132E+03 0.468E-76 ort(H,U,f) = 0.000E+00 0.000E+00 0.000E+00
SDA:   6     0.106707067219E+03    0.66144E+03   -0.38920E+00    80   0.546E+03 0.000E+00
 gam= 0.000 trial= 0.400  step= 0.416 mean= 0.400
 gam= 0.063 g(H,U,f)=  0.277E+02 0.698E+01 0.153-179 ort(H,U,f) =-0.695E+02 0.184E+02 0.269-179
CGA:   7    -0.611690201270E+01   -0.11282E+03   -0.11363E+03    80   0.346E+02-0.510E+02
 gam= 0.063 trial= 0.401  step= 0.539 mean= 0.401
 gam= 0.297 g(H,U,f)=  0.761E+01 0.267E+01 0.841E-46 ort(H,U,f) =-0.507E+00 0.461E+01 0.119E-45
CGA:   8    -0.148453567415E+02   -0.87285E+01   -0.84673E+01    80   0.103E+02 0.410E+01
 gam= 0.297 trial= 0.408  step= 0.446 mean= 0.408
 gam= 0.415 g(H,U,f)=  0.267E+01 0.159E+01 0.264E-69 ort(H,U,f) =-0.846E+00 0.328E+01 0.496E-69
CGA:   9    -0.174390349037E+02   -0.25937E+01   -0.25620E+01    80   0.426E+01 0.243E+01
 gam= 0.415 trial= 0.410  step= 0.568 mean= 0.410
 gam= 0.000 g(H,U,f)=  0.121E+01 0.104E+01 0.540E-34 ort(H,U,f) =-0.713E+00 0.293E+01 0.163E-33
CGA:  10    -0.190985024854E+02   -0.16595E+01   -0.14964E+01    80   0.226E+01 0.222E+01
 gam= 0.000 trial= 0.418  step= 0.616 mean= 0.418
 gam= 0.966 g(H,U,f)=  0.139E+01 0.795E+00 0.412E-40 ort(H,U,f) =-0.891E+00 0.105E+01 0.551E-40
CGA:  11    -0.197965045456E+02   -0.69800E+00   -0.69521E+00    80   0.218E+01 0.160E+00
 gam= 0.966 trial= 0.427  step= 1.021 mean= 0.427
 gam= 0.945 g(H,U,f)=  0.203E+01 0.322E-01 0.253E-60 ort(H,U,f) =-0.997E+00 0.594E+00 0.985E-59
CGA:  12    -0.210336933584E+02   -0.12372E+01   -0.11918E+01    80   0.206E+01-0.403E+00
 gam= 0.945 trial= 0.457  step= 0.180 mean= 0.457
 gam= 0.526 g(H,U,f)=  0.106E+01 0.230E-01 0.203E-50 ort(H,U,f) = 0.704E+00-0.542E+00-0.445E-49
CGA:  13    -0.212038059959E+02   -0.17011E+00   -0.15100E+00    80   0.108E+01 0.163E+00
 gam= 0.526 trial= 0.443  step= 0.162 mean= 0.443
 gam= 0.372 g(H,U,f)=  0.313E+00 0.903E-01 0.461E-16 ort(H,U,f) = 0.632E+00-0.586E+00-0.290E-15
CGA:  14    -0.212900834384E+02   -0.86277E-01   -0.95047E-01    80   0.404E+00 0.460E-01
 gam= 0.372 trial= 0.429  step= 0.200 mean= 0.429
 gam= 0.621 g(H,U,f)=  0.134E+00 0.116E+00 0.122E-30 ort(H,U,f) = 0.161E+00-0.150E+00-0.150E-30
CGA:  15    -0.213302637870E+02   -0.40180E-01   -0.42057E-01    80   0.251E+00 0.111E-01
 gam= 0.621 trial= 0.418  step= 0.252 mean= 0.418
 gam= 0.824 g(H,U,f)=  0.953E-01 0.111E+00 0.347E-10 ort(H,U,f) =-0.128E-01 0.219E-01 0.864E-11
CGA:  16    -0.213622561848E+02   -0.31992E-01   -0.32495E-01    80   0.207E+00 0.917E-02
 gam= 0.824 trial= 0.410  step= 0.261 mean= 0.410
 gam= 0.881 g(H,U,f)=  0.978E-01 0.842E-01 0.434E-43 ort(H,U,f) =-0.103E+00 0.111E+00 0.616E-43
CGA:  17    -0.213899787656E+02   -0.27723E-01   -0.27916E-01    80   0.182E+00 0.862E-02
 gam= 0.881 trial= 0.402  step= 0.294 mean= 0.402
 gam= 1.092 g(H,U,f)=  0.152E+00 0.464E-01 0.164E-25 ort(H,U,f) =-0.124E+00 0.132E+00 0.524E-25
CGA:  18    -0.214175987110E+02   -0.27620E-01   -0.27833E-01    80   0.199E+00 0.743E-02
 gam= 1.092 trial= 0.397  step= 0.301 mean= 0.397
 gam= 0.996 g(H,U,f)=  0.185E+00 0.131E-01 0.154E-14 ort(H,U,f) =-0.863E-01 0.889E-01 0.158E-13
CGA:  19    -0.214485734698E+02   -0.30975E-01   -0.31097E-01    80   0.198E+00 0.260E-02
 gam= 0.996 trial= 0.392  step= 0.244 mean= 0.392
 gam= 0.709 g(H,U,f)=  0.137E+00 0.355E-02 0.445E-17 ort(H,U,f) = 0.953E-03-0.153E-03-0.744E-15
CGA:  20    -0.214729925295E+02   -0.24419E-01   -0.24473E-01    80   0.140E+00 0.800E-03
 gam= 0.709 trial= 0.384  step= 0.205 mean= 0.384
 gam= 0.615 g(H,U,f)=  0.789E-01 0.736E-02 0.376E-12 ort(H,U,f) = 0.442E-01-0.398E-01-0.461E-11
CGA:  21    -0.214870155065E+02   -0.14023E-01   -0.14472E-01    80   0.862E-01 0.442E-02
 gam= 0.615 trial= 0.376  step= 0.202 mean= 0.376
 gam= 0.641 g(H,U,f)=  0.435E-01 0.118E-01 0.854E-28 ort(H,U,f) = 0.329E-01-0.290E-01-0.392E-27
CGA:  22    -0.214956746944E+02   -0.86592E-02   -0.90065E-02    80   0.553E-01 0.389E-02
 gam= 0.641 trial= 0.367  step= 0.221 mean= 0.367
 gam= 0.737 g(H,U,f)=  0.272E-01 0.135E-01 0.688E-18 ort(H,U,f) = 0.122E-01-0.963E-02-0.119E-17
CGA:  23    -0.215018669302E+02   -0.61922E-02   -0.63777E-02    80   0.407E-01 0.256E-02
 gam= 0.737 trial= 0.360  step= 0.246 mean= 0.360
 gam= 0.819 g(H,U,f)=  0.209E-01 0.124E-01 0.177E-19 ort(H,U,f) =-0.310E-02 0.460E-02-0.477E-20
CGA:  24    -0.215070242366E+02   -0.51573E-02   -0.52410E-02    80   0.334E-01 0.150E-02
 gam= 0.819 trial= 0.354  step= 0.258 mean= 0.354
 gam= 0.836 g(H,U,f)=  0.186E-01 0.928E-02 0.538E-28 ort(H,U,f) =-0.118E-01 0.125E-01 0.446E-28
CGA:  25    -0.215114598953E+02   -0.44357E-02   -0.44629E-02    80   0.279E-01 0.691E-03
 gam= 0.836 trial= 0.349  step= 0.271 mean= 0.349
 gam= 0.888 g(H,U,f)=  0.192E-01 0.559E-02 0.319E-36 ort(H,U,f) =-0.134E-01 0.138E-01 0.630E-36
CGA:  26    -0.215153123256E+02   -0.38524E-02   -0.38605E-02    80   0.248E-01 0.345E-03
 gam= 0.888 trial= 0.345  step= 0.281 mean= 0.345
 gam= 0.873 g(H,U,f)=  0.190E-01 0.259E-02 0.386E-18 ort(H,U,f) =-0.989E-02 0.102E-01 0.145E-17
CGA:  27    -0.215188230340E+02   -0.35107E-02   -0.35195E-02    80   0.216E-01 0.309E-03
 gam= 0.873 trial= 0.342  step= 0.274 mean= 0.342
 gam= 0.787 g(H,U,f)=  0.160E-01 0.105E-02 0.760E-52 ort(H,U,f) =-0.379E-02 0.411E-02 0.587E-51
CGA:  28    -0.215218142760E+02   -0.29912E-02   -0.30016E-02    80   0.170E-01 0.320E-03
 gam= 0.787 trial= 0.339  step= 0.259 mean= 0.339
 gam= 0.759 g(H,U,f)=  0.122E-01 0.758E-03 0.144E-58 ort(H,U,f) = 0.108E-02-0.712E-03 0.464E-57
CGA:  29    -0.215240376007E+02   -0.22233E-02   -0.22351E-02    80   0.129E-01 0.368E-03
 gam= 0.759 trial= 0.335  step= 0.243 mean= 0.335
 gam= 0.743 g(H,U,f)=  0.857E-02 0.103E-02 0.213E-28 ort(H,U,f) = 0.294E-02-0.253E-02-0.292E-27
CGA:  30    -0.215256250474E+02   -0.15874E-02   -0.16032E-02    80   0.960E-02 0.411E-03
 gam= 0.743 trial= 0.330  step= 0.238 mean= 0.330
 gam= 0.717 g(H,U,f)=  0.550E-02 0.138E-02 0.809E-12 ort(H,U,f) = 0.250E-02-0.212E-02-0.362E-11
CGA:  31    -0.215267883607E+02   -0.11633E-02   -0.11794E-02    80   0.688E-02 0.377E-03
 gam= 0.717 trial= 0.325  step= 0.253 mean= 0.325
 gam= 0.744 g(H,U,f)=  0.360E-02 0.152E-02 0.256E-82 ort(H,U,f) = 0.950E-03-0.664E-03-0.447E-82
CGA:  32    -0.215276828472E+02   -0.89449E-03   -0.90495E-03    80   0.512E-02 0.287E-03
 gam= 0.744 trial= 0.322  step= 0.269 mean= 0.322
 gam= 0.776 g(H,U,f)=  0.258E-02 0.139E-02 0.352E-12 ort(H,U,f) =-0.501E-03 0.686E-03-0.103E-12
CGA:  33    -0.215283960879E+02   -0.71324E-03   -0.71825E-03    80   0.397E-02 0.185E-03
 gam= 0.776 trial= 0.319  step= 0.286 mean= 0.319
 gam= 0.809 g(H,U,f)=  0.217E-02 0.104E-02 0.891E-15 ort(H,U,f) =-0.134E-02 0.144E-02 0.779E-15
CGA:  34    -0.215289826473E+02   -0.58656E-03   -0.58828E-03    80   0.322E-02 0.105E-03
 gam= 0.809 trial= 0.317  step= 0.301 mean= 0.317
 gam= 0.900 g(H,U,f)=  0.227E-02 0.619E-03 0.538E-15 ort(H,U,f) =-0.142E-02 0.147E-02 0.122E-14
CGA:  35    -0.215294783548E+02   -0.49571E-03   -0.49608E-03    80   0.289E-02 0.487E-04
 gam= 0.900 trial= 0.317  step= 0.291 mean= 0.317
 gam= 0.911 g(H,U,f)=  0.235E-02 0.288E-03 0.159E-22 ort(H,U,f) =-0.951E-03 0.962E-03 0.793E-22
CGA:  36    -0.215299060637E+02   -0.42771E-03   -0.42776E-03    80   0.264E-02 0.117E-04
 gam= 0.911 trial= 0.315  step= 0.261 mean= 0.315
 gam= 0.826 g(H,U,f)=  0.203E-02 0.146E-03 0.334E-16 ort(H,U,f) =-0.188E-03 0.188E-03-0.656E-16
CGA:  37    -0.215302521471E+02   -0.34608E-03   -0.34580E-03    80   0.218E-02 0.220E-07
 gam= 0.826 trial= 0.313  step= 0.234 mean= 0.313
 gam= 0.757 g(H,U,f)=  0.150E-02 0.149E-03 0.101E-16 ort(H,U,f) = 0.360E-03-0.354E-03-0.919E-15
CGA:  38    -0.215305067499E+02   -0.25460E-03   -0.25460E-03    80   0.165E-02 0.595E-05
 gam= 0.757 trial= 0.309  step= 0.224 mean= 0.309
 gam= 0.724 g(H,U,f)=  0.994E-03 0.199E-03 0.459E-18 ort(H,U,f) = 0.459E-03-0.448E-03-0.469E-17
CGA:  39    -0.215306912960E+02   -0.18455E-03   -0.18492E-03    80   0.119E-02 0.109E-04
 gam= 0.724 trial= 0.304  step= 0.241 mean= 0.304
 gam= 0.776 g(H,U,f)=  0.689E-03 0.237E-03 0.322E-20 ort(H,U,f) = 0.281E-03-0.269E-03-0.130E-19
CGA:  40    -0.215308359031E+02   -0.14461E-03   -0.14495E-03    80   0.926E-03 0.121E-04
 gam= 0.776 trial= 0.301  step= 0.260 mean= 0.301
 gam= 0.000 g(H,U,f)=  0.509E-03 0.241E-03 0.389E-22 ort(H,U,f) = 0.561E-04-0.445E-04-0.675E-22
SDA:  41    -0.215309571059E+02   -0.12120E-03   -0.12142E-03    80   0.750E-03 0.117E-04
 gam= 0.000 trial= 0.299  step= 1.132 mean= 0.299
 gam= 0.499 g(H,U,f)=  0.298E-03 0.763E-04 0.405E-21 ort(H,U,f) =-0.132E-03 0.134E-03 0.649E-21
CGA:  42    -0.215313820694E+02   -0.42496E-03   -0.42449E-03    80   0.374E-03 0.173E-05
 gam= 0.499 trial= 0.341  step= 0.858 mean= 0.341
 gam= 0.255 g(H,U,f)=  0.861E-04 0.952E-05 0.278E-20 ort(H,U,f) =-0.472E-04 0.496E-04 0.189E-19
CGA:  43    -0.215315437437E+02   -0.16167E-03   -0.16105E-03    80   0.957E-04 0.236E-05
 gam= 0.255 trial= 0.367  step= 0.812 mean= 0.367
 gam= 0.232 g(H,U,f)=  0.216E-04 0.614E-06 0.435E-22 ort(H,U,f) =-0.512E-05 0.509E-05-0.179E-20
CGA:  44    -0.215315828372E+02   -0.39094E-04   -0.39100E-04    80   0.222E-04-0.310E-07
 gam= 0.232 trial= 0.389  step= 0.951 mean= 0.389
 gam= 0.318 g(H,U,f)=  0.703E-05 0.262E-07 0.114E-21 ort(H,U,f) =-0.295E-06-0.277E-06-0.500E-21
CGA:  45    -0.215315932365E+02   -0.10399E-04   -0.10560E-04    80   0.706E-05-0.572E-06
 gam= 0.318 trial= 0.417  step= 0.946 mean= 0.417
 gam= 0.398 g(H,U,f)=  0.269E-05 0.126E-06 0.155E-21 ort(H,U,f) = 0.566E-07-0.208E-06-0.567E-22
CGA:  46    -0.215315964502E+02   -0.32138E-05   -0.32538E-05    80   0.281E-05-0.152E-06
 gam= 0.398 trial= 0.444  step= 1.114 mean= 0.444
 final diagonalization
   1 F= -.21531596E+02 E0= -.21531596E+02  d E =-.679079E-23  mag=    -0.0000
 writing wavefunctions
Warning: ieee_invalid is signaling
Warning: ieee_divide_by_zero is signaling
Warning: ieee_underflow is signaling
Warning: ieee_inexact is signaling
FORTRAN STOP
Warning: ieee_invalid is signaling
Warning: ieee_divide_by_zero is signaling
Warning: ieee_underflow is signaling
Warning: ieee_inexact is signaling
FORTRAN STOP
Warning: ieee_invalid is signaling
Warning: ieee_divide_by_zero is signaling
Warning: ieee_underflow is signaling
Warning: ieee_inexact is signaling
FORTRAN STOP
Warning: ieee_invalid is signaling
Warning: ieee_divide_by_zero is signaling
Warning: ieee_underflow is signaling
Warning: ieee_inexact is signaling
FORTRAN STOP
