       N       E                     dE             d eps       ncg     rms          ort
DAV:   1    -0.509171134589E+03   -0.50917E+03   -0.95226E+03    80   0.622E+02
DAV:   2    -0.607415788479E+03   -0.98245E+02   -0.97932E+02    80   0.330E+02
DAV:   3    -0.610539645999E+03   -0.31239E+01   -0.31069E+01    80   0.716E+01
DAV:   4    -0.610648442719E+03   -0.10880E+00   -0.10879E+00    80   0.131E+01
DAV:   5    -0.554735346250E+03    0.55913E+02   -0.38920E+00    80   0.207E+01
SDA:   6     0.106707067219E+03    0.66144E+03   -0.38920E+00    80   0.546E+03 0.000E+00
CGA:   7    -0.611690201270E+01   -0.11282E+03   -0.11363E+03    80   0.346E+02-0.510E+02
CGA:   8    -0.148453567415E+02   -0.87285E+01   -0.84673E+01    80   0.103E+02 0.410E+01
CGA:   9    -0.174390349037E+02   -0.25937E+01   -0.25620E+01    80   0.426E+01 0.243E+01
CGA:  10    -0.190985024854E+02   -0.16595E+01   -0.14964E+01    80   0.226E+01 0.222E+01
CGA:  11    -0.197965045456E+02   -0.69800E+00   -0.69521E+00    80   0.218E+01 0.160E+00
CGA:  12    -0.210336933584E+02   -0.12372E+01   -0.11918E+01    80   0.206E+01-0.403E+00
CGA:  13    -0.212038059959E+02   -0.17011E+00   -0.15100E+00    80   0.108E+01 0.163E+00
CGA:  14    -0.212900834384E+02   -0.86277E-01   -0.95047E-01    80   0.404E+00 0.460E-01
CGA:  15    -0.213302637870E+02   -0.40180E-01   -0.42057E-01    80   0.251E+00 0.111E-01
CGA:  16    -0.213622561848E+02   -0.31992E-01   -0.32495E-01    80   0.207E+00 0.917E-02
CGA:  17    -0.213899787656E+02   -0.27723E-01   -0.27916E-01    80   0.182E+00 0.862E-02
CGA:  18    -0.214175987110E+02   -0.27620E-01   -0.27833E-01    80   0.199E+00 0.743E-02
CGA:  19    -0.214485734698E+02   -0.30975E-01   -0.31097E-01    80   0.198E+00 0.260E-02
CGA:  20    -0.214729925295E+02   -0.24419E-01   -0.24473E-01    80   0.140E+00 0.800E-03
CGA:  21    -0.214870155065E+02   -0.14023E-01   -0.14472E-01    80   0.862E-01 0.442E-02
CGA:  22    -0.214956746944E+02   -0.86592E-02   -0.90065E-02    80   0.553E-01 0.389E-02
CGA:  23    -0.215018669302E+02   -0.61922E-02   -0.63777E-02    80   0.407E-01 0.256E-02
CGA:  24    -0.215070242366E+02   -0.51573E-02   -0.52410E-02    80   0.334E-01 0.150E-02
CGA:  25    -0.215114598953E+02   -0.44357E-02   -0.44629E-02    80   0.279E-01 0.691E-03
CGA:  26    -0.215153123256E+02   -0.38524E-02   -0.38605E-02    80   0.248E-01 0.345E-03
CGA:  27    -0.215188230340E+02   -0.35107E-02   -0.35195E-02    80   0.216E-01 0.309E-03
CGA:  28    -0.215218142760E+02   -0.29912E-02   -0.30016E-02    80   0.170E-01 0.320E-03
CGA:  29    -0.215240376007E+02   -0.22233E-02   -0.22351E-02    80   0.129E-01 0.368E-03
CGA:  30    -0.215256250474E+02   -0.15874E-02   -0.16032E-02    80   0.960E-02 0.411E-03
CGA:  31    -0.215267883607E+02   -0.11633E-02   -0.11794E-02    80   0.688E-02 0.377E-03
CGA:  32    -0.215276828472E+02   -0.89449E-03   -0.90495E-03    80   0.512E-02 0.287E-03
CGA:  33    -0.215283960879E+02   -0.71324E-03   -0.71825E-03    80   0.397E-02 0.185E-03
CGA:  34    -0.215289826473E+02   -0.58656E-03   -0.58828E-03    80   0.322E-02 0.105E-03
CGA:  35    -0.215294783548E+02   -0.49571E-03   -0.49608E-03    80   0.289E-02 0.487E-04
CGA:  36    -0.215299060637E+02   -0.42771E-03   -0.42776E-03    80   0.264E-02 0.117E-04
CGA:  37    -0.215302521471E+02   -0.34608E-03   -0.34580E-03    80   0.218E-02 0.220E-07
CGA:  38    -0.215305067499E+02   -0.25460E-03   -0.25460E-03    80   0.165E-02 0.595E-05
CGA:  39    -0.215306912960E+02   -0.18455E-03   -0.18492E-03    80   0.119E-02 0.109E-04
CGA:  40    -0.215308359031E+02   -0.14461E-03   -0.14495E-03    80   0.926E-03 0.121E-04
SDA:  41    -0.215309571059E+02   -0.12120E-03   -0.12142E-03    80   0.750E-03 0.117E-04
CGA:  42    -0.215313820694E+02   -0.42496E-03   -0.42449E-03    80   0.374E-03 0.173E-05
CGA:  43    -0.215315437437E+02   -0.16167E-03   -0.16105E-03    80   0.957E-04 0.236E-05
CGA:  44    -0.215315828372E+02   -0.39094E-04   -0.39100E-04    80   0.222E-04-0.310E-07
CGA:  45    -0.215315932365E+02   -0.10399E-04   -0.10560E-04    80   0.706E-05-0.572E-06
CGA:  46    -0.215315964502E+02   -0.32138E-05   -0.32538E-05    80   0.281E-05-0.152E-06
   1 F= -.21531596E+02 E0= -.21531596E+02  d E =-.679079E-23  mag=    -0.0000
