<?xml version="1.0" encoding="ISO-8859-1"?>
<modeling>
 <generator>
  <i name="program" type="string">vasp </i>
  <i name="version" type="string">6.4.2  </i>
  <i name="subversion" type="string">20Jul23 (build Nov 12 2023 22:16:35) complex                          parallel </i>
  <i name="platform" type="string">LinuxNV </i>
  <i name="date" type="string">2025 03 21 </i>
  <i name="time" type="string">23:25:59 </i>
 </generator>
 <incar>
  <i type="int" name="ISTART">     0</i>
  <i type="string" name="PREC">Normal</i>
  <i type="string" name="ALGO">All</i>
  <i type="int" name="ISPIN">     2</i>
  <i type="int" name="ICHARG">     0</i>
  <i type="int" name="NELM">   500</i>
  <i type="int" name="IBRION">    -1</i>
  <i name="EDIFF">      0.00001000</i>
  <i name="EDIFFG">     -0.00500000</i>
  <i type="int" name="NSW">     0</i>
  <i type="int" name="ISIF">     2</i>
  <i name="ENCUT">    450.00000000</i>
  <i type="string" name="LREAL">Auto</i>
  <i type="logical" name="LPLANE"> T  </i>
  <i name="TIME">      0.40000000</i>
  <i type="int" name="ISMEAR">     0</i>
  <i name="SIGMA">      0.01000000</i>
  <i type="logical" name="LWAVE"> T  </i>
  <i type="logical" name="LCHARG"> T  </i>
  <i name="HFSCREEN">      0.20000000</i>
  <i type="logical" name="LHFCALC"> T  </i>
  <i type="int" name="LMAXFOCK">     4</i>
  <i name="AEXX">      0.32000000</i>
  <i type="string" name="PRECFOCK">Fast</i>
 </incar>
 <primitive_cell>
  <structure name="primitive_cell" >
   <crystal>
    <varray name="basis" >
     <v>       7.50000000       0.00000000       0.00000000 </v>
     <v>       0.00000000       8.00000000       0.00000000 </v>
     <v>       0.00000000       0.00000000       8.90000000 </v>
    </varray>
    <i name="volume">    534.00000000 </i>
    <varray name="rec_basis" >
     <v>       0.13333333       0.00000000       0.00000000 </v>
     <v>       0.00000000       0.12500000       0.00000000 </v>
     <v>       0.00000000       0.00000000       0.11235955 </v>
    </varray>
   </crystal>
   <varray name="positions" >
    <v>       0.00000000       0.00000000       0.99916932 </v>
    <v>       0.00000000       0.00000000       0.12442618 </v>
   </varray>
  </structure>
  <varray name="primitive_index" >
   <v type="int" >        1 </v>
   <v type="int" >        2 </v>
  </varray>
 </primitive_cell>
 <kpoints>
  <generation param="Gamma">
   <v type="int" name="divisions">       2        2        2 </v>
   <v name="usershift">      0.00000000       0.00000000       0.00000000 </v>
   <v name="genvec1">      0.50000000       0.00000000       0.00000000 </v>
   <v name="genvec2">      0.00000000       0.50000000       0.00000000 </v>
   <v name="genvec3">      0.00000000       0.00000000       0.50000000 </v>
   <v name="shift">      0.00000000       0.00000000       0.00000000 </v>
  </generation>
  <varray name="kpointlist" >
   <v>       0.00000000       0.00000000       0.00000000 </v>
   <v>       0.50000000       0.00000000       0.00000000 </v>
   <v>       0.00000000       0.50000000       0.00000000 </v>
   <v>       0.50000000       0.50000000       0.00000000 </v>
   <v>       0.00000000       0.00000000       0.50000000 </v>
   <v>       0.50000000       0.00000000       0.50000000 </v>
   <v>       0.00000000       0.50000000       0.50000000 </v>
   <v>       0.50000000       0.50000000       0.50000000 </v>
  </varray>
  <varray name="weights" >
   <v>       0.12500000 </v>
   <v>       0.12500000 </v>
   <v>       0.12500000 </v>
   <v>       0.12500000 </v>
   <v>       0.12500000 </v>
   <v>       0.12500000 </v>
   <v>       0.12500000 </v>
   <v>       0.12500000 </v>
  </varray>
 </kpoints>
 <parameters>
  <separator name="general" >
   <i type="string" name="SYSTEM">unknown system</i>
   <i type="logical" name="LCOMPAT"> F  </i>
  </separator>
  <separator name="electronic" >
   <i type="string" name="PREC">normal</i>
   <i name="ENMAX">    450.00000000</i>
   <i name="ENAUG">    627.11200000</i>
   <i name="EDIFF">      0.00001000</i>
   <i type="int" name="IALGO">    58</i>
   <i type="int" name="IWAVPR">    10</i>
   <i type="int" name="NBANDS">    10</i>
   <i type="int" name="NBANDSLOW">    -1</i>
   <i type="int" name="NBANDSHIGH">    -1</i>
   <i name="NELECT">     10.00000000</i>
   <i type="int" name="TURBO">     0</i>
   <i type="int" name="IRESTART">     0</i>
   <i type="int" name="NREBOOT">     0</i>
   <i type="int" name="NMIN">     0</i>
   <i name="EREF">      0.00000000</i>
   <separator name="electronic smearing" >
    <i type="int" name="ISMEAR">     0</i>
    <i name="SIGMA">      0.01000000</i>
    <i name="KSPACING">      0.50000000</i>
    <i type="logical" name="KGAMMA"> T  </i>
    <i type="logical" name="KBLOWUP"> T  </i>
   </separator>
   <separator name="electronic projectors" >
    <i type="logical" name="LREAL"> T  </i>
    <v name="ROPT">     -0.00050000</v>
    <i type="int" name="LMAXPAW">  -100</i>
    <i type="int" name="LMAXMIX">     2</i>
    <i type="logical" name="NLSPLINE"> F  </i>
   </separator>
   <separator name="electronic startup" >
    <i type="int" name="ISTART">     0</i>
    <i type="int" name="ICHARG">     0</i>
    <i type="int" name="INIWAV">     1</i>
   </separator>
   <separator name="electronic spin" >
    <i type="int" name="ISPIN">     2</i>
    <i type="logical" name="LNONCOLLINEAR"> F  </i>
    <v name="MAGMOM">      1.00000000      1.00000000</v>
    <i name="NUPDOWN">     -1.00000000</i>
    <i type="logical" name="LSORBIT"> F  </i>
    <v name="SAXIS">      0.00000000      0.00000000      1.00000000</v>
    <i type="logical" name="LSPIRAL"> F  </i>
    <v name="QSPIRAL">      0.00000000      0.00000000      0.00000000</v>
    <i type="logical" name="LZEROZ"> F  </i>
   </separator>
   <separator name="electronic exchange-correlation" >
    <i type="logical" name="LASPH"> F  </i>
    <i type="logical" name="LMETAGGA"> F  </i>
   </separator>
   <separator name="electronic convergence" >
    <i type="int" name="NELM">   500</i>
    <i type="int" name="NELMDL">    -5</i>
    <i type="int" name="NELMIN">     2</i>
    <i name="ENINI">    450.00000000</i>
    <separator name="electronic convergence detail" >
     <i type="logical" name="LDIAG"> T  </i>
     <i type="logical" name="LSUBROT"> F  </i>
     <i name="WEIMIN">      0.00000000</i>
     <i name="EBREAK">      0.00000025</i>
     <i name="DEPER">      0.30000000</i>
     <i type="int" name="NRMM">     4</i>
     <i name="TIME">      0.40000000</i>
    </separator>
   </separator>
   <separator name="electronic mixer" >
    <i name="AMIX">      0.40000000</i>
    <i name="BMIX">      1.00000000</i>
    <i name="AMIN">      0.10000000</i>
    <i name="AMIX_MAG">      1.60000000</i>
    <i name="BMIX_MAG">      1.00000000</i>
    <separator name="electronic mixer details" >
     <i type="int" name="IMIX">     4</i>
     <i type="logical" name="MIXFIRST"> F  </i>
     <i type="int" name="MAXMIX">   -45</i>
     <i name="WC">    100.00000000</i>
     <i type="int" name="INIMIX">     1</i>
     <i type="int" name="MIXPRE">     1</i>
     <i type="int" name="MREMOVE">     5</i>
    </separator>
   </separator>
   <separator name="electronic dipolcorrection" >
    <i type="logical" name="LDIPOL"> F  </i>
    <i type="logical" name="LMONO"> F  </i>
    <i type="int" name="IDIPOL">     0</i>
    <i name="EPSILON">      1.00000000</i>
    <v name="DIPOL">   -100.00000000   -100.00000000   -100.00000000</v>
    <i name="EFIELD">      0.00000000</i>
   </separator>
  </separator>
  <separator name="grids" >
   <i type="int" name="NGX">    40</i>
   <i type="int" name="NGY">    42</i>
   <i type="int" name="NGZ">    48</i>
   <i type="int" name="NGXF">    80</i>
   <i type="int" name="NGYF">    84</i>
   <i type="int" name="NGZF">    96</i>
   <i type="logical" name="ADDGRID"> F  </i>
  </separator>
  <separator name="ionic" >
   <i type="int" name="NSW">     0</i>
   <i type="int" name="IBRION">    -1</i>
   <i type="int" name="MDALGO">     0</i>
   <i type="int" name="ISIF">     2</i>
   <i name="PSTRESS">      0.00000000</i>
   <i name="EDIFFG">     -0.00500000</i>
   <i type="int" name="NFREE">     0</i>
   <i name="POTIM">      0.50000000</i>
   <i name="SMASS">     -3.00000000</i>
   <i name="SCALEE">      1.00000000</i>
  </separator>
  <separator name="ionic md" >
   <i name="TEBEG">      0.00010000</i>
   <i name="TEEND">      0.00010000</i>
   <i type="int" name="NBLOCK">     1</i>
   <i type="int" name="KBLOCK">     1</i>
   <i type="int" name="NPACO">   256</i>
   <i name="APACO">     10.00000000</i>
  </separator>
  <separator name="symmetry" >
   <i type="int" name="ISYM">     3</i>
   <i name="SYMPREC">      0.00001000</i>
  </separator>
  <separator name="dos" >
   <i type="int" name="LORBIT">     0</i>
   <v name="RWIGS">     -1.00000000</v>
   <i type="int" name="NEDOS">   301</i>
   <i name="EMIN">     10.00000000</i>
   <i name="EMAX">    -10.00000000</i>
   <i name="EFERMI">      0.00000000</i>
  </separator>
  <separator name="writing" >
   <i type="int" name="NWRITE">     2</i>
   <i type="logical" name="LWAVE"> T  </i>
   <i type="logical" name="LDOWNSAMPLE"> F  </i>
   <i type="logical" name="LCHARG"> T  </i>
   <i type="logical" name="LPARD"> F  </i>
   <i type="logical" name="LVTOT"> F  </i>
   <i type="logical" name="LVHAR"> F  </i>
   <i type="logical" name="LELF"> F  </i>
   <i type="logical" name="LOPTICS"> F  </i>
   <v name="STM">      0.00000000      0.00000000      0.00000000      0.00000000      0.00000000      0.00000000      0.00000000</v>
  </separator>
  <separator name="performance" >
   <i type="int" name="NPAR">     1</i>
   <i type="int" name="NSIM">     4</i>
   <i type="int" name="NBLK">    -1</i>
   <i type="logical" name="LPLANE"> T  </i>
   <i type="logical" name="LSCALAPACK"> T  </i>
   <i type="logical" name="LSCAAWARE"> F  </i>
   <i type="logical" name="LSCALU"> F  </i>
   <i type="logical" name="LASYNC"> F  </i>
   <i type="logical" name="LORBITALREAL"> F  </i>
  </separator>
  <separator name="miscellaneous" >
   <i type="int" name="IDIOT">     3</i>
   <i type="int" name="PHON_NSTRUCT">    -1</i>
   <i type="logical" name="LMUSIC"> F  </i>
   <v name="POMASS">     14.00100000</v>
   <v name="DARWINR">      0.00000000</v>
   <v name="DARWINV">      1.00000000</v>
   <i type="logical" name="LCORR"> T  </i>
  </separator>
  <i type="logical" name="GGA_COMPAT"> T  </i>
  <i type="logical" name="LBERRY"> F  </i>
  <i type="int" name="ICORELEVEL">     0</i>
  <i type="logical" name="LDAU"> F  </i>
  <i type="int" name="I_CONSTRAINED_M">     0</i>
  <separator name="electronic exchange-correlation" >
   <i type="string" name="GGA">--</i>
   <i type="int" name="VOSKOWN">     0</i>
   <i type="logical" name="LHFCALC"> T  </i>
   <i type="string" name="PRECFOCK">fast</i>
   <i type="logical" name="LSYMGRAD"> F  </i>
   <i type="logical" name="LHFONE"> F  </i>
   <i type="logical" name="LRHFCALC"> F  </i>
   <i type="logical" name="LTHOMAS"> F  </i>
   <i type="logical" name="LMODELHF"> F  </i>
   <i type="logical" name="LFOCKACE"> T  </i>
   <i name="ENCUT4O">     -1.00000000</i>
   <i type="int" name="EXXOEP">     0</i>
   <i type="int" name="FOURORBIT">     0</i>
   <i name="AEXX">      0.32000000</i>
   <i name="HFALPHA">     -1.00000000</i>
   <i name="MCALPHA">      0.00000000</i>
   <i name="ALDAX">      0.68000000</i>
   <i name="AGGAX">      0.68000000</i>
   <i name="ALDAC">      1.00000000</i>
   <i name="AGGAC">      1.00000000</i>
   <i type="int" name="NKREDX">     1</i>
   <i type="int" name="NKREDY">     1</i>
   <i type="int" name="NKREDZ">     1</i>
   <i type="logical" name="SHIFTRED"> F  </i>
   <i type="logical" name="ODDONLY"> F  </i>
   <i type="logical" name="EVENONLY"> F  </i>
   <i type="int" name="LMAXFOCK">     4</i>
   <i type="int" name="NMAXFOCKAE">     1</i>
   <i type="logical" name="LFOCKAEDFT"> F  </i>
   <i name="HFSCREEN">      0.20000000</i>
   <i name="HFSCREENC">      0.20000000</i>
   <i type="int" name="NBANDSGWLOW">     1</i>
  </separator>
  <separator name="vdW DFT" >
   <i type="logical" name="LUSE_VDW"> F  </i>
   <i type="int" name="IVDW_NL">     1</i>
   <i type="logical" name="LSPIN_VDW"> F  </i>
   <i name="Zab_VDW">     -0.84910000</i>
   <i name="PARAM1">      0.12340000</i>
   <i name="PARAM2">      1.00000000</i>
   <i name="PARAM3">      0.00000000</i>
  </separator>
  <separator name="model GW" >
   <i type="int" name="MODEL_GW">     0</i>
   <i name="MODEL_EPS0">    160.20000000</i>
   <i name="MODEL_ALPHA">      1.00000000</i>
  </separator>
  <separator name="linear response parameters" >
   <i type="logical" name="LEPSILON"> F  </i>
   <i type="logical" name="LRPA"> F  </i>
   <i type="logical" name="LNABLA"> F  </i>
   <i type="logical" name="LVEL"> F  </i>
   <i name="CSHIFT">      0.10000000</i>
   <i name="OMEGAMAX">     -1.00000000</i>
   <i name="DEG_THRESHOLD">      0.00200000</i>
   <i name="RTIME">     -0.10000000</i>
   <i name="WPLASMAI">      0.00000000</i>
   <v name="DFIELD">      0.00000000      0.00000000      0.00000000</v>
   <v name="WPLASMA">      0.00000000      0.00000000      0.00000000      0.00000000      0.00000000      0.00000000      0.00000000      0.00000000      0.00000000</v>
  </separator>
  <separator name="orbital magnetization" >
   <i type="logical" name="NUCIND"> F  </i>
   <v name="MAGPOS">      0.00000000      0.00000000      0.00000000</v>
   <i type="logical" name="LNICSALL"> T  </i>
   <i type="logical" name="ORBITALMAG"> F  </i>
   <i type="logical" name="LMAGBLOCH"> F  </i>
   <i type="logical" name="LCHIMAG"> F  </i>
   <i type="logical" name="LGAUGE"> T  </i>
   <i type="int" name="MAGATOM">     0</i>
   <v name="MAGDIPOL">      0.00000000      0.00000000      0.00000000</v>
   <v name="AVECCONST">      0.00000000      0.00000000      0.00000000</v>
  </separator>
  <separator name="response functions" >
   <i type="logical" name="LALL_IN_ONE"> F  </i>
   <i type="int" name="IALL_IN_ONE">    -1</i>
   <i type="int" name="NBANDS_WAVE">    -1</i>
   <i type="logical" name="LFINITE_TEMPERATURE"> F  </i>
   <i type="logical" name="LADDER"> F  </i>
   <i type="logical" name="LRPAFORCE"> F  </i>
   <i type="logical" name="LFXC"> F  </i>
   <i type="logical" name="LHARTREE"> T  </i>
   <i type="int" name="IBSE">     0</i>
   <v type="int" name="KPOINT">    -1     0     0     0</v>
   <i type="logical" name="LTCTC"> F  </i>
   <i type="logical" name="LTCTE"> F  </i>
   <i type="logical" name="LTETE"> F  </i>
   <i type="logical" name="LTRIPLET"> F  </i>
   <i type="logical" name="LFXCEPS"> F  </i>
   <i type="logical" name="LFXHEG"> F  </i>
   <i type="int" name="NATURALO">     2</i>
   <i type="logical" name="LHOLEGF"> F  </i>
   <i type="logical" name="L2ORDER"> F  </i>
   <i type="logical" name="LDMP1"> F  </i>
   <i type="logical" name="LMP2LT"> F  </i>
   <i type="logical" name="LSMP2LT"> F  </i>
   <i type="logical" name="LGWLF"> F  </i>
   <i name="ENCUTGW">     -1.60000002</i>
   <i name="ENCUTGWSOFT">     -1.60000002</i>
   <i name="ENCUTLF">     -1.00000000</i>
   <i type="logical" name="LESF_SPLINES"> F  </i>
   <i type="int" name="LMAXMP2">    -1</i>
   <i name="SCISSOR">      0.00000000</i>
   <i type="int" name="NOMEGA">     0</i>
   <i type="int" name="NOMEGAR">     0</i>
   <i type="int" name="NBANDSGW">    -1</i>
   <i type="int" name="NBANDSO">    -1</i>
   <i type="int" name="NBANDSV">    -1</i>
   <i type="int" name="NELMGW">     1</i>
   <i type="int" name="NELMHF">     1</i>
   <i type="int" name="DIM">     3</i>
   <i type="int" name="IESPILON">     4</i>
   <i type="int" name="ANTIRES">     0</i>
   <i name="OMEGAMAX">    -30.00000000</i>
   <i name="OMEGAMIN">    -30.00000000</i>
   <i name="OMEGATL">   -200.00000000</i>
   <i type="int" name="OMEGAGRID">     0</i>
   <i name="CSHIFT">     -0.10000000</i>
   <i type="logical" name="LSELFENERGY"> F  </i>
   <i type="logical" name="LSPECTRAL"> F  </i>
   <i type="logical" name="LSPECTRALGW"> F  </i>
   <i type="logical" name="LSINGLES"> F  </i>
   <i type="logical" name="LFERMIGW"> F  </i>
   <i type="logical" name="ODDONLYGW"> F  </i>
   <i type="logical" name="EVENONLYGW"> F  </i>
   <i type="int" name="NKREDLFX">     1</i>
   <i type="int" name="NKREDLFY">     1</i>
   <i type="int" name="NKREDLFZ">     1</i>
   <i type="int" name="MAXMEM">  2800</i>
   <i type="int" name="TELESCOPE">     0</i>
   <i type="int" name="NTAUPAR">    -1</i>
   <i type="int" name="NOMEGAPAR">    -1</i>
   <i name="DAMP_NEWTON">      0.80000001</i>
   <i name="LAMBDA">      1.00000000</i>
  </separator>
  <separator name="External order field" >
   <i name="OFIELD_KAPPA">      0.00000000</i>
   <v name="OFIELD_K">      0.00000000      0.00000000      0.00000000</v>
   <i name="OFIELD_Q6_NEAR">      0.00000000</i>
   <i name="OFIELD_Q6_FAR">      0.00000000</i>
   <i name="OFIELD_A">      0.00000000</i>
  </separator>
  <separator name="optional k-points parameters" >
   <i type="int" name="KPOINTS_OPT_MODE">     1</i>
   <i type="logical" name="LKPOINTS_OPT"> F  </i>
  </separator>
 </parameters>
 <atominfo>
  <atoms>       2 </atoms>
  <types>       1 </types>
  <array name="atoms" >
   <dimension dim="1">ion</dimension>
   <field type="string">element</field>
   <field type="int">atomtype</field>
   <set>
    <rc><c>N </c><c>   1</c></rc>
    <rc><c>N </c><c>   1</c></rc>
   </set>
  </array>
  <array name="atomtypes" >
   <dimension dim="1">type</dimension>
   <field type="int">atomspertype</field>
   <field type="string">element</field>
   <field>mass</field>
   <field>valence</field>
   <field type="string">pseudopotential</field>
   <set>
    <rc><c>   2</c><c>N </c><c>     14.00100000</c><c>      5.00000000</c><c>  PAW_PBE N 08Apr2002                   </c></rc>
   </set>
  </array>
 </atominfo>
 <structure name="initialpos" >
  <crystal>
   <varray name="basis" >
    <v>       7.50000000       0.00000000       0.00000000 </v>
    <v>       0.00000000       8.00000000       0.00000000 </v>
    <v>       0.00000000       0.00000000       8.90000000 </v>
   </varray>
   <i name="volume">    534.00000000 </i>
   <varray name="rec_basis" >
    <v>       0.13333333       0.00000000       0.00000000 </v>
    <v>       0.00000000       0.12500000       0.00000000 </v>
    <v>       0.00000000       0.00000000       0.11235955 </v>
   </varray>
  </crystal>
  <varray name="positions" >
   <v>       0.00000000       0.00000000       0.99916932 </v>
   <v>       0.00000000       0.00000000       0.12442618 </v>
  </varray>
 </structure>
 <calculation>
  <scstep>
   <time name="total">    0.31    0.32</time>
   <energy>
    <i name="alphaZ">      0.80708599 </i>
    <i name="ewald">     74.13840714 </i>
    <i name="hartreedc">     -1.77641078 </i>
    <i name="XCdc">     11.05248767 </i>
    <i name="pawpsdc">  18724.55864138 </i>
    <i name="pawaedc"> -18793.12468654 </i>
    <i name="eentropy">     -0.00000000 </i>
    <i name="bandstr">  -1047.29394466 </i>
    <i name="atom">    522.46728520 </i>
    <i name="e_fr_energy">   -509.17113459 </i>
    <i name="e_wo_entrp">   -509.17113459 </i>
    <i name="e_0_energy">   -509.17113459 </i>
   </energy>
  </scstep>
  <scstep>
   <time name="total">    0.10    0.10</time>
   <energy>
    <i name="e_fr_energy">   -607.41578848 </i>
    <i name="e_wo_entrp">   -607.41510788 </i>
    <i name="e_0_energy">   -607.41544818 </i>
   </energy>
  </scstep>
  <scstep>
   <time name="total">    0.08    0.08</time>
   <energy>
    <i name="e_fr_energy">   -610.53964600 </i>
    <i name="e_wo_entrp">   -610.53964600 </i>
    <i name="e_0_energy">   -610.53964600 </i>
   </energy>
  </scstep>
  <scstep>
   <time name="total">    0.08    0.08</time>
   <energy>
    <i name="e_fr_energy">   -610.64844272 </i>
    <i name="e_wo_entrp">   -610.64844272 </i>
    <i name="e_0_energy">   -610.64844272 </i>
   </energy>
  </scstep>
  <scstep>
   <time name="total">    1.57    1.57</time>
   <energy>
    <i name="e_fr_energy">   -554.73534625 </i>
    <i name="e_wo_entrp">   -554.73534625 </i>
    <i name="e_0_energy">   -554.73534625 </i>
   </energy>
  </scstep>
  <scstep>
   <time name="total">    3.19    3.29</time>
   <energy>
    <i name="e_fr_energy">    106.70706722 </i>
    <i name="e_wo_entrp">    106.70706722 </i>
    <i name="e_0_energy">    106.70706722 </i>
   </energy>
  </scstep>
  <scstep>
   <time name="total">    3.12    3.12</time>
   <energy>
    <i name="e_fr_energy">     -6.11690201 </i>
    <i name="e_wo_entrp">     -6.11690201 </i>
    <i name="e_0_energy">     -6.11690201 </i>
   </energy>
  </scstep>
  <scstep>
   <time name="total">    3.08    3.09</time>
   <energy>
    <i name="e_fr_energy">    -14.84535674 </i>
    <i name="e_wo_entrp">    -14.84535674 </i>
    <i name="e_0_energy">    -14.84535674 </i>
   </energy>
  </scstep>
  <scstep>
   <time name="total">    3.57    3.68</time>
   <energy>
    <i name="e_fr_energy">    -17.43903490 </i>
    <i name="e_wo_entrp">    -17.43903490 </i>
    <i name="e_0_energy">    -17.43903490 </i>
   </energy>
  </scstep>
  <scstep>
   <time name="total">    3.07    3.07</time>
   <energy>
    <i name="e_fr_energy">    -19.09850249 </i>
    <i name="e_wo_entrp">    -19.09850249 </i>
    <i name="e_0_energy">    -19.09850249 </i>
   </energy>
  </scstep>
  <scstep>
   <time name="total">    3.05    3.05</time>
   <energy>
    <i name="e_fr_energy">    -19.79650455 </i>
    <i name="e_wo_entrp">    -19.79650455 </i>
    <i name="e_0_energy">    -19.79650455 </i>
   </energy>
  </scstep>
  <scstep>
   <time name="total">    3.07    3.07</time>
   <energy>
    <i name="e_fr_energy">    -21.03369336 </i>
    <i name="e_wo_entrp">    -21.03369336 </i>
    <i name="e_0_energy">    -21.03369336 </i>
   </energy>
  </scstep>
  <scstep>
   <time name="total">    3.09    3.09</time>
   <energy>
    <i name="e_fr_energy">    -21.20380600 </i>
    <i name="e_wo_entrp">    -21.20380600 </i>
    <i name="e_0_energy">    -21.20380600 </i>
   </energy>
  </scstep>
  <scstep>
   <time name="total">    3.10    3.11</time>
   <energy>
    <i name="e_fr_energy">    -21.29008344 </i>
    <i name="e_wo_entrp">    -21.29008344 </i>
    <i name="e_0_energy">    -21.29008344 </i>
   </energy>
  </scstep>
  <scstep>
   <time name="total">    3.09    3.09</time>
   <energy>
    <i name="e_fr_energy">    -21.33026379 </i>
    <i name="e_wo_entrp">    -21.33026379 </i>
    <i name="e_0_energy">    -21.33026379 </i>
   </energy>
  </scstep>
  <scstep>
   <time name="total">    3.08    3.08</time>
   <energy>
    <i name="e_fr_energy">    -21.36225618 </i>
    <i name="e_wo_entrp">    -21.36225618 </i>
    <i name="e_0_energy">    -21.36225618 </i>
   </energy>
  </scstep>
  <scstep>
   <time name="total">    3.04    3.04</time>
   <energy>
    <i name="e_fr_energy">    -21.38997877 </i>
    <i name="e_wo_entrp">    -21.38997877 </i>
    <i name="e_0_energy">    -21.38997877 </i>
   </energy>
  </scstep>
  <scstep>
   <time name="total">    3.05    3.05</time>
   <energy>
    <i name="e_fr_energy">    -21.41759871 </i>
    <i name="e_wo_entrp">    -21.41759871 </i>
    <i name="e_0_energy">    -21.41759871 </i>
   </energy>
  </scstep>
  <scstep>
   <time name="total">    3.11    3.11</time>
   <energy>
    <i name="e_fr_energy">    -21.44857347 </i>
    <i name="e_wo_entrp">    -21.44857347 </i>
    <i name="e_0_energy">    -21.44857347 </i>
   </energy>
  </scstep>
  <scstep>
   <time name="total">    3.08    3.08</time>
   <energy>
    <i name="e_fr_energy">    -21.47299253 </i>
    <i name="e_wo_entrp">    -21.47299253 </i>
    <i name="e_0_energy">    -21.47299253 </i>
   </energy>
  </scstep>
  <scstep>
   <time name="total">    3.06    3.06</time>
   <energy>
    <i name="e_fr_energy">    -21.48701551 </i>
    <i name="e_wo_entrp">    -21.48701551 </i>
    <i name="e_0_energy">    -21.48701551 </i>
   </energy>
  </scstep>
  <scstep>
   <time name="total">    3.07    3.07</time>
   <energy>
    <i name="e_fr_energy">    -21.49567469 </i>
    <i name="e_wo_entrp">    -21.49567469 </i>
    <i name="e_0_energy">    -21.49567469 </i>
   </energy>
  </scstep>
  <scstep>
   <time name="total">    3.06    3.06</time>
   <energy>
    <i name="e_fr_energy">    -21.50186693 </i>
    <i name="e_wo_entrp">    -21.50186693 </i>
    <i name="e_0_energy">    -21.50186693 </i>
   </energy>
  </scstep>
  <scstep>
   <time name="total">    3.06    3.07</time>
   <energy>
    <i name="e_fr_energy">    -21.50702424 </i>
    <i name="e_wo_entrp">    -21.50702424 </i>
    <i name="e_0_energy">    -21.50702424 </i>
   </energy>
  </scstep>
  <scstep>
   <time name="total">    3.03    3.03</time>
   <energy>
    <i name="e_fr_energy">    -21.51145990 </i>
    <i name="e_wo_entrp">    -21.51145990 </i>
    <i name="e_0_energy">    -21.51145990 </i>
   </energy>
  </scstep>
  <scstep>
   <time name="total">    3.05    3.06</time>
   <energy>
    <i name="e_fr_energy">    -21.51531233 </i>
    <i name="e_wo_entrp">    -21.51531233 </i>
    <i name="e_0_energy">    -21.51531233 </i>
   </energy>
  </scstep>
  <scstep>
   <time name="total">    3.05    3.05</time>
   <energy>
    <i name="e_fr_energy">    -21.51882303 </i>
    <i name="e_wo_entrp">    -21.51882303 </i>
    <i name="e_0_energy">    -21.51882303 </i>
   </energy>
  </scstep>
  <scstep>
   <time name="total">    3.03    3.03</time>
   <energy>
    <i name="e_fr_energy">    -21.52181428 </i>
    <i name="e_wo_entrp">    -21.52181428 </i>
    <i name="e_0_energy">    -21.52181428 </i>
   </energy>
  </scstep>
  <scstep>
   <time name="total">    3.09    3.10</time>
   <energy>
    <i name="e_fr_energy">    -21.52403760 </i>
    <i name="e_wo_entrp">    -21.52403760 </i>
    <i name="e_0_energy">    -21.52403760 </i>
   </energy>
  </scstep>
  <scstep>
   <time name="total">    3.05    3.05</time>
   <energy>
    <i name="e_fr_energy">    -21.52562505 </i>
    <i name="e_wo_entrp">    -21.52562505 </i>
    <i name="e_0_energy">    -21.52562505 </i>
   </energy>
  </scstep>
  <scstep>
   <time name="total">    3.05    3.06</time>
   <energy>
    <i name="e_fr_energy">    -21.52678836 </i>
    <i name="e_wo_entrp">    -21.52678836 </i>
    <i name="e_0_energy">    -21.52678836 </i>
   </energy>
  </scstep>
  <scstep>
   <time name="total">    3.02    3.02</time>
   <energy>
    <i name="e_fr_energy">    -21.52768285 </i>
    <i name="e_wo_entrp">    -21.52768285 </i>
    <i name="e_0_energy">    -21.52768285 </i>
   </energy>
  </scstep>
  <scstep>
   <time name="total">    3.06    3.07</time>
   <energy>
    <i name="e_fr_energy">    -21.52839609 </i>
    <i name="e_wo_entrp">    -21.52839609 </i>
    <i name="e_0_energy">    -21.52839609 </i>
   </energy>
  </scstep>
  <scstep>
   <time name="total">    3.04    3.04</time>
   <energy>
    <i name="e_fr_energy">    -21.52898265 </i>
    <i name="e_wo_entrp">    -21.52898265 </i>
    <i name="e_0_energy">    -21.52898265 </i>
   </energy>
  </scstep>
  <scstep>
   <time name="total">    3.07    3.07</time>
   <energy>
    <i name="e_fr_energy">    -21.52947835 </i>
    <i name="e_wo_entrp">    -21.52947835 </i>
    <i name="e_0_energy">    -21.52947835 </i>
   </energy>
  </scstep>
  <scstep>
   <time name="total">    3.09    3.09</time>
   <energy>
    <i name="e_fr_energy">    -21.52990606 </i>
    <i name="e_wo_entrp">    -21.52990606 </i>
    <i name="e_0_energy">    -21.52990606 </i>
   </energy>
  </scstep>
  <scstep>
   <time name="total">    3.06    3.06</time>
   <energy>
    <i name="e_fr_energy">    -21.53025215 </i>
    <i name="e_wo_entrp">    -21.53025215 </i>
    <i name="e_0_energy">    -21.53025215 </i>
   </energy>
  </scstep>
  <scstep>
   <time name="total">    3.05    3.05</time>
   <energy>
    <i name="e_fr_energy">    -21.53050675 </i>
    <i name="e_wo_entrp">    -21.53050675 </i>
    <i name="e_0_energy">    -21.53050675 </i>
   </energy>
  </scstep>
  <scstep>
   <time name="total">    3.07    3.07</time>
   <energy>
    <i name="e_fr_energy">    -21.53069130 </i>
    <i name="e_wo_entrp">    -21.53069130 </i>
    <i name="e_0_energy">    -21.53069130 </i>
   </energy>
  </scstep>
  <scstep>
   <time name="total">    3.08    3.08</time>
   <energy>
    <i name="e_fr_energy">    -21.53083590 </i>
    <i name="e_wo_entrp">    -21.53083590 </i>
    <i name="e_0_energy">    -21.53083590 </i>
   </energy>
  </scstep>
  <scstep>
   <time name="total">    3.07    3.07</time>
   <energy>
    <i name="e_fr_energy">    -21.53095711 </i>
    <i name="e_wo_entrp">    -21.53095711 </i>
    <i name="e_0_energy">    -21.53095711 </i>
   </energy>
  </scstep>
  <scstep>
   <time name="total">    3.07    3.07</time>
   <energy>
    <i name="e_fr_energy">    -21.53138207 </i>
    <i name="e_wo_entrp">    -21.53138207 </i>
    <i name="e_0_energy">    -21.53138207 </i>
   </energy>
  </scstep>
  <scstep>
   <time name="total">    3.06    3.06</time>
   <energy>
    <i name="e_fr_energy">    -21.53154374 </i>
    <i name="e_wo_entrp">    -21.53154374 </i>
    <i name="e_0_energy">    -21.53154374 </i>
   </energy>
  </scstep>
  <scstep>
   <time name="total">    3.04    3.05</time>
   <energy>
    <i name="e_fr_energy">    -21.53158284 </i>
    <i name="e_wo_entrp">    -21.53158284 </i>
    <i name="e_0_energy">    -21.53158284 </i>
   </energy>
  </scstep>
  <scstep>
   <time name="total">    3.07    3.07</time>
   <energy>
    <i name="e_fr_energy">    -21.53159324 </i>
    <i name="e_wo_entrp">    -21.53159324 </i>
    <i name="e_0_energy">    -21.53159324 </i>
   </energy>
  </scstep>
  <scstep>
   <time name="total">    3.17    3.17</time>
   <energy>
    <i name="alphaZ">      0.80708599 </i>
    <i name="ewald">     74.13840714 </i>
    <i name="hartreedc">   -509.56666992 </i>
    <i name="XCdc">     27.54562729 </i>
    <i name="pawpsdc">   1024.64676555 </i>
    <i name="pawaedc">  -1026.06835965 </i>
    <i name="eentropy">     -0.00000000 </i>
    <i name="bandstr">   -168.61330600 </i>
    <i name="atom">    522.46728520 </i>
    <i name="e_fr_energy">    -21.53159645 </i>
    <i name="e_wo_entrp">    -21.53159645 </i>
    <i name="e_0_energy">    -21.53159645 </i>
   </energy>
  </scstep>
  <structure>
   <crystal>
    <varray name="basis" >
     <v>       7.50000000       0.00000000       0.00000000 </v>
     <v>       0.00000000       8.00000000       0.00000000 </v>
     <v>       0.00000000       0.00000000       8.90000000 </v>
    </varray>
    <i name="volume">    534.00000000 </i>
    <varray name="rec_basis" >
     <v>       0.13333333       0.00000000       0.00000000 </v>
     <v>       0.00000000       0.12500000       0.00000000 </v>
     <v>       0.00000000       0.00000000       0.11235955 </v>
    </varray>
   </crystal>
   <varray name="positions" >
    <v>       0.00000000       0.00000000       0.99916932 </v>
    <v>       0.00000000       0.00000000       0.12442618 </v>
   </varray>
  </structure>
  <varray name="forces" >
   <v>      -0.00000000       0.00000000       2.12117462 </v>
   <v>       0.00000000       0.00000000      -2.12117462 </v>
  </varray>
  <varray name="stress" >
   <v>      -1.18299320       0.00000000       0.00000000 </v>
   <v>       0.00000000      -1.10845619       0.00000000 </v>
   <v>       0.00000000       0.00000000      -8.40017040 </v>
  </varray>
  <energy>
   <i name="e_fr_energy">    -21.53159645 </i>
   <i name="e_wo_entrp">    -21.53159645 </i>
   <i name="e_0_energy">    -21.53159645 </i>
  </energy>
  <time name="totalsc">  132.62  133.03</time>
  <eigenvalues>
   <array>
    <dimension dim="1">band</dimension>
    <dimension dim="2">kpoint</dimension>
    <dimension dim="3">spin</dimension>
    <field>eigene</field>
    <field>occ</field>
    <set>
     <set comment="spin 1">
      <set comment="kpoint 1">
       <r>  -31.4778    1.0000 </r>
       <r>  -15.5531    1.0000 </r>
       <r>  -12.7190    1.0000 </r>
       <r>  -12.7184    1.0000 </r>
       <r>  -11.8395    1.0000 </r>
       <r>   -0.6789    0.0000 </r>
       <r>   -0.6738    0.0000 </r>
       <r>   -0.1227    0.0000 </r>
       <r>    1.6443    0.0000 </r>
       <r>    1.7416    0.0000 </r>
      </set>
      <set comment="kpoint 2">
       <r>  -31.4778    1.0000 </r>
       <r>  -15.5530    1.0000 </r>
       <r>  -12.7195    1.0000 </r>
       <r>  -12.7189    1.0000 </r>
       <r>  -11.8394    1.0000 </r>
       <r>   -0.6957    0.0000 </r>
       <r>   -0.6765    0.0000 </r>
       <r>    0.5092    0.0000 </r>
       <r>    0.5349    0.0000 </r>
       <r>    2.1989    0.0000 </r>
      </set>
      <set comment="kpoint 3">
       <r>  -31.4777    1.0000 </r>
       <r>  -15.5530    1.0000 </r>
       <r>  -12.7195    1.0000 </r>
       <r>  -12.7184    1.0000 </r>
       <r>  -11.8392    1.0000 </r>
       <r>   -0.6923    0.0000 </r>
       <r>   -0.6730    0.0000 </r>
       <r>    0.4317    0.0000 </r>
       <r>    0.4581    0.0000 </r>
       <r>    2.1008    0.0000 </r>
      </set>
      <set comment="kpoint 4">
       <r>  -31.4778    1.0000 </r>
       <r>  -15.5530    1.0000 </r>
       <r>  -12.7193    1.0000 </r>
       <r>  -12.7192    1.0000 </r>
       <r>  -11.8391    1.0000 </r>
       <r>   -0.6933    0.0000 </r>
       <r>   -0.6884    0.0000 </r>
       <r>    0.9682    0.0000 </r>
       <r>    1.1950    0.0000 </r>
       <r>    1.2575    0.0000 </r>
      </set>
      <set comment="kpoint 5">
       <r>  -31.4777    1.0000 </r>
       <r>  -15.5531    1.0000 </r>
       <r>  -12.7189    1.0000 </r>
       <r>  -12.7185    1.0000 </r>
       <r>  -11.8395    1.0000 </r>
       <r>   -0.6846    0.0000 </r>
       <r>   -0.6792    0.0000 </r>
       <r>    0.2307    0.0000 </r>
       <r>    0.4079    0.0000 </r>
       <r>    2.3987    0.0000 </r>
      </set>
      <set comment="kpoint 6">
       <r>  -31.4778    1.0000 </r>
       <r>  -15.5531    1.0000 </r>
       <r>  -12.7194    1.0000 </r>
       <r>  -12.7188    1.0000 </r>
       <r>  -11.8392    1.0000 </r>
       <r>   -0.7090    0.0000 </r>
       <r>   -0.6814    0.0000 </r>
       <r>    0.8312    0.0000 </r>
       <r>    0.9143    0.0000 </r>
       <r>    0.9722    0.0000 </r>
      </set>
      <set comment="kpoint 7">
       <r>  -31.4777    1.0000 </r>
       <r>  -15.5531    1.0000 </r>
       <r>  -12.7194    1.0000 </r>
       <r>  -12.7185    1.0000 </r>
       <r>  -11.8393    1.0000 </r>
       <r>   -0.7056    0.0000 </r>
       <r>   -0.6775    0.0000 </r>
       <r>    0.7890    0.0000 </r>
       <r>    0.8013    0.0000 </r>
       <r>    0.8824    0.0000 </r>
      </set>
      <set comment="kpoint 8">
       <r>  -31.4777    1.0000 </r>
       <r>  -15.5531    1.0000 </r>
       <r>  -12.7192    1.0000 </r>
       <r>  -12.7191    1.0000 </r>
       <r>  -11.8390    1.0000 </r>
       <r>   -0.7042    0.0000 </r>
       <r>   -0.6985    0.0000 </r>
       <r>    1.2646    0.0000 </r>
       <r>    1.4243    0.0000 </r>
       <r>    1.6890    0.0000 </r>
      </set>
     </set>
     <set comment="spin 2">
      <set comment="kpoint 1">
       <r>  -31.4778    1.0000 </r>
       <r>  -15.5531    1.0000 </r>
       <r>  -12.7190    1.0000 </r>
       <r>  -12.7184    1.0000 </r>
       <r>  -11.8395    1.0000 </r>
       <r>   -0.6789    0.0000 </r>
       <r>   -0.6738    0.0000 </r>
       <r>   -0.1227    0.0000 </r>
       <r>    1.6442    0.0000 </r>
       <r>    1.9500    0.0000 </r>
      </set>
      <set comment="kpoint 2">
       <r>  -31.4778    1.0000 </r>
       <r>  -15.5531    1.0000 </r>
       <r>  -12.7195    1.0000 </r>
       <r>  -12.7189    1.0000 </r>
       <r>  -11.8394    1.0000 </r>
       <r>   -0.6957    0.0000 </r>
       <r>   -0.6766    0.0000 </r>
       <r>    0.5091    0.0000 </r>
       <r>    0.5349    0.0000 </r>
       <r>    2.1989    0.0000 </r>
      </set>
      <set comment="kpoint 3">
       <r>  -31.4777    1.0000 </r>
       <r>  -15.5531    1.0000 </r>
       <r>  -12.7195    1.0000 </r>
       <r>  -12.7184    1.0000 </r>
       <r>  -11.8392    1.0000 </r>
       <r>   -0.6923    0.0000 </r>
       <r>   -0.6730    0.0000 </r>
       <r>    0.4316    0.0000 </r>
       <r>    0.4581    0.0000 </r>
       <r>    2.1008    0.0000 </r>
      </set>
      <set comment="kpoint 4">
       <r>  -31.4778    1.0000 </r>
       <r>  -15.5530    1.0000 </r>
       <r>  -12.7193    1.0000 </r>
       <r>  -12.7192    1.0000 </r>
       <r>  -11.8391    1.0000 </r>
       <r>   -0.6933    0.0000 </r>
       <r>   -0.6884    0.0000 </r>
       <r>    0.9516    0.0000 </r>
       <r>    1.0013    0.0000 </r>
       <r>    1.1941    0.0000 </r>
      </set>
      <set comment="kpoint 5">
       <r>  -31.4777    1.0000 </r>
       <r>  -15.5531    1.0000 </r>
       <r>  -12.7189    1.0000 </r>
       <r>  -12.7184    1.0000 </r>
       <r>  -11.8395    1.0000 </r>
       <r>   -0.6846    0.0000 </r>
       <r>   -0.6792    0.0000 </r>
       <r>    0.2307    0.0000 </r>
       <r>    0.4079    0.0000 </r>
       <r>    3.3491    0.0000 </r>
      </set>
      <set comment="kpoint 6">
       <r>  -31.4778    1.0000 </r>
       <r>  -15.5531    1.0000 </r>
       <r>  -12.7194    1.0000 </r>
       <r>  -12.7188    1.0000 </r>
       <r>  -11.8392    1.0000 </r>
       <r>   -0.7090    0.0000 </r>
       <r>   -0.6814    0.0000 </r>
       <r>    0.8312    0.0000 </r>
       <r>    0.9143    0.0000 </r>
       <r>    0.9722    0.0000 </r>
      </set>
      <set comment="kpoint 7">
       <r>  -31.4777    1.0000 </r>
       <r>  -15.5531    1.0000 </r>
       <r>  -12.7194    1.0000 </r>
       <r>  -12.7185    1.0000 </r>
       <r>  -11.8394    1.0000 </r>
       <r>   -0.7056    0.0000 </r>
       <r>   -0.6775    0.0000 </r>
       <r>    0.7890    0.0000 </r>
       <r>    0.8013    0.0000 </r>
       <r>    0.8824    0.0000 </r>
      </set>
      <set comment="kpoint 8">
       <r>  -31.4777    1.0000 </r>
       <r>  -15.5531    1.0000 </r>
       <r>  -12.7192    1.0000 </r>
       <r>  -12.7191    1.0000 </r>
       <r>  -11.8390    1.0000 </r>
       <r>   -0.7042    0.0000 </r>
       <r>   -0.6985    0.0000 </r>
       <r>    1.4245    0.0000 </r>
       <r>    1.6760    0.0000 </r>
       <r>    3.6868    0.0000 </r>
      </set>
     </set>
    </set>
   </array>
  </eigenvalues>
  <separator name="orbital magnetization" >
   <v name="MAGDIPOLOUT">      0.00000000      0.00000000      0.00000000</v>
  </separator>
  <dos>
   <i name="efermi">    -11.76801048 </i>
   <total>
    <array>
     <dimension dim="1">gridpoints</dimension>
     <dimension dim="2">spin</dimension>
     <field>energy</field>
     <field>total</field>
     <field>integrated</field>
     <set>
      <set comment="spin 1">
       <r>   -33.2360     0.0000     0.0000 </r>
       <r>   -33.1071     0.0000     0.0000 </r>
       <r>   -32.9781     0.0000     0.0000 </r>
       <r>   -32.8492     0.0000     0.0000 </r>
       <r>   -32.7203     0.0000     0.0000 </r>
       <r>   -32.5913     0.0000     0.0000 </r>
       <r>   -32.4624     0.0000     0.0000 </r>
       <r>   -32.3335     0.0000     0.0000 </r>
       <r>   -32.2045     0.0000     0.0000 </r>
       <r>   -32.0756     0.0000     0.0000 </r>
       <r>   -31.9466     0.0000     0.0000 </r>
       <r>   -31.8177     0.0000     0.0000 </r>
       <r>   -31.6888     0.0000     0.0000 </r>
       <r>   -31.5598     0.0000     0.0000 </r>
       <r>   -31.4309     7.7557     1.0000 </r>
       <r>   -31.3020     0.0000     1.0000 </r>
       <r>   -31.1730     0.0000     1.0000 </r>
       <r>   -31.0441     0.0000     1.0000 </r>
       <r>   -30.9152     0.0000     1.0000 </r>
       <r>   -30.7862     0.0000     1.0000 </r>
       <r>   -30.6573     0.0000     1.0000 </r>
       <r>   -30.5283     0.0000     1.0000 </r>
       <r>   -30.3994     0.0000     1.0000 </r>
       <r>   -30.2705     0.0000     1.0000 </r>
       <r>   -30.1415     0.0000     1.0000 </r>
       <r>   -30.0126     0.0000     1.0000 </r>
       <r>   -29.8837     0.0000     1.0000 </r>
       <r>   -29.7547     0.0000     1.0000 </r>
       <r>   -29.6258     0.0000     1.0000 </r>
       <r>   -29.4968     0.0000     1.0000 </r>
       <r>   -29.3679     0.0000     1.0000 </r>
       <r>   -29.2390     0.0000     1.0000 </r>
       <r>   -29.1100     0.0000     1.0000 </r>
       <r>   -28.9811     0.0000     1.0000 </r>
       <r>   -28.8522     0.0000     1.0000 </r>
       <r>   -28.7232     0.0000     1.0000 </r>
       <r>   -28.5943     0.0000     1.0000 </r>
       <r>   -28.4653     0.0000     1.0000 </r>
       <r>   -28.3364     0.0000     1.0000 </r>
       <r>   -28.2075     0.0000     1.0000 </r>
       <r>   -28.0785     0.0000     1.0000 </r>
       <r>   -27.9496     0.0000     1.0000 </r>
       <r>   -27.8207     0.0000     1.0000 </r>
       <r>   -27.6917     0.0000     1.0000 </r>
       <r>   -27.5628     0.0000     1.0000 </r>
       <r>   -27.4339     0.0000     1.0000 </r>
       <r>   -27.3049     0.0000     1.0000 </r>
       <r>   -27.1760     0.0000     1.0000 </r>
       <r>   -27.0470     0.0000     1.0000 </r>
       <r>   -26.9181     0.0000     1.0000 </r>
       <r>   -26.7892     0.0000     1.0000 </r>
       <r>   -26.6602     0.0000     1.0000 </r>
       <r>   -26.5313     0.0000     1.0000 </r>
       <r>   -26.4024     0.0000     1.0000 </r>
       <r>   -26.2734     0.0000     1.0000 </r>
       <r>   -26.1445     0.0000     1.0000 </r>
       <r>   -26.0155     0.0000     1.0000 </r>
       <r>   -25.8866     0.0000     1.0000 </r>
       <r>   -25.7577     0.0000     1.0000 </r>
       <r>   -25.6287     0.0000     1.0000 </r>
       <r>   -25.4998     0.0000     1.0000 </r>
       <r>   -25.3709     0.0000     1.0000 </r>
       <r>   -25.2419     0.0000     1.0000 </r>
       <r>   -25.1130     0.0000     1.0000 </r>
       <r>   -24.9841     0.0000     1.0000 </r>
       <r>   -24.8551     0.0000     1.0000 </r>
       <r>   -24.7262     0.0000     1.0000 </r>
       <r>   -24.5972     0.0000     1.0000 </r>
       <r>   -24.4683     0.0000     1.0000 </r>
       <r>   -24.3394     0.0000     1.0000 </r>
       <r>   -24.2104     0.0000     1.0000 </r>
       <r>   -24.0815     0.0000     1.0000 </r>
       <r>   -23.9526     0.0000     1.0000 </r>
       <r>   -23.8236     0.0000     1.0000 </r>
       <r>   -23.6947     0.0000     1.0000 </r>
       <r>   -23.5657     0.0000     1.0000 </r>
       <r>   -23.4368     0.0000     1.0000 </r>
       <r>   -23.3079     0.0000     1.0000 </r>
       <r>   -23.1789     0.0000     1.0000 </r>
       <r>   -23.0500     0.0000     1.0000 </r>
       <r>   -22.9211     0.0000     1.0000 </r>
       <r>   -22.7921     0.0000     1.0000 </r>
       <r>   -22.6632     0.0000     1.0000 </r>
       <r>   -22.5342     0.0000     1.0000 </r>
       <r>   -22.4053     0.0000     1.0000 </r>
       <r>   -22.2764     0.0000     1.0000 </r>
       <r>   -22.1474     0.0000     1.0000 </r>
       <r>   -22.0185     0.0000     1.0000 </r>
       <r>   -21.8896     0.0000     1.0000 </r>
       <r>   -21.7606     0.0000     1.0000 </r>
       <r>   -21.6317     0.0000     1.0000 </r>
       <r>   -21.5028     0.0000     1.0000 </r>
       <r>   -21.3738     0.0000     1.0000 </r>
       <r>   -21.2449     0.0000     1.0000 </r>
       <r>   -21.1159     0.0000     1.0000 </r>
       <r>   -20.9870     0.0000     1.0000 </r>
       <r>   -20.8581     0.0000     1.0000 </r>
       <r>   -20.7291     0.0000     1.0000 </r>
       <r>   -20.6002     0.0000     1.0000 </r>
       <r>   -20.4713     0.0000     1.0000 </r>
       <r>   -20.3423     0.0000     1.0000 </r>
       <r>   -20.2134     0.0000     1.0000 </r>
       <r>   -20.0844     0.0000     1.0000 </r>
       <r>   -19.9555     0.0000     1.0000 </r>
       <r>   -19.8266     0.0000     1.0000 </r>
       <r>   -19.6976     0.0000     1.0000 </r>
       <r>   -19.5687     0.0000     1.0000 </r>
       <r>   -19.4398     0.0000     1.0000 </r>
       <r>   -19.3108     0.0000     1.0000 </r>
       <r>   -19.1819     0.0000     1.0000 </r>
       <r>   -19.0530     0.0000     1.0000 </r>
       <r>   -18.9240     0.0000     1.0000 </r>
       <r>   -18.7951     0.0000     1.0000 </r>
       <r>   -18.6661     0.0000     1.0000 </r>
       <r>   -18.5372     0.0000     1.0000 </r>
       <r>   -18.4083     0.0000     1.0000 </r>
       <r>   -18.2793     0.0000     1.0000 </r>
       <r>   -18.1504     0.0000     1.0000 </r>
       <r>   -18.0215     0.0000     1.0000 </r>
       <r>   -17.8925     0.0000     1.0000 </r>
       <r>   -17.7636     0.0000     1.0000 </r>
       <r>   -17.6346     0.0000     1.0000 </r>
       <r>   -17.5057     0.0000     1.0000 </r>
       <r>   -17.3768     0.0000     1.0000 </r>
       <r>   -17.2478     0.0000     1.0000 </r>
       <r>   -17.1189     0.0000     1.0000 </r>
       <r>   -16.9900     0.0000     1.0000 </r>
       <r>   -16.8610     0.0000     1.0000 </r>
       <r>   -16.7321     0.0000     1.0000 </r>
       <r>   -16.6031     0.0000     1.0000 </r>
       <r>   -16.4742     0.0000     1.0000 </r>
       <r>   -16.3453     0.0000     1.0000 </r>
       <r>   -16.2163     0.0000     1.0000 </r>
       <r>   -16.0874     0.0000     1.0000 </r>
       <r>   -15.9585     0.0000     1.0000 </r>
       <r>   -15.8295     0.0000     1.0000 </r>
       <r>   -15.7006     0.0000     1.0000 </r>
       <r>   -15.5717     0.0333     1.0043 </r>
       <r>   -15.4427     0.0000     2.0000 </r>
       <r>   -15.3138     0.0000     2.0000 </r>
       <r>   -15.1848     0.0000     2.0000 </r>
       <r>   -15.0559     0.0000     2.0000 </r>
       <r>   -14.9270     0.0000     2.0000 </r>
       <r>   -14.7980     0.0000     2.0000 </r>
       <r>   -14.6691     0.0000     2.0000 </r>
       <r>   -14.5402     0.0000     2.0000 </r>
       <r>   -14.4112     0.0000     2.0000 </r>
       <r>   -14.2823     0.0000     2.0000 </r>
       <r>   -14.1533     0.0000     2.0000 </r>
       <r>   -14.0244     0.0000     2.0000 </r>
       <r>   -13.8955     0.0000     2.0000 </r>
       <r>   -13.7665     0.0000     2.0000 </r>
       <r>   -13.6376     0.0000     2.0000 </r>
       <r>   -13.5087     0.0000     2.0000 </r>
       <r>   -13.3797     0.0000     2.0000 </r>
       <r>   -13.2508     0.0000     2.0000 </r>
       <r>   -13.1218     0.0000     2.0000 </r>
       <r>   -12.9929     0.0000     2.0000 </r>
       <r>   -12.8640     0.0000     2.0000 </r>
       <r>   -12.7350     0.1823     2.0235 </r>
       <r>   -12.6061     0.0000     4.0000 </r>
       <r>   -12.4772     0.0000     4.0000 </r>
       <r>   -12.3482     0.0000     4.0000 </r>
       <r>   -12.2193     0.0000     4.0000 </r>
       <r>   -12.0904     0.0000     4.0000 </r>
       <r>   -11.9614     0.0000     4.0000 </r>
       <r>   -11.8325     6.4492     4.8315 </r>
       <r>   -11.7035     0.0000     5.0000 </r>
       <r>   -11.5746     0.0000     5.0000 </r>
       <r>   -11.4457     0.0000     5.0000 </r>
       <r>   -11.3167     0.0000     5.0000 </r>
       <r>   -11.1878     0.0000     5.0000 </r>
       <r>   -11.0589     0.0000     5.0000 </r>
       <r>   -10.9299     0.0000     5.0000 </r>
       <r>   -10.8010     0.0000     5.0000 </r>
       <r>   -10.6720     0.0000     5.0000 </r>
       <r>   -10.5431     0.0000     5.0000 </r>
       <r>   -10.4142     0.0000     5.0000 </r>
       <r>   -10.2852     0.0000     5.0000 </r>
       <r>   -10.1563     0.0000     5.0000 </r>
       <r>   -10.0274     0.0000     5.0000 </r>
       <r>    -9.8984     0.0000     5.0000 </r>
       <r>    -9.7695     0.0000     5.0000 </r>
       <r>    -9.6406     0.0000     5.0000 </r>
       <r>    -9.5116     0.0000     5.0000 </r>
       <r>    -9.3827     0.0000     5.0000 </r>
       <r>    -9.2537     0.0000     5.0000 </r>
       <r>    -9.1248     0.0000     5.0000 </r>
       <r>    -8.9959     0.0000     5.0000 </r>
       <r>    -8.8669     0.0000     5.0000 </r>
       <r>    -8.7380     0.0000     5.0000 </r>
       <r>    -8.6091     0.0000     5.0000 </r>
       <r>    -8.4801     0.0000     5.0000 </r>
       <r>    -8.3512     0.0000     5.0000 </r>
       <r>    -8.2222     0.0000     5.0000 </r>
       <r>    -8.0933     0.0000     5.0000 </r>
       <r>    -7.9644     0.0000     5.0000 </r>
       <r>    -7.8354     0.0000     5.0000 </r>
       <r>    -7.7065     0.0000     5.0000 </r>
       <r>    -7.5776     0.0000     5.0000 </r>
       <r>    -7.4486     0.0000     5.0000 </r>
       <r>    -7.3197     0.0000     5.0000 </r>
       <r>    -7.1907     0.0000     5.0000 </r>
       <r>    -7.0618     0.0000     5.0000 </r>
       <r>    -6.9329     0.0000     5.0000 </r>
       <r>    -6.8039     0.0000     5.0000 </r>
       <r>    -6.6750     0.0000     5.0000 </r>
       <r>    -6.5461     0.0000     5.0000 </r>
       <r>    -6.4171     0.0000     5.0000 </r>
       <r>    -6.2882     0.0000     5.0000 </r>
       <r>    -6.1593     0.0000     5.0000 </r>
       <r>    -6.0303     0.0000     5.0000 </r>
       <r>    -5.9014     0.0000     5.0000 </r>
       <r>    -5.7724     0.0000     5.0000 </r>
       <r>    -5.6435     0.0000     5.0000 </r>
       <r>    -5.5146     0.0000     5.0000 </r>
       <r>    -5.3856     0.0000     5.0000 </r>
       <r>    -5.2567     0.0000     5.0000 </r>
       <r>    -5.1278     0.0000     5.0000 </r>
       <r>    -4.9988     0.0000     5.0000 </r>
       <r>    -4.8699     0.0000     5.0000 </r>
       <r>    -4.7409     0.0000     5.0000 </r>
       <r>    -4.6120     0.0000     5.0000 </r>
       <r>    -4.4831     0.0000     5.0000 </r>
       <r>    -4.3541     0.0000     5.0000 </r>
       <r>    -4.2252     0.0000     5.0000 </r>
       <r>    -4.0963     0.0000     5.0000 </r>
       <r>    -3.9673     0.0000     5.0000 </r>
       <r>    -3.8384     0.0000     5.0000 </r>
       <r>    -3.7094     0.0000     5.0000 </r>
       <r>    -3.5805     0.0000     5.0000 </r>
       <r>    -3.4516     0.0000     5.0000 </r>
       <r>    -3.3226     0.0000     5.0000 </r>
       <r>    -3.1937     0.0000     5.0000 </r>
       <r>    -3.0648     0.0000     5.0000 </r>
       <r>    -2.9358     0.0000     5.0000 </r>
       <r>    -2.8069     0.0000     5.0000 </r>
       <r>    -2.6780     0.0000     5.0000 </r>
       <r>    -2.5490     0.0000     5.0000 </r>
       <r>    -2.4201     0.0000     5.0000 </r>
       <r>    -2.2911     0.0000     5.0000 </r>
       <r>    -2.1622     0.0000     5.0000 </r>
       <r>    -2.0333     0.0000     5.0000 </r>
       <r>    -1.9043     0.0000     5.0000 </r>
       <r>    -1.7754     0.0000     5.0000 </r>
       <r>    -1.6465     0.0000     5.0000 </r>
       <r>    -1.5175     0.0000     5.0000 </r>
       <r>    -1.3886     0.0000     5.0000 </r>
       <r>    -1.2596     0.0000     5.0000 </r>
       <r>    -1.1307     0.0000     5.0000 </r>
       <r>    -1.0018     0.0000     5.0000 </r>
       <r>    -0.8728     0.0000     5.0000 </r>
       <r>    -0.7439     0.0000     5.0000 </r>
       <r>    -0.6150    10.6641     7.0000 </r>
       <r>    -0.4860     0.0000     7.0000 </r>
       <r>    -0.3571     0.0000     7.0000 </r>
       <r>    -0.2282     0.0000     7.0000 </r>
       <r>    -0.0992     0.9690     7.1249 </r>
       <r>     0.0297     0.0000     7.1250 </r>
       <r>     0.1587     0.0000     7.1250 </r>
       <r>     0.2876     0.9695     7.2500 </r>
       <r>     0.4165     0.8777     7.3632 </r>
       <r>     0.5455     1.8744     7.8667 </r>
       <r>     0.6744     0.0000     7.8750 </r>
       <r>     0.8033     1.5460     8.0743 </r>
       <r>     0.9323     1.9336     8.4993 </r>
       <r>     1.0612     0.0000     8.7500 </r>
       <r>     1.1902     0.2390     8.7808 </r>
       <r>     1.3191     1.9389     9.1250 </r>
       <r>     1.4480     0.9691     9.2500 </r>
       <r>     1.5770     0.0000     9.2500 </r>
       <r>     1.7059     1.9308     9.4990 </r>
       <r>     1.8348     0.0000     9.6250 </r>
       <r>     1.9638     0.0000     9.6250 </r>
       <r>     2.0927     0.1233     9.6409 </r>
       <r>     2.2217     0.9688     9.8749 </r>
       <r>     2.3506     0.0000     9.8750 </r>
       <r>     2.4795     0.0000    10.0000 </r>
       <r>     2.6085     0.0000    10.0000 </r>
       <r>     2.7374     0.0000    10.0000 </r>
       <r>     2.8663     0.0000    10.0000 </r>
       <r>     2.9953     0.0000    10.0000 </r>
       <r>     3.1242     0.0000    10.0000 </r>
       <r>     3.2531     0.0000    10.0000 </r>
       <r>     3.3821     0.0000    10.0000 </r>
       <r>     3.5110     0.0000    10.0000 </r>
       <r>     3.6400     0.0000    10.0000 </r>
       <r>     3.7689     0.0000    10.0000 </r>
       <r>     3.8978     0.0000    10.0000 </r>
       <r>     4.0268     0.0000    10.0000 </r>
       <r>     4.1557     0.0000    10.0000 </r>
       <r>     4.2846     0.0000    10.0000 </r>
       <r>     4.4136     0.0000    10.0000 </r>
       <r>     4.5425     0.0000    10.0000 </r>
       <r>     4.6715     0.0000    10.0000 </r>
       <r>     4.8004     0.0000    10.0000 </r>
       <r>     4.9293     0.0000    10.0000 </r>
       <r>     5.0583     0.0000    10.0000 </r>
       <r>     5.1872     0.0000    10.0000 </r>
       <r>     5.3161     0.0000    10.0000 </r>
       <r>     5.4451     0.0000    10.0000 </r>
      </set>
      <set comment="spin 2">
       <r>   -33.2360     0.0000     0.0000 </r>
       <r>   -33.1071     0.0000     0.0000 </r>
       <r>   -32.9781     0.0000     0.0000 </r>
       <r>   -32.8492     0.0000     0.0000 </r>
       <r>   -32.7203     0.0000     0.0000 </r>
       <r>   -32.5913     0.0000     0.0000 </r>
       <r>   -32.4624     0.0000     0.0000 </r>
       <r>   -32.3335     0.0000     0.0000 </r>
       <r>   -32.2045     0.0000     0.0000 </r>
       <r>   -32.0756     0.0000     0.0000 </r>
       <r>   -31.9466     0.0000     0.0000 </r>
       <r>   -31.8177     0.0000     0.0000 </r>
       <r>   -31.6888     0.0000     0.0000 </r>
       <r>   -31.5598     0.0000     0.0000 </r>
       <r>   -31.4309     7.7557     1.0000 </r>
       <r>   -31.3020     0.0000     1.0000 </r>
       <r>   -31.1730     0.0000     1.0000 </r>
       <r>   -31.0441     0.0000     1.0000 </r>
       <r>   -30.9152     0.0000     1.0000 </r>
       <r>   -30.7862     0.0000     1.0000 </r>
       <r>   -30.6573     0.0000     1.0000 </r>
       <r>   -30.5283     0.0000     1.0000 </r>
       <r>   -30.3994     0.0000     1.0000 </r>
       <r>   -30.2705     0.0000     1.0000 </r>
       <r>   -30.1415     0.0000     1.0000 </r>
       <r>   -30.0126     0.0000     1.0000 </r>
       <r>   -29.8837     0.0000     1.0000 </r>
       <r>   -29.7547     0.0000     1.0000 </r>
       <r>   -29.6258     0.0000     1.0000 </r>
       <r>   -29.4968     0.0000     1.0000 </r>
       <r>   -29.3679     0.0000     1.0000 </r>
       <r>   -29.2390     0.0000     1.0000 </r>
       <r>   -29.1100     0.0000     1.0000 </r>
       <r>   -28.9811     0.0000     1.0000 </r>
       <r>   -28.8522     0.0000     1.0000 </r>
       <r>   -28.7232     0.0000     1.0000 </r>
       <r>   -28.5943     0.0000     1.0000 </r>
       <r>   -28.4653     0.0000     1.0000 </r>
       <r>   -28.3364     0.0000     1.0000 </r>
       <r>   -28.2075     0.0000     1.0000 </r>
       <r>   -28.0785     0.0000     1.0000 </r>
       <r>   -27.9496     0.0000     1.0000 </r>
       <r>   -27.8207     0.0000     1.0000 </r>
       <r>   -27.6917     0.0000     1.0000 </r>
       <r>   -27.5628     0.0000     1.0000 </r>
       <r>   -27.4339     0.0000     1.0000 </r>
       <r>   -27.3049     0.0000     1.0000 </r>
       <r>   -27.1760     0.0000     1.0000 </r>
       <r>   -27.0470     0.0000     1.0000 </r>
       <r>   -26.9181     0.0000     1.0000 </r>
       <r>   -26.7892     0.0000     1.0000 </r>
       <r>   -26.6602     0.0000     1.0000 </r>
       <r>   -26.5313     0.0000     1.0000 </r>
       <r>   -26.4024     0.0000     1.0000 </r>
       <r>   -26.2734     0.0000     1.0000 </r>
       <r>   -26.1445     0.0000     1.0000 </r>
       <r>   -26.0155     0.0000     1.0000 </r>
       <r>   -25.8866     0.0000     1.0000 </r>
       <r>   -25.7577     0.0000     1.0000 </r>
       <r>   -25.6287     0.0000     1.0000 </r>
       <r>   -25.4998     0.0000     1.0000 </r>
       <r>   -25.3709     0.0000     1.0000 </r>
       <r>   -25.2419     0.0000     1.0000 </r>
       <r>   -25.1130     0.0000     1.0000 </r>
       <r>   -24.9841     0.0000     1.0000 </r>
       <r>   -24.8551     0.0000     1.0000 </r>
       <r>   -24.7262     0.0000     1.0000 </r>
       <r>   -24.5972     0.0000     1.0000 </r>
       <r>   -24.4683     0.0000     1.0000 </r>
       <r>   -24.3394     0.0000     1.0000 </r>
       <r>   -24.2104     0.0000     1.0000 </r>
       <r>   -24.0815     0.0000     1.0000 </r>
       <r>   -23.9526     0.0000     1.0000 </r>
       <r>   -23.8236     0.0000     1.0000 </r>
       <r>   -23.6947     0.0000     1.0000 </r>
       <r>   -23.5657     0.0000     1.0000 </r>
       <r>   -23.4368     0.0000     1.0000 </r>
       <r>   -23.3079     0.0000     1.0000 </r>
       <r>   -23.1789     0.0000     1.0000 </r>
       <r>   -23.0500     0.0000     1.0000 </r>
       <r>   -22.9211     0.0000     1.0000 </r>
       <r>   -22.7921     0.0000     1.0000 </r>
       <r>   -22.6632     0.0000     1.0000 </r>
       <r>   -22.5342     0.0000     1.0000 </r>
       <r>   -22.4053     0.0000     1.0000 </r>
       <r>   -22.2764     0.0000     1.0000 </r>
       <r>   -22.1474     0.0000     1.0000 </r>
       <r>   -22.0185     0.0000     1.0000 </r>
       <r>   -21.8896     0.0000     1.0000 </r>
       <r>   -21.7606     0.0000     1.0000 </r>
       <r>   -21.6317     0.0000     1.0000 </r>
       <r>   -21.5028     0.0000     1.0000 </r>
       <r>   -21.3738     0.0000     1.0000 </r>
       <r>   -21.2449     0.0000     1.0000 </r>
       <r>   -21.1159     0.0000     1.0000 </r>
       <r>   -20.9870     0.0000     1.0000 </r>
       <r>   -20.8581     0.0000     1.0000 </r>
       <r>   -20.7291     0.0000     1.0000 </r>
       <r>   -20.6002     0.0000     1.0000 </r>
       <r>   -20.4713     0.0000     1.0000 </r>
       <r>   -20.3423     0.0000     1.0000 </r>
       <r>   -20.2134     0.0000     1.0000 </r>
       <r>   -20.0844     0.0000     1.0000 </r>
       <r>   -19.9555     0.0000     1.0000 </r>
       <r>   -19.8266     0.0000     1.0000 </r>
       <r>   -19.6976     0.0000     1.0000 </r>
       <r>   -19.5687     0.0000     1.0000 </r>
       <r>   -19.4398     0.0000     1.0000 </r>
       <r>   -19.3108     0.0000     1.0000 </r>
       <r>   -19.1819     0.0000     1.0000 </r>
       <r>   -19.0530     0.0000     1.0000 </r>
       <r>   -18.9240     0.0000     1.0000 </r>
       <r>   -18.7951     0.0000     1.0000 </r>
       <r>   -18.6661     0.0000     1.0000 </r>
       <r>   -18.5372     0.0000     1.0000 </r>
       <r>   -18.4083     0.0000     1.0000 </r>
       <r>   -18.2793     0.0000     1.0000 </r>
       <r>   -18.1504     0.0000     1.0000 </r>
       <r>   -18.0215     0.0000     1.0000 </r>
       <r>   -17.8925     0.0000     1.0000 </r>
       <r>   -17.7636     0.0000     1.0000 </r>
       <r>   -17.6346     0.0000     1.0000 </r>
       <r>   -17.5057     0.0000     1.0000 </r>
       <r>   -17.3768     0.0000     1.0000 </r>
       <r>   -17.2478     0.0000     1.0000 </r>
       <r>   -17.1189     0.0000     1.0000 </r>
       <r>   -16.9900     0.0000     1.0000 </r>
       <r>   -16.8610     0.0000     1.0000 </r>
       <r>   -16.7321     0.0000     1.0000 </r>
       <r>   -16.6031     0.0000     1.0000 </r>
       <r>   -16.4742     0.0000     1.0000 </r>
       <r>   -16.3453     0.0000     1.0000 </r>
       <r>   -16.2163     0.0000     1.0000 </r>
       <r>   -16.0874     0.0000     1.0000 </r>
       <r>   -15.9585     0.0000     1.0000 </r>
       <r>   -15.8295     0.0000     1.0000 </r>
       <r>   -15.7006     0.0000     1.0000 </r>
       <r>   -15.5717     0.0334     1.0043 </r>
       <r>   -15.4427     0.0000     2.0000 </r>
       <r>   -15.3138     0.0000     2.0000 </r>
       <r>   -15.1848     0.0000     2.0000 </r>
       <r>   -15.0559     0.0000     2.0000 </r>
       <r>   -14.9270     0.0000     2.0000 </r>
       <r>   -14.7980     0.0000     2.0000 </r>
       <r>   -14.6691     0.0000     2.0000 </r>
       <r>   -14.5402     0.0000     2.0000 </r>
       <r>   -14.4112     0.0000     2.0000 </r>
       <r>   -14.2823     0.0000     2.0000 </r>
       <r>   -14.1533     0.0000     2.0000 </r>
       <r>   -14.0244     0.0000     2.0000 </r>
       <r>   -13.8955     0.0000     2.0000 </r>
       <r>   -13.7665     0.0000     2.0000 </r>
       <r>   -13.6376     0.0000     2.0000 </r>
       <r>   -13.5087     0.0000     2.0000 </r>
       <r>   -13.3797     0.0000     2.0000 </r>
       <r>   -13.2508     0.0000     2.0000 </r>
       <r>   -13.1218     0.0000     2.0000 </r>
       <r>   -12.9929     0.0000     2.0000 </r>
       <r>   -12.8640     0.0000     2.0000 </r>
       <r>   -12.7350     0.1822     2.0235 </r>
       <r>   -12.6061     0.0000     4.0000 </r>
       <r>   -12.4772     0.0000     4.0000 </r>
       <r>   -12.3482     0.0000     4.0000 </r>
       <r>   -12.2193     0.0000     4.0000 </r>
       <r>   -12.0904     0.0000     4.0000 </r>
       <r>   -11.9614     0.0000     4.0000 </r>
       <r>   -11.8325     6.4512     4.8318 </r>
       <r>   -11.7035     0.0000     5.0000 </r>
       <r>   -11.5746     0.0000     5.0000 </r>
       <r>   -11.4457     0.0000     5.0000 </r>
       <r>   -11.3167     0.0000     5.0000 </r>
       <r>   -11.1878     0.0000     5.0000 </r>
       <r>   -11.0589     0.0000     5.0000 </r>
       <r>   -10.9299     0.0000     5.0000 </r>
       <r>   -10.8010     0.0000     5.0000 </r>
       <r>   -10.6720     0.0000     5.0000 </r>
       <r>   -10.5431     0.0000     5.0000 </r>
       <r>   -10.4142     0.0000     5.0000 </r>
       <r>   -10.2852     0.0000     5.0000 </r>
       <r>   -10.1563     0.0000     5.0000 </r>
       <r>   -10.0274     0.0000     5.0000 </r>
       <r>    -9.8984     0.0000     5.0000 </r>
       <r>    -9.7695     0.0000     5.0000 </r>
       <r>    -9.6406     0.0000     5.0000 </r>
       <r>    -9.5116     0.0000     5.0000 </r>
       <r>    -9.3827     0.0000     5.0000 </r>
       <r>    -9.2537     0.0000     5.0000 </r>
       <r>    -9.1248     0.0000     5.0000 </r>
       <r>    -8.9959     0.0000     5.0000 </r>
       <r>    -8.8669     0.0000     5.0000 </r>
       <r>    -8.7380     0.0000     5.0000 </r>
       <r>    -8.6091     0.0000     5.0000 </r>
       <r>    -8.4801     0.0000     5.0000 </r>
       <r>    -8.3512     0.0000     5.0000 </r>
       <r>    -8.2222     0.0000     5.0000 </r>
       <r>    -8.0933     0.0000     5.0000 </r>
       <r>    -7.9644     0.0000     5.0000 </r>
       <r>    -7.8354     0.0000     5.0000 </r>
       <r>    -7.7065     0.0000     5.0000 </r>
       <r>    -7.5776     0.0000     5.0000 </r>
       <r>    -7.4486     0.0000     5.0000 </r>
       <r>    -7.3197     0.0000     5.0000 </r>
       <r>    -7.1907     0.0000     5.0000 </r>
       <r>    -7.0618     0.0000     5.0000 </r>
       <r>    -6.9329     0.0000     5.0000 </r>
       <r>    -6.8039     0.0000     5.0000 </r>
       <r>    -6.6750     0.0000     5.0000 </r>
       <r>    -6.5461     0.0000     5.0000 </r>
       <r>    -6.4171     0.0000     5.0000 </r>
       <r>    -6.2882     0.0000     5.0000 </r>
       <r>    -6.1593     0.0000     5.0000 </r>
       <r>    -6.0303     0.0000     5.0000 </r>
       <r>    -5.9014     0.0000     5.0000 </r>
       <r>    -5.7724     0.0000     5.0000 </r>
       <r>    -5.6435     0.0000     5.0000 </r>
       <r>    -5.5146     0.0000     5.0000 </r>
       <r>    -5.3856     0.0000     5.0000 </r>
       <r>    -5.2567     0.0000     5.0000 </r>
       <r>    -5.1278     0.0000     5.0000 </r>
       <r>    -4.9988     0.0000     5.0000 </r>
       <r>    -4.8699     0.0000     5.0000 </r>
       <r>    -4.7409     0.0000     5.0000 </r>
       <r>    -4.6120     0.0000     5.0000 </r>
       <r>    -4.4831     0.0000     5.0000 </r>
       <r>    -4.3541     0.0000     5.0000 </r>
       <r>    -4.2252     0.0000     5.0000 </r>
       <r>    -4.0963     0.0000     5.0000 </r>
       <r>    -3.9673     0.0000     5.0000 </r>
       <r>    -3.8384     0.0000     5.0000 </r>
       <r>    -3.7094     0.0000     5.0000 </r>
       <r>    -3.5805     0.0000     5.0000 </r>
       <r>    -3.4516     0.0000     5.0000 </r>
       <r>    -3.3226     0.0000     5.0000 </r>
       <r>    -3.1937     0.0000     5.0000 </r>
       <r>    -3.0648     0.0000     5.0000 </r>
       <r>    -2.9358     0.0000     5.0000 </r>
       <r>    -2.8069     0.0000     5.0000 </r>
       <r>    -2.6780     0.0000     5.0000 </r>
       <r>    -2.5490     0.0000     5.0000 </r>
       <r>    -2.4201     0.0000     5.0000 </r>
       <r>    -2.2911     0.0000     5.0000 </r>
       <r>    -2.1622     0.0000     5.0000 </r>
       <r>    -2.0333     0.0000     5.0000 </r>
       <r>    -1.9043     0.0000     5.0000 </r>
       <r>    -1.7754     0.0000     5.0000 </r>
       <r>    -1.6465     0.0000     5.0000 </r>
       <r>    -1.5175     0.0000     5.0000 </r>
       <r>    -1.3886     0.0000     5.0000 </r>
       <r>    -1.2596     0.0000     5.0000 </r>
       <r>    -1.1307     0.0000     5.0000 </r>
       <r>    -1.0018     0.0000     5.0000 </r>
       <r>    -0.8728     0.0000     5.0000 </r>
       <r>    -0.7439     0.0000     5.0000 </r>
       <r>    -0.6150    10.6641     7.0000 </r>
       <r>    -0.4860     0.0000     7.0000 </r>
       <r>    -0.3571     0.0000     7.0000 </r>
       <r>    -0.2282     0.0000     7.0000 </r>
       <r>    -0.0992     0.9690     7.1249 </r>
       <r>     0.0297     0.0000     7.1250 </r>
       <r>     0.1587     0.0000     7.1250 </r>
       <r>     0.2876     0.9695     7.2500 </r>
       <r>     0.4165     0.8783     7.3632 </r>
       <r>     0.5455     1.8738     7.8666 </r>
       <r>     0.6744     0.0000     7.8750 </r>
       <r>     0.8033     1.5467     8.0744 </r>
       <r>     0.9323     1.9366     8.4997 </r>
       <r>     1.0612     0.9695     8.8750 </r>
       <r>     1.1902     0.2815     8.9113 </r>
       <r>     1.3191     0.0000     9.0000 </r>
       <r>     1.4480     0.9690     9.1249 </r>
       <r>     1.5770     0.0000     9.1250 </r>
       <r>     1.7059     1.9389     9.3750 </r>
       <r>     1.8348     0.0000     9.3750 </r>
       <r>     1.9638     0.9444     9.4968 </r>
       <r>     2.0927     0.1238     9.5160 </r>
       <r>     2.2217     0.9688     9.7499 </r>
       <r>     2.3506     0.0000     9.7500 </r>
       <r>     2.4795     0.0000     9.7500 </r>
       <r>     2.6085     0.0000     9.7500 </r>
       <r>     2.7374     0.0000     9.7500 </r>
       <r>     2.8663     0.0000     9.7500 </r>
       <r>     2.9953     0.0000     9.7500 </r>
       <r>     3.1242     0.0000     9.7500 </r>
       <r>     3.2531     0.0000     9.7500 </r>
       <r>     3.3821     0.9695     9.8750 </r>
       <r>     3.5110     0.0000     9.8750 </r>
       <r>     3.6400     0.0000     9.8750 </r>
       <r>     3.7689     0.0000    10.0000 </r>
       <r>     3.8978     0.0000    10.0000 </r>
       <r>     4.0268     0.0000    10.0000 </r>
       <r>     4.1557     0.0000    10.0000 </r>
       <r>     4.2846     0.0000    10.0000 </r>
       <r>     4.4136     0.0000    10.0000 </r>
       <r>     4.5425     0.0000    10.0000 </r>
       <r>     4.6715     0.0000    10.0000 </r>
       <r>     4.8004     0.0000    10.0000 </r>
       <r>     4.9293     0.0000    10.0000 </r>
       <r>     5.0583     0.0000    10.0000 </r>
       <r>     5.1872     0.0000    10.0000 </r>
       <r>     5.3161     0.0000    10.0000 </r>
       <r>     5.4451     0.0000    10.0000 </r>
      </set>
     </set>
    </array>
   </total>
  </dos>
 </calculation>
 <structure name="finalpos" >
  <crystal>
   <varray name="basis" >
    <v>       7.50000000       0.00000000       0.00000000 </v>
    <v>       0.00000000       8.00000000       0.00000000 </v>
    <v>       0.00000000       0.00000000       8.90000000 </v>
   </varray>
   <i name="volume">    534.00000000 </i>
   <varray name="rec_basis" >
    <v>       0.13333333       0.00000000       0.00000000 </v>
    <v>       0.00000000       0.12500000       0.00000000 </v>
    <v>       0.00000000       0.00000000       0.11235955 </v>
   </varray>
  </crystal>
  <varray name="positions" >
   <v>       0.00000000       0.00000000       0.99916932 </v>
   <v>       0.00000000       0.00000000       0.12442618 </v>
  </varray>
 </structure>
</modeling>
