 running    4 mpi-ranks, on    1 nodes
 distrk:  each k-point on    1 cores,    4 groups
 distr:  one band on    1 cores,    1 groups
 OpenACC runtime initialized ...    4 GPUs detected
 vasp.6.4.2 20Jul23 (build Nov 12 2023 22:16:35) complex                         
 POSCAR found type information on POSCAR GaO P 
 POSCAR found :  3 types and     119 ions
 scaLAPACK will be used selectively (only on CPU)
 LDA part: xc-table for Pade appr. of Perdew
 POSCAR, INCAR and KPOINTS ok, starting setup
 FFT: planning ... GRIDC
 FFT: planning ... GRID_SOFT
 FFT: planning ... GRID
 WAVECAR not read
 initial charge from wavefunction
 entering main loop
       N       E                     dE             d eps       ncg     rms          ort
DAV:   1    -0.213258551121E+05   -0.21326E+05   -0.54404E+05  5000   0.751E+03
DAV:   2    -0.657433690758E+05   -0.44418E+05   -0.42914E+05  5000   0.124E+03
DAV:   3    -0.708218029672E+05   -0.50784E+04   -0.45933E+04  5000   0.376E+02
DAV:   4    -0.716027844288E+05   -0.78098E+03   -0.69755E+03  5000   0.121E+02
DAV:   5    -0.391779255575E+05    0.32425E+05   -0.72192E+02  5000   0.600E+01
 gam= 0.000 g(H,U,f)=  0.839E+05 0.267E+05 0.686E-01 ort(H,U,f) = 0.000E+00 0.000E+00 0.000E+00
SDA:   6     0.353658141370E+05    0.74544E+05   -0.72192E+02  5000   0.111E+06 0.000E+00
 gam= 0.000 trial= 0.400  step= 0.456 mean= 0.400
 gam= 0.601 g(H,U,f)=  0.463E+05 0.194E+05 0.640E+03 ort(H,U,f) =-0.101E+05-0.137E+05-0.697E+03
CGA:   7     0.124149256425E+05   -0.22951E+05   -0.25214E+05  5000   0.664E+05-0.245E+05
 gam= 0.601 trial= 0.403  step= 0.268 mean= 0.403
 gam= 0.290 g(H,U,f)=  0.151E+05 0.404E+04 0.101E+03 ort(H,U,f) =-0.221E+04 0.257E+04-0.360E+03
CGA:   8     0.503530766552E+04   -0.73796E+04   -0.69351E+04  5000   0.193E+05-0.126E+01
 gam= 0.290 trial= 0.396  step= 0.243 mean= 0.396
 gam= 0.920 g(H,U,f)=  0.106E+05 0.655E+04 0.557E+03 ort(H,U,f) = 0.305E+04-0.213E+04-0.379E+03
CGA:   9     0.322937152802E+04   -0.18059E+04   -0.23436E+04  5000   0.177E+05 0.539E+03
 gam= 0.920 trial= 0.388  step= 0.242 mean= 0.388
 gam= 0.324 g(H,U,f)=  0.482E+04 0.891E+03 0.317E+02 ort(H,U,f) = 0.573E+03 0.617E+03 0.126E+01
CGA:  10     0.156636829652E+04   -0.16630E+04   -0.22041E+04  5000   0.574E+04 0.119E+04
 gam= 0.324 trial= 0.381  step= 0.377 mean= 0.381
 gam= 0.462 g(H,U,f)=  0.202E+04 0.581E+03 0.474E+02 ort(H,U,f) = 0.630E+03-0.116E+02-0.468E+02
CGA:  11     0.414897664386E+03   -0.11515E+04   -0.11540E+04  5000   0.265E+04 0.572E+03
 gam= 0.462 trial= 0.381  step= 0.435 mean= 0.381
 gam= 0.407 g(H,U,f)=  0.941E+03 0.136E+03 0.197E+01 ort(H,U,f) = 0.101E+03 0.222E+03 0.434E+01
CGA:  12    -0.235713807390E+03   -0.65061E+03   -0.63450E+03  5000   0.108E+04 0.327E+03
 gam= 0.407 trial= 0.384  step= 0.657 mean= 0.384
 gam= 0.563 g(H,U,f)=  0.520E+03 0.869E+02 0.573E+00 ort(H,U,f) =-0.226E+03 0.200E+03 0.108E+01
CGA:  13    -0.632624744242E+03   -0.39691E+03   -0.39803E+03  5000   0.607E+03-0.249E+02
 gam= 0.563 trial= 0.397  step= 0.661 mean= 0.397
 gam= 0.566 g(H,U,f)=  0.313E+03 0.301E+02 0.722E+00 ort(H,U,f) =-0.136E+03 0.262E+02 0.144E+01
CGA:  14    -0.812826149746E+03   -0.18020E+03   -0.19616E+03  5000   0.344E+03-0.108E+03
 gam= 0.566 trial= 0.410  step= 0.431 mean= 0.410
 gam= 0.542 g(H,U,f)=  0.151E+03 0.347E+02 0.602E+00 ort(H,U,f) = 0.381E+02-0.447E+02-0.172E+00
CGA:  15    -0.873603258920E+03   -0.60777E+02   -0.60877E+02  5000   0.186E+03-0.676E+01
 gam= 0.542 trial= 0.412  step= 0.432 mean= 0.412
 gam= 0.533 g(H,U,f)=  0.710E+02 0.283E+02 0.209E-01 ort(H,U,f) = 0.740E+01-0.855E+01 0.333E-01
CGA:  16    -0.913029466269E+03   -0.39426E+02   -0.39447E+02  5000   0.993E+02-0.111E+01
 gam= 0.533 trial= 0.413  step= 0.485 mean= 0.413
 gam= 0.611 g(H,U,f)=  0.446E+02 0.160E+02 0.554E-08 ort(H,U,f) =-0.911E+01 0.983E+01 0.174E-07
CGA:  17    -0.936973898041E+03   -0.23944E+02   -0.23926E+02  5000   0.606E+02 0.718E+00
 gam= 0.611 trial= 0.416  step= 0.520 mean= 0.416
 gam= 0.660 g(H,U,f)=  0.313E+02 0.874E+01 0.167E-13 ort(H,U,f) =-0.121E+02 0.118E+02 0.969E-13
CGA:  18    -0.952803183279E+03   -0.15829E+02   -0.15877E+02  5000   0.400E+02-0.390E+00
 gam= 0.660 trial= 0.421  step= 0.512 mean= 0.421
 gam= 0.611 g(H,U,f)=  0.201E+02 0.437E+01 0.328E-17 ort(H,U,f) =-0.741E+01 0.740E+01 0.161E-16
CGA:  19    -0.962972238177E+03   -0.10169E+02   -0.10175E+02  5000   0.245E+02-0.118E-02
 gam= 0.611 trial= 0.426  step= 0.487 mean= 0.426
 gam= 0.584 g(H,U,f)=  0.120E+02 0.226E+01 0.388E-16 ort(H,U,f) =-0.285E+01 0.303E+01 0.254E-15
CGA:  20    -0.968931786359E+03   -0.59595E+01   -0.59564E+01  5000   0.143E+02 0.181E+00
 gam= 0.584 trial= 0.429  step= 0.498 mean= 0.429
 gam= 0.535 g(H,U,f)=  0.655E+01 0.110E+01 0.521E-18 ort(H,U,f) =-0.435E+00 0.686E+00-0.440E-17
CGA:  21    -0.972524047953E+03   -0.35923E+01   -0.35824E+01  5000   0.765E+01 0.251E+00
 gam= 0.535 trial= 0.432  step= 0.479 mean= 0.432
 gam= 0.551 g(H,U,f)=  0.350E+01 0.715E+00 0.613E-17 ort(H,U,f) =-0.334E-02 0.124E+00-0.507E-17
CGA:  22    -0.974390815432E+03   -0.18668E+01   -0.18634E+01  5000   0.422E+01 0.120E+00
 gam= 0.551 trial= 0.435  step= 0.504 mean= 0.435
 gam= 0.646 g(H,U,f)=  0.221E+01 0.513E+00 0.244E-19 ort(H,U,f) =-0.160E+00 0.204E+00 0.160E-19
CGA:  23    -0.975472558420E+03   -0.10817E+01   -0.10800E+01  5000   0.272E+01 0.436E-01
 gam= 0.646 trial= 0.438  step= 0.452 mean= 0.438
 gam= 0.531 g(H,U,f)=  0.111E+01 0.336E+00 0.958E-14 ort(H,U,f) =-0.288E+00 0.299E+00 0.245E-13
CGA:  24    -0.976094203535E+03   -0.62165E+00   -0.62158E+00  5000   0.145E+01 0.114E-01
 gam= 0.531 trial= 0.439  step= 0.481 mean= 0.439
 gam= 0.616 g(H,U,f)=  0.698E+00 0.192E+00 0.169E-13 ort(H,U,f) =-0.259E+00 0.262E+00 0.117E-12
CGA:  25    -0.976443471488E+03   -0.34927E+00   -0.34925E+00  5000   0.890E+00 0.244E-02
 gam= 0.616 trial= 0.441  step= 0.540 mean= 0.441
 gam= 0.597 g(H,U,f)=  0.444E+00 0.877E-01 0.184E-19 ort(H,U,f) =-0.138E+00 0.139E+00 0.110E-17
CGA:  26    -0.976684398275E+03   -0.24093E+00   -0.24091E+00  5000   0.531E+00 0.833E-03
 gam= 0.597 trial= 0.446  step= 0.519 mean= 0.446
 gam= 0.529 g(H,U,f)=  0.238E+00 0.429E-01 0.964E-20 ort(H,U,f) =-0.405E-01 0.415E-01-0.261E-18
CGA:  27    -0.976822434634E+03   -0.13804E+00   -0.13800E+00  5000   0.281E+00 0.943E-03
 gam= 0.529 trial= 0.450  step= 0.539 mean= 0.450
 gam= 0.645 g(H,U,f)=  0.153E+00 0.287E-01 0.930E-13 ort(H,U,f) =-0.759E-02 0.791E-02-0.554E-12
CGA:  28    -0.976898406089E+03   -0.75971E-01   -0.75956E-01  5000   0.181E+00 0.322E-03
 gam= 0.645 trial= 0.454  step= 0.505 mean= 0.454
 gam= 0.585 g(H,U,f)=  0.853E-01 0.208E-01 0.152E-13 ort(H,U,f) =-0.318E-02 0.318E-02 0.409E-13
CGA:  29    -0.976944246850E+03   -0.45841E-01   -0.45842E-01  5000   0.106E+00-0.547E-05
 gam= 0.585 trial= 0.457  step= 0.456 mean= 0.457
 gam= 0.557 g(H,U,f)=  0.449E-01 0.142E-01 0.106E-20 ort(H,U,f) =-0.706E-02 0.711E-02-0.205E-21
CGA:  30    -0.976968425205E+03   -0.24178E-01   -0.24178E-01  5000   0.591E-01 0.510E-04
 gam= 0.557 trial= 0.457  step= 0.501 mean= 0.457
 gam= 0.631 g(H,U,f)=  0.283E-01 0.907E-02 0.273E-13 ort(H,U,f) =-0.809E-02 0.824E-02-0.659E-14
CGA:  31    -0.976983251913E+03   -0.14827E-01   -0.14823E-01  5000   0.373E-01 0.150E-03
 gam= 0.631 trial= 0.459  step= 0.533 mean= 0.459
 gam= 0.597 g(H,U,f)=  0.178E-01 0.447E-02 0.780E-14 ort(H,U,f) =-0.602E-02 0.618E-02 0.827E-14
CGA:  32    -0.976993227184E+03   -0.99753E-02   -0.99691E-02  5000   0.223E-01 0.160E-03
 gam= 0.597 trial= 0.462  step= 0.536 mean= 0.462
 gam= 0.592 g(H,U,f)=  0.112E-01 0.196E-02 0.152E-13 ort(H,U,f) =-0.249E-02 0.256E-02 0.178E-12
CGA:  33    -0.976999230904E+03   -0.60037E-02   -0.60013E-02  5000   0.132E-01 0.622E-04
 gam= 0.592 trial= 0.466  step= 0.544 mean= 0.466
 gam= 0.635 g(H,U,f)=  0.722E-02 0.116E-02 0.464E-14 ort(H,U,f) =-0.466E-03 0.448E-03-0.498E-13
CGA:  34    -0.977002829958E+03   -0.35991E-02   -0.35998E-02  5000   0.838E-02-0.187E-04
 gam= 0.635 trial= 0.470  step= 0.502 mean= 0.470
 gam= 0.574 g(H,U,f)=  0.399E-02 0.824E-03 0.269E-16 ort(H,U,f) =-0.137E-05-0.212E-04 0.160E-15
CGA:  35    -0.977004930035E+03   -0.21001E-02   -0.21004E-02  5000   0.482E-02-0.226E-04
 gam= 0.574 trial= 0.472  step= 0.473 mean= 0.472
 gam= 0.584 g(H,U,f)=  0.218E-02 0.636E-03 0.397E-16 ort(H,U,f) =-0.165E-03 0.165E-03-0.161E-15
CGA:  36    -0.977006065378E+03   -0.11353E-02   -0.11353E-02  5000   0.281E-02-0.549E-06
 gam= 0.584 trial= 0.472  step= 0.504 mean= 0.472
 gam= 0.000 g(H,U,f)=  0.132E-02 0.431E-03 0.399E-14 ort(H,U,f) =-0.332E-03 0.335E-03-0.695E-14
SDA:  37    -0.977006774157E+03   -0.70878E-03   -0.70872E-03  5000   0.175E-02 0.341E-05
 gam= 0.000 trial= 0.473  step= 0.855 mean= 0.473
 gam= 0.480 g(H,U,f)=  0.654E-03 0.186E-03 0.195E-21 ort(H,U,f) =-0.257E-03 0.242E-03 0.220E-21
CGA:  38    -0.977007518539E+03   -0.74438E-03   -0.74712E-03  5000   0.839E-03-0.144E-04
 gam= 0.480 trial= 0.492  step= 0.651 mean= 0.492
 gam= 0.527 g(H,U,f)=  0.384E-03 0.585E-04 0.892E-20 ort(H,U,f) =-0.170E-03 0.170E-03 0.238E-19
CGA:  39    -0.977007789420E+03   -0.27088E-03   -0.27089E-03  5000   0.442E-03-0.100E-06
 gam= 0.527 trial= 0.500  step= 0.480 mean= 0.500
 gam= 0.334 g(H,U,f)=  0.132E-03 0.154E-04 0.745E-19 ort(H,U,f) =-0.735E-04 0.725E-04 0.420E-18
CGA:  40    -0.977007895602E+03   -0.10618E-03   -0.10617E-03  5000   0.148E-03-0.980E-06
 gam= 0.334 trial= 0.499  step= 0.515 mean= 0.499
 gam= 0.409 g(H,U,f)=  0.565E-04 0.386E-05 0.240E-18 ort(H,U,f) =-0.225E-04 0.184E-04 0.183E-17
CGA:  41    -0.977007933496E+03   -0.37894E-04   -0.37927E-04  5000   0.603E-04-0.411E-05
 gam= 0.409 trial= 0.500  step= 0.505 mean= 0.500
 gam= 0.280 g(H,U,f)=  0.163E-04 0.589E-06 0.564E-18 ort(H,U,f) =-0.578E-05 0.375E-05 0.617E-17
CGA:  42    -0.977007948308E+03   -0.14812E-04   -0.14817E-04  5000   0.169E-04-0.202E-05
 gam= 0.280 trial= 0.500  step= 0.485 mean= 0.500
 gam= 0.389 g(H,U,f)=  0.636E-05 0.218E-06 0.112E-17 ort(H,U,f) =-0.109E-05 0.590E-06 0.969E-17
CGA:  43    -0.977007952272E+03   -0.39641E-05   -0.39602E-05  5000   0.658E-05-0.502E-06
 gam= 0.389 trial= 0.500  step= 0.529 mean= 0.500
 final diagonalization
   1 F= -.97700795E+03 E0= -.97700795E+03  d E =-.315621E-12
 writing wavefunctions
Warning: ieee_invalid is signaling
Warning: ieee_divide_by_zero is signaling
Warning: ieee_underflow is signaling
Warning: ieee_inexact is signaling
FORTRAN STOP
Warning: ieee_invalid is signaling
Warning: ieee_divide_by_zero is signaling
Warning: ieee_underflow is signaling
Warning: ieee_inexact is signaling
FORTRAN STOP
Warning: ieee_invalid is signaling
Warning: ieee_divide_by_zero is signaling
Warning: ieee_underflow is signaling
Warning: ieee_inexact is signaling
FORTRAN STOP
Warning: ieee_invalid is signaling
Warning: ieee_divide_by_zero is signaling
Warning: ieee_underflow is signaling
Warning: ieee_inexact is signaling
FORTRAN STOP
