       N       E                     dE             d eps       ncg     rms          ort
DAV:   1    -0.213258551121E+05   -0.21326E+05   -0.54404E+05  5000   0.751E+03
DAV:   2    -0.657433690758E+05   -0.44418E+05   -0.42914E+05  5000   0.124E+03
DAV:   3    -0.708218029672E+05   -0.50784E+04   -0.45933E+04  5000   0.376E+02
DAV:   4    -0.716027844288E+05   -0.78098E+03   -0.69755E+03  5000   0.121E+02
DAV:   5    -0.391779255575E+05    0.32425E+05   -0.72192E+02  5000   0.600E+01
SDA:   6     0.353658141370E+05    0.74544E+05   -0.72192E+02  5000   0.111E+06 0.000E+00
CGA:   7     0.124149256425E+05   -0.22951E+05   -0.25214E+05  5000   0.664E+05-0.245E+05
CGA:   8     0.503530766552E+04   -0.73796E+04   -0.69351E+04  5000   0.193E+05-0.126E+01
CGA:   9     0.322937152802E+04   -0.18059E+04   -0.23436E+04  5000   0.177E+05 0.539E+03
CGA:  10     0.156636829652E+04   -0.16630E+04   -0.22041E+04  5000   0.574E+04 0.119E+04
CGA:  11     0.414897664386E+03   -0.11515E+04   -0.11540E+04  5000   0.265E+04 0.572E+03
CGA:  12    -0.235713807390E+03   -0.65061E+03   -0.63450E+03  5000   0.108E+04 0.327E+03
CGA:  13    -0.632624744242E+03   -0.39691E+03   -0.39803E+03  5000   0.607E+03-0.249E+02
CGA:  14    -0.812826149746E+03   -0.18020E+03   -0.19616E+03  5000   0.344E+03-0.108E+03
CGA:  15    -0.873603258920E+03   -0.60777E+02   -0.60877E+02  5000   0.186E+03-0.676E+01
CGA:  16    -0.913029466269E+03   -0.39426E+02   -0.39447E+02  5000   0.993E+02-0.111E+01
CGA:  17    -0.936973898041E+03   -0.23944E+02   -0.23926E+02  5000   0.606E+02 0.718E+00
CGA:  18    -0.952803183279E+03   -0.15829E+02   -0.15877E+02  5000   0.400E+02-0.390E+00
CGA:  19    -0.962972238177E+03   -0.10169E+02   -0.10175E+02  5000   0.245E+02-0.118E-02
CGA:  20    -0.968931786359E+03   -0.59595E+01   -0.59564E+01  5000   0.143E+02 0.181E+00
CGA:  21    -0.972524047953E+03   -0.35923E+01   -0.35824E+01  5000   0.765E+01 0.251E+00
CGA:  22    -0.974390815432E+03   -0.18668E+01   -0.18634E+01  5000   0.422E+01 0.120E+00
CGA:  23    -0.975472558420E+03   -0.10817E+01   -0.10800E+01  5000   0.272E+01 0.436E-01
CGA:  24    -0.976094203535E+03   -0.62165E+00   -0.62158E+00  5000   0.145E+01 0.114E-01
CGA:  25    -0.976443471488E+03   -0.34927E+00   -0.34925E+00  5000   0.890E+00 0.244E-02
CGA:  26    -0.976684398275E+03   -0.24093E+00   -0.24091E+00  5000   0.531E+00 0.833E-03
CGA:  27    -0.976822434634E+03   -0.13804E+00   -0.13800E+00  5000   0.281E+00 0.943E-03
CGA:  28    -0.976898406089E+03   -0.75971E-01   -0.75956E-01  5000   0.181E+00 0.322E-03
CGA:  29    -0.976944246850E+03   -0.45841E-01   -0.45842E-01  5000   0.106E+00-0.547E-05
CGA:  30    -0.976968425205E+03   -0.24178E-01   -0.24178E-01  5000   0.591E-01 0.510E-04
CGA:  31    -0.976983251913E+03   -0.14827E-01   -0.14823E-01  5000   0.373E-01 0.150E-03
CGA:  32    -0.976993227184E+03   -0.99753E-02   -0.99691E-02  5000   0.223E-01 0.160E-03
CGA:  33    -0.976999230904E+03   -0.60037E-02   -0.60013E-02  5000   0.132E-01 0.622E-04
CGA:  34    -0.977002829958E+03   -0.35991E-02   -0.35998E-02  5000   0.838E-02-0.187E-04
CGA:  35    -0.977004930035E+03   -0.21001E-02   -0.21004E-02  5000   0.482E-02-0.226E-04
CGA:  36    -0.977006065378E+03   -0.11353E-02   -0.11353E-02  5000   0.281E-02-0.549E-06
SDA:  37    -0.977006774157E+03   -0.70878E-03   -0.70872E-03  5000   0.175E-02 0.341E-05
CGA:  38    -0.977007518539E+03   -0.74438E-03   -0.74712E-03  5000   0.839E-03-0.144E-04
CGA:  39    -0.977007789420E+03   -0.27088E-03   -0.27089E-03  5000   0.442E-03-0.100E-06
CGA:  40    -0.977007895602E+03   -0.10618E-03   -0.10617E-03  5000   0.148E-03-0.980E-06
CGA:  41    -0.977007933496E+03   -0.37894E-04   -0.37927E-04  5000   0.603E-04-0.411E-05
CGA:  42    -0.977007948308E+03   -0.14812E-04   -0.14817E-04  5000   0.169E-04-0.202E-05
CGA:  43    -0.977007952272E+03   -0.39641E-05   -0.39602E-05  5000   0.658E-05-0.502E-06
   1 F= -.97700795E+03 E0= -.97700795E+03  d E =-.315621E-12
