<?xml version="1.0" encoding="ISO-8859-1"?>
<modeling>
 <generator>
  <i name="program" type="string">vasp </i>
  <i name="version" type="string">6.4.2  </i>
  <i name="subversion" type="string">20Jul23 (build Nov 12 2023 22:16:35) complex                          parallel </i>
  <i name="platform" type="string">LinuxNV </i>
  <i name="date" type="string">2025 03 13 </i>
  <i name="time" type="string">23:43:52 </i>
 </generator>
 <incar>
  <i type="int" name="ISTART">     0</i>
  <i type="string" name="PREC">Normal</i>
  <i type="string" name="ALGO">All</i>
  <i type="int" name="ISPIN">     1</i>
  <i type="int" name="ICHARG">     0</i>
  <i type="int" name="NELM">   500</i>
  <i type="int" name="IBRION">    -1</i>
  <i name="EDIFF">      0.00001000</i>
  <i name="EDIFFG">     -0.00500000</i>
  <i type="int" name="NSW">     0</i>
  <i type="int" name="ISIF">     2</i>
  <i name="ENCUT">    450.00000000</i>
  <i type="string" name="LREAL">Auto</i>
  <i type="logical" name="LPLANE"> T  </i>
  <i name="TIME">      0.40000000</i>
  <i type="int" name="ISMEAR">     0</i>
  <i name="SIGMA">      0.05000000</i>
  <i type="logical" name="LWAVE"> T  </i>
  <i type="logical" name="LCHARG"> T  </i>
  <i name="HFSCREEN">      0.18000000</i>
  <i type="logical" name="LHFCALC"> T  </i>
  <i type="int" name="LMAXFOCK">     4</i>
  <i name="AEXX">      0.35000000</i>
  <i type="string" name="PRECFOCK">Fast</i>
 </incar>
 <primitive_cell>
  <structure name="primitive_cell" >
   <crystal>
    <varray name="basis" >
     <v>       0.00000000      12.28047342       0.00000000 </v>
     <v>       9.14270205       0.00000000       0.00000000 </v>
     <v>       0.00000000      -2.76826177     -11.30069772 </v>
    </varray>
    <i name="volume">   1268.80515525 </i>
    <varray name="rec_basis" >
     <v>       0.00000000       0.08143009      -0.01994742 </v>
     <v>       0.10937686      -0.00000000       0.00000000 </v>
     <v>       0.00000000       0.00000000      -0.08849011 </v>
    </varray>
   </crystal>
   <varray name="positions" >
    <v>       0.65805671       0.99803705       0.15553789 </v>
    <v>       0.66160048       0.99866884       0.65621802 </v>
    <v>       0.65847984       0.33029427       0.15596337 </v>
    <v>       0.65955615       0.33188056       0.65744735 </v>
    <v>       0.65805085       0.66465193       0.15592977 </v>
    <v>       0.66163386       0.66495665       0.65639582 </v>
    <v>       0.84388527       0.16390227       0.34145082 </v>
    <v>       0.84189815       0.16230361       0.84502684 </v>
    <v>       0.83984587       0.50082199       0.34113395 </v>
    <v>       0.84228686       0.49751744       0.84362916 </v>
    <v>       0.84198807       0.83391648       0.34258796 </v>
    <v>       0.84141815       0.82998669       0.84542088 </v>
    <v>       0.59258948       0.16423789       0.39727169 </v>
    <v>       0.59124856       0.16387583       0.89681257 </v>
    <v>       0.59186216       0.49708634       0.39791405 </v>
    <v>       0.59299977       0.50143464       0.89764434 </v>
    <v>       0.59082938       0.83128735       0.39702178 </v>
    <v>       0.58892460       0.83224990       0.89613533 </v>
    <v>       0.91103203       0.99611038       0.10437237 </v>
    <v>       0.90923003       0.00886201       0.60205600 </v>
    <v>       0.90930679       0.33035403       0.10178730 </v>
    <v>       0.89999540       0.35094167       0.59910452 </v>
    <v>       0.90925178       0.66300988       0.10244771 </v>
    <v>       0.90942084       0.67998268       0.60151760 </v>
    <v>       0.15904228       0.15988595       0.15903068 </v>
    <v>       0.15993160       0.49645127       0.15526658 </v>
    <v>       0.15574361       0.52030737       0.65667577 </v>
    <v>       0.15951032       0.83018153       0.15868855 </v>
    <v>       0.16095959       0.86675035       0.62819344 </v>
    <v>       0.34041222       0.99707863       0.34257567 </v>
    <v>       0.33690791       0.00127746       0.83761240 </v>
    <v>       0.34170099       0.32939719       0.34361162 </v>
    <v>       0.34720024       0.32947985       0.83946085 </v>
    <v>       0.34128529       0.66297158       0.34195137 </v>
    <v>       0.33761861       0.66644290       0.84085449 </v>
    <v>       0.10729908       0.98579178       0.42301755 </v>
    <v>       0.09394095       0.98855734       0.89616334 </v>
    <v>       0.08562644       0.32576757       0.39066719 </v>
    <v>       0.08965320       0.32309709       0.89810937 </v>
    <v>       0.08758250       0.66503646       0.39311673 </v>
    <v>       0.09184126       0.66021963       0.89773103 </v>
    <v>       0.40687779       0.16404333       0.09998923 </v>
    <v>       0.41289786       0.16510085       0.60391202 </v>
    <v>       0.40753385       0.49579557       0.09895544 </v>
    <v>       0.40950588       0.49870730       0.60148091 </v>
    <v>       0.40857187       0.83050224       0.10014618 </v>
    <v>       0.41382499       0.83103170       0.60104895 </v>
    <v>       0.99677020       0.16407165       0.12911104 </v>
    <v>       0.99648798       0.18576075       0.62783004 </v>
    <v>       0.99718821       0.49654757       0.12703885 </v>
    <v>       0.99359113       0.51069987       0.62705299 </v>
    <v>       0.99676852       0.82884278       0.12463583 </v>
    <v>       0.99848683       0.84502458       0.62580384 </v>
    <v>       0.50380492       0.99861195       0.37309493 </v>
    <v>       0.50235750       0.99878117       0.87209966 </v>
    <v>       0.50413482       0.33047534       0.37379398 </v>
    <v>       0.50806284       0.33377871       0.87370190 </v>
    <v>       0.50430155       0.66341521       0.37288398 </v>
    <v>       0.50147035       0.66488297       0.86894917 </v>
    <v>       0.67331123       0.16500501       0.27981628 </v>
    <v>       0.67379390       0.16482100       0.78043717 </v>
    <v>       0.67214768       0.49760200       0.27968191 </v>
    <v>       0.67418445       0.49978799       0.78028731 </v>
    <v>       0.67251282       0.83188927       0.27991061 </v>
    <v>       0.67364722       0.83259689       0.78076193 </v>
    <v>       0.82657620       0.99809107       0.21864663 </v>
    <v>       0.82951157       0.00168702       0.71938294 </v>
    <v>       0.82867305       0.32976343       0.21925353 </v>
    <v>       0.82742763       0.33312933       0.72051809 </v>
    <v>       0.82642694       0.66347165       0.21807504 </v>
    <v>       0.82881497       0.66791588       0.71954358 </v>
    <v>       0.83207370       0.00250235       0.44652911 </v>
    <v>       0.83305537       0.99659281       0.94724121 </v>
    <v>       0.83226680       0.33331849       0.44267590 </v>
    <v>       0.83366908       0.32979959       0.94535466 </v>
    <v>       0.83219653       0.66803516       0.44503894 </v>
    <v>       0.83194992       0.66185974       0.94603269 </v>
    <v>       0.66802656       0.16429298       0.05350442 </v>
    <v>       0.67003260       0.16617715       0.55406242 </v>
    <v>       0.66853566       0.49797635       0.05437920 </v>
    <v>       0.67195508       0.49756757       0.55393047 </v>
    <v>       0.66610452       0.83070473       0.05299354 </v>
    <v>       0.66933395       0.83162013       0.55357575 </v>
    <v>       0.49532884       0.99815807       0.12662353 </v>
    <v>       0.50002609       0.99818676       0.62571891 </v>
    <v>       0.49578505       0.32985573       0.12634070 </v>
    <v>       0.49846043       0.33372977       0.62564702 </v>
    <v>       0.49521368       0.66253707       0.12512645 </v>
    <v>       0.49898776       0.66318624       0.62677965 </v>
    <v>       0.00877000       0.15351766       0.38090002 </v>
    <v>       0.00449410       0.15638217       0.87081525 </v>
    <v>       0.00278728       0.49536394       0.37169856 </v>
    <v>       0.00515489       0.49185805       0.87170427 </v>
    <v>       0.00114797       0.83119974       0.36485895 </v>
    <v>       0.00253802       0.82527635       0.87280787 </v>
    <v>       0.17316626       0.99539950       0.28384381 </v>
    <v>       0.17389341       0.98492338       0.78084300 </v>
    <v>       0.17290429       0.32988616       0.28074891 </v>
    <v>       0.16211084       0.31830849       0.76581977 </v>
    <v>       0.17318982       0.66213199       0.27966344 </v>
    <v>       0.17420972       0.65842188       0.78392921 </v>
    <v>       0.32783520       0.16391725       0.22018726 </v>
    <v>       0.33847995       0.17018263       0.72392055 </v>
    <v>       0.32784703       0.49514402       0.21838159 </v>
    <v>       0.32399364       0.49597540       0.71527440 </v>
    <v>       0.32851735       0.82911981       0.21867691 </v>
    <v>       0.32485855       0.83618521       0.71053783 </v>
    <v>       0.32981309       0.16370900       0.44863126 </v>
    <v>       0.32857610       0.16755554       0.94361548 </v>
    <v>       0.33098247       0.49623254       0.44547902 </v>
    <v>       0.33082980       0.49296531       0.94135769 </v>
    <v>       0.33538433       0.82995029       0.44525712 </v>
    <v>       0.33453615       0.83201065       0.94312341 </v>
    <v>       0.16767751       0.99549504       0.05463913 </v>
    <v>       0.16764148       0.32738114       0.05369356 </v>
    <v>       0.15075661       0.33890113       0.55773921 </v>
    <v>       0.16913025       0.66304998       0.05420343 </v>
    <v>       0.16567230       0.67136184       0.54955166 </v>
    <v>       0.13994981       0.19852817       0.64778002 </v>
   </varray>
  </structure>
  <varray name="primitive_index" >
   <v type="int" >        1 </v>
   <v type="int" >        2 </v>
   <v type="int" >        3 </v>
   <v type="int" >        4 </v>
   <v type="int" >        5 </v>
   <v type="int" >        6 </v>
   <v type="int" >        7 </v>
   <v type="int" >        8 </v>
   <v type="int" >        9 </v>
   <v type="int" >       10 </v>
   <v type="int" >       11 </v>
   <v type="int" >       12 </v>
   <v type="int" >       13 </v>
   <v type="int" >       14 </v>
   <v type="int" >       15 </v>
   <v type="int" >       16 </v>
   <v type="int" >       17 </v>
   <v type="int" >       18 </v>
   <v type="int" >       19 </v>
   <v type="int" >       20 </v>
   <v type="int" >       21 </v>
   <v type="int" >       22 </v>
   <v type="int" >       23 </v>
   <v type="int" >       24 </v>
   <v type="int" >       25 </v>
   <v type="int" >       26 </v>
   <v type="int" >       27 </v>
   <v type="int" >       28 </v>
   <v type="int" >       29 </v>
   <v type="int" >       30 </v>
   <v type="int" >       31 </v>
   <v type="int" >       32 </v>
   <v type="int" >       33 </v>
   <v type="int" >       34 </v>
   <v type="int" >       35 </v>
   <v type="int" >       36 </v>
   <v type="int" >       37 </v>
   <v type="int" >       38 </v>
   <v type="int" >       39 </v>
   <v type="int" >       40 </v>
   <v type="int" >       41 </v>
   <v type="int" >       42 </v>
   <v type="int" >       43 </v>
   <v type="int" >       44 </v>
   <v type="int" >       45 </v>
   <v type="int" >       46 </v>
   <v type="int" >       47 </v>
   <v type="int" >       48 </v>
   <v type="int" >       49 </v>
   <v type="int" >       50 </v>
   <v type="int" >       51 </v>
   <v type="int" >       52 </v>
   <v type="int" >       53 </v>
   <v type="int" >       54 </v>
   <v type="int" >       55 </v>
   <v type="int" >       56 </v>
   <v type="int" >       57 </v>
   <v type="int" >       58 </v>
   <v type="int" >       59 </v>
   <v type="int" >       60 </v>
   <v type="int" >       61 </v>
   <v type="int" >       62 </v>
   <v type="int" >       63 </v>
   <v type="int" >       64 </v>
   <v type="int" >       65 </v>
   <v type="int" >       66 </v>
   <v type="int" >       67 </v>
   <v type="int" >       68 </v>
   <v type="int" >       69 </v>
   <v type="int" >       70 </v>
   <v type="int" >       71 </v>
   <v type="int" >       72 </v>
   <v type="int" >       73 </v>
   <v type="int" >       74 </v>
   <v type="int" >       75 </v>
   <v type="int" >       76 </v>
   <v type="int" >       77 </v>
   <v type="int" >       78 </v>
   <v type="int" >       79 </v>
   <v type="int" >       80 </v>
   <v type="int" >       81 </v>
   <v type="int" >       82 </v>
   <v type="int" >       83 </v>
   <v type="int" >       84 </v>
   <v type="int" >       85 </v>
   <v type="int" >       86 </v>
   <v type="int" >       87 </v>
   <v type="int" >       88 </v>
   <v type="int" >       89 </v>
   <v type="int" >       90 </v>
   <v type="int" >       91 </v>
   <v type="int" >       92 </v>
   <v type="int" >       93 </v>
   <v type="int" >       94 </v>
   <v type="int" >       95 </v>
   <v type="int" >       96 </v>
   <v type="int" >       97 </v>
   <v type="int" >       98 </v>
   <v type="int" >       99 </v>
   <v type="int" >      100 </v>
   <v type="int" >      101 </v>
   <v type="int" >      102 </v>
   <v type="int" >      103 </v>
   <v type="int" >      104 </v>
   <v type="int" >      105 </v>
   <v type="int" >      106 </v>
   <v type="int" >      107 </v>
   <v type="int" >      108 </v>
   <v type="int" >      109 </v>
   <v type="int" >      110 </v>
   <v type="int" >      111 </v>
   <v type="int" >      112 </v>
   <v type="int" >      113 </v>
   <v type="int" >      114 </v>
   <v type="int" >      115 </v>
   <v type="int" >      116 </v>
   <v type="int" >      117 </v>
   <v type="int" >      118 </v>
   <v type="int" >      119 </v>
  </varray>
 </primitive_cell>
 <kpoints>
  <generation param="Gamma">
   <v type="int" name="divisions">       2        2        2 </v>
   <v name="usershift">      0.00000000       0.00000000       0.00000000 </v>
   <v name="genvec1">      0.50000000       0.00000000       0.00000000 </v>
   <v name="genvec2">      0.00000000       0.50000000       0.00000000 </v>
   <v name="genvec3">      0.00000000       0.00000000       0.50000000 </v>
   <v name="shift">      0.00000000       0.00000000       0.00000000 </v>
  </generation>
  <varray name="kpointlist" >
   <v>       0.00000000       0.00000000       0.00000000 </v>
   <v>       0.50000000       0.00000000       0.00000000 </v>
   <v>       0.00000000       0.50000000       0.00000000 </v>
   <v>       0.50000000       0.50000000       0.00000000 </v>
   <v>       0.00000000       0.00000000       0.50000000 </v>
   <v>       0.50000000       0.00000000       0.50000000 </v>
   <v>       0.00000000       0.50000000       0.50000000 </v>
   <v>       0.50000000       0.50000000       0.50000000 </v>
  </varray>
  <varray name="weights" >
   <v>       0.12500000 </v>
   <v>       0.12500000 </v>
   <v>       0.12500000 </v>
   <v>       0.12500000 </v>
   <v>       0.12500000 </v>
   <v>       0.12500000 </v>
   <v>       0.12500000 </v>
   <v>       0.12500000 </v>
  </varray>
 </kpoints>
 <parameters>
  <separator name="general" >
   <i type="string" name="SYSTEM">unknown system</i>
   <i type="logical" name="LCOMPAT"> F  </i>
  </separator>
  <separator name="electronic" >
   <i type="string" name="PREC">normal</i>
   <i name="ENMAX">    450.00000000</i>
   <i name="ENAUG">    605.39200000</i>
   <i name="EDIFF">      0.00001000</i>
   <i type="int" name="IALGO">    58</i>
   <i type="int" name="IWAVPR">    10</i>
   <i type="int" name="NBANDS">   625</i>
   <i type="int" name="NBANDSLOW">    -1</i>
   <i type="int" name="NBANDSHIGH">    -1</i>
   <i name="NELECT">   1042.00000000</i>
   <i type="int" name="TURBO">     0</i>
   <i type="int" name="IRESTART">     0</i>
   <i type="int" name="NREBOOT">     0</i>
   <i type="int" name="NMIN">     0</i>
   <i name="EREF">      0.00000000</i>
   <separator name="electronic smearing" >
    <i type="int" name="ISMEAR">     0</i>
    <i name="SIGMA">      0.05000000</i>
    <i name="KSPACING">      0.50000000</i>
    <i type="logical" name="KGAMMA"> T  </i>
    <i type="logical" name="KBLOWUP"> T  </i>
   </separator>
   <separator name="electronic projectors" >
    <i type="logical" name="LREAL"> T  </i>
    <v name="ROPT">     -0.00050000     -0.00050000     -0.00050000</v>
    <i type="int" name="LMAXPAW">  -100</i>
    <i type="int" name="LMAXMIX">     2</i>
    <i type="logical" name="NLSPLINE"> F  </i>
   </separator>
   <separator name="electronic startup" >
    <i type="int" name="ISTART">     0</i>
    <i type="int" name="ICHARG">     0</i>
    <i type="int" name="INIWAV">     1</i>
   </separator>
   <separator name="electronic spin" >
    <i type="int" name="ISPIN">     1</i>
    <i type="logical" name="LNONCOLLINEAR"> F  </i>
    <v name="MAGMOM">      1.00000000      1.00000000      1.00000000      1.00000000      1.00000000      1.00000000      1.00000000      1.00000000      1.00000000      1.00000000      1.00000000      1.00000000      1.00000000      1.00000000      1.00000000      1.00000000      1.00000000      1.00000000      1.00000000      1.00000000
      1.00000000      1.00000000      1.00000000      1.00000000      1.00000000      1.00000000      1.00000000      1.00000000      1.00000000      1.00000000      1.00000000      1.00000000      1.00000000      1.00000000      1.00000000      1.00000000      1.00000000      1.00000000      1.00000000      1.00000000
      1.00000000      1.00000000      1.00000000      1.00000000      1.00000000      1.00000000      1.00000000      1.00000000      1.00000000      1.00000000      1.00000000      1.00000000      1.00000000      1.00000000      1.00000000      1.00000000      1.00000000      1.00000000      1.00000000      1.00000000
      1.00000000      1.00000000      1.00000000      1.00000000      1.00000000      1.00000000      1.00000000      1.00000000      1.00000000      1.00000000      1.00000000      1.00000000      1.00000000      1.00000000      1.00000000      1.00000000      1.00000000      1.00000000      1.00000000      1.00000000
      1.00000000      1.00000000      1.00000000      1.00000000      1.00000000      1.00000000      1.00000000      1.00000000      1.00000000      1.00000000      1.00000000      1.00000000      1.00000000      1.00000000      1.00000000      1.00000000      1.00000000      1.00000000      1.00000000      1.00000000
      1.00000000      1.00000000      1.00000000      1.00000000      1.00000000      1.00000000      1.00000000      1.00000000      1.00000000      1.00000000      1.00000000      1.00000000      1.00000000      1.00000000      1.00000000      1.00000000      1.00000000      1.00000000      1.00000000</v>
    <i name="NUPDOWN">     -1.00000000</i>
    <i type="logical" name="LSORBIT"> F  </i>
    <v name="SAXIS">      0.00000000      0.00000000      1.00000000</v>
    <i type="logical" name="LSPIRAL"> F  </i>
    <v name="QSPIRAL">      0.00000000      0.00000000      0.00000000</v>
    <i type="logical" name="LZEROZ"> F  </i>
   </separator>
   <separator name="electronic exchange-correlation" >
    <i type="logical" name="LASPH"> F  </i>
    <i type="logical" name="LMETAGGA"> F  </i>
   </separator>
   <separator name="electronic convergence" >
    <i type="int" name="NELM">   500</i>
    <i type="int" name="NELMDL">    -5</i>
    <i type="int" name="NELMIN">     2</i>
    <i name="ENINI">    450.00000000</i>
    <separator name="electronic convergence detail" >
     <i type="logical" name="LDIAG"> T  </i>
     <i type="logical" name="LSUBROT"> F  </i>
     <i name="WEIMIN">      0.00000000</i>
     <i name="EBREAK">      0.00000000</i>
     <i name="DEPER">      0.30000000</i>
     <i type="int" name="NRMM">     4</i>
     <i name="TIME">      0.40000000</i>
    </separator>
   </separator>
   <separator name="electronic mixer" >
    <i name="AMIX">      0.40000000</i>
    <i name="BMIX">      1.00000000</i>
    <i name="AMIN">      0.10000000</i>
    <i name="AMIX_MAG">      1.60000000</i>
    <i name="BMIX_MAG">      1.00000000</i>
    <separator name="electronic mixer details" >
     <i type="int" name="IMIX">     4</i>
     <i type="logical" name="MIXFIRST"> F  </i>
     <i type="int" name="MAXMIX">   -45</i>
     <i name="WC">    100.00000000</i>
     <i type="int" name="INIMIX">     1</i>
     <i type="int" name="MIXPRE">     1</i>
     <i type="int" name="MREMOVE">     5</i>
    </separator>
   </separator>
   <separator name="electronic dipolcorrection" >
    <i type="logical" name="LDIPOL"> F  </i>
    <i type="logical" name="LMONO"> F  </i>
    <i type="int" name="IDIPOL">     0</i>
    <i name="EPSILON">      1.00000000</i>
    <v name="DIPOL">   -100.00000000   -100.00000000   -100.00000000</v>
    <i name="EFIELD">      0.00000000</i>
   </separator>
  </separator>
  <separator name="grids" >
   <i type="int" name="NGX">    64</i>
   <i type="int" name="NGY">    48</i>
   <i type="int" name="NGZ">    60</i>
   <i type="int" name="NGXF">   128</i>
   <i type="int" name="NGYF">    96</i>
   <i type="int" name="NGZF">   120</i>
   <i type="logical" name="ADDGRID"> F  </i>
  </separator>
  <separator name="ionic" >
   <i type="int" name="NSW">     0</i>
   <i type="int" name="IBRION">    -1</i>
   <i type="int" name="MDALGO">     0</i>
   <i type="int" name="ISIF">     2</i>
   <i name="PSTRESS">      0.00000000</i>
   <i name="EDIFFG">     -0.00500000</i>
   <i type="int" name="NFREE">     0</i>
   <i name="POTIM">      0.50000000</i>
   <i name="SMASS">     -3.00000000</i>
   <i name="SCALEE">      1.00000000</i>
  </separator>
  <separator name="ionic md" >
   <i name="TEBEG">      0.00010000</i>
   <i name="TEEND">      0.00010000</i>
   <i type="int" name="NBLOCK">     1</i>
   <i type="int" name="KBLOCK">     1</i>
   <i type="int" name="NPACO">   256</i>
   <i name="APACO">     10.00000000</i>
  </separator>
  <separator name="symmetry" >
   <i type="int" name="ISYM">     3</i>
   <i name="SYMPREC">      0.00001000</i>
  </separator>
  <separator name="dos" >
   <i type="int" name="LORBIT">     0</i>
   <v name="RWIGS">     -1.00000000     -1.00000000     -1.00000000</v>
   <i type="int" name="NEDOS">   301</i>
   <i name="EMIN">     10.00000000</i>
   <i name="EMAX">    -10.00000000</i>
   <i name="EFERMI">      0.00000000</i>
  </separator>
  <separator name="writing" >
   <i type="int" name="NWRITE">     2</i>
   <i type="logical" name="LWAVE"> T  </i>
   <i type="logical" name="LDOWNSAMPLE"> F  </i>
   <i type="logical" name="LCHARG"> T  </i>
   <i type="logical" name="LPARD"> F  </i>
   <i type="logical" name="LVTOT"> F  </i>
   <i type="logical" name="LVHAR"> F  </i>
   <i type="logical" name="LELF"> F  </i>
   <i type="logical" name="LOPTICS"> F  </i>
   <v name="STM">      0.00000000      0.00000000      0.00000000      0.00000000      0.00000000      0.00000000      0.00000000</v>
  </separator>
  <separator name="performance" >
   <i type="int" name="NPAR">     1</i>
   <i type="int" name="NSIM">     4</i>
   <i type="int" name="NBLK">    -1</i>
   <i type="logical" name="LPLANE"> T  </i>
   <i type="logical" name="LSCALAPACK"> T  </i>
   <i type="logical" name="LSCAAWARE"> F  </i>
   <i type="logical" name="LSCALU"> F  </i>
   <i type="logical" name="LASYNC"> F  </i>
   <i type="logical" name="LORBITALREAL"> F  </i>
  </separator>
  <separator name="miscellaneous" >
   <i type="int" name="IDIOT">     3</i>
   <i type="int" name="PHON_NSTRUCT">    -1</i>
   <i type="logical" name="LMUSIC"> F  </i>
   <v name="POMASS">     69.72300000     16.00000000     30.97400000</v>
   <v name="DARWINR">      0.00000000      0.00000000      0.00000000</v>
   <v name="DARWINV">      1.00000000      1.00000000      1.00000000</v>
   <i type="logical" name="LCORR"> T  </i>
  </separator>
  <i type="logical" name="GGA_COMPAT"> T  </i>
  <i type="logical" name="LBERRY"> F  </i>
  <i type="int" name="ICORELEVEL">     0</i>
  <i type="logical" name="LDAU"> F  </i>
  <i type="int" name="I_CONSTRAINED_M">     0</i>
  <separator name="electronic exchange-correlation" >
   <i type="string" name="GGA">--</i>
   <i type="int" name="VOSKOWN">     0</i>
   <i type="logical" name="LHFCALC"> T  </i>
   <i type="string" name="PRECFOCK">fast</i>
   <i type="logical" name="LSYMGRAD"> F  </i>
   <i type="logical" name="LHFONE"> F  </i>
   <i type="logical" name="LRHFCALC"> F  </i>
   <i type="logical" name="LTHOMAS"> F  </i>
   <i type="logical" name="LMODELHF"> F  </i>
   <i type="logical" name="LFOCKACE"> T  </i>
   <i name="ENCUT4O">     -1.00000000</i>
   <i type="int" name="EXXOEP">     0</i>
   <i type="int" name="FOURORBIT">     0</i>
   <i name="AEXX">      0.35000000</i>
   <i name="HFALPHA">     -1.00000000</i>
   <i name="MCALPHA">      0.00000000</i>
   <i name="ALDAX">      0.65000000</i>
   <i name="AGGAX">      0.65000000</i>
   <i name="ALDAC">      1.00000000</i>
   <i name="AGGAC">      1.00000000</i>
   <i type="int" name="NKREDX">     1</i>
   <i type="int" name="NKREDY">     1</i>
   <i type="int" name="NKREDZ">     1</i>
   <i type="logical" name="SHIFTRED"> F  </i>
   <i type="logical" name="ODDONLY"> F  </i>
   <i type="logical" name="EVENONLY"> F  </i>
   <i type="int" name="LMAXFOCK">     4</i>
   <i type="int" name="NMAXFOCKAE">     1</i>
   <i type="logical" name="LFOCKAEDFT"> F  </i>
   <i name="HFSCREEN">      0.18000000</i>
   <i name="HFSCREENC">      0.18000000</i>
   <i type="int" name="NBANDSGWLOW">     1</i>
  </separator>
  <separator name="vdW DFT" >
   <i type="logical" name="LUSE_VDW"> F  </i>
   <i type="int" name="IVDW_NL">     1</i>
   <i type="logical" name="LSPIN_VDW"> F  </i>
   <i name="Zab_VDW">     -0.84910000</i>
   <i name="PARAM1">      0.12340000</i>
   <i name="PARAM2">      1.00000000</i>
   <i name="PARAM3">      0.00000000</i>
  </separator>
  <separator name="model GW" >
   <i type="int" name="MODEL_GW">     0</i>
   <i name="MODEL_EPS0">      6.39733692</i>
   <i name="MODEL_ALPHA">      1.00000000</i>
  </separator>
  <separator name="linear response parameters" >
   <i type="logical" name="LEPSILON"> F  </i>
   <i type="logical" name="LRPA"> F  </i>
   <i type="logical" name="LNABLA"> F  </i>
   <i type="logical" name="LVEL"> F  </i>
   <i name="CSHIFT">      0.10000000</i>
   <i name="OMEGAMAX">     -1.00000000</i>
   <i name="DEG_THRESHOLD">      0.00200000</i>
   <i name="RTIME">     -0.10000000</i>
   <i name="WPLASMAI">      0.00000000</i>
   <v name="DFIELD">      0.00000000      0.00000000      0.00000000</v>
   <v name="WPLASMA">      0.00000000      0.00000000      0.00000000      0.00000000      0.00000000      0.00000000      0.00000000      0.00000000      0.00000000</v>
  </separator>
  <separator name="orbital magnetization" >
   <i type="logical" name="NUCIND"> F  </i>
   <v name="MAGPOS">      0.00000000      0.00000000      0.00000000</v>
   <i type="logical" name="LNICSALL"> T  </i>
   <i type="logical" name="ORBITALMAG"> F  </i>
   <i type="logical" name="LMAGBLOCH"> F  </i>
   <i type="logical" name="LCHIMAG"> F  </i>
   <i type="logical" name="LGAUGE"> T  </i>
   <i type="int" name="MAGATOM">     0</i>
   <v name="MAGDIPOL">      0.00000000      0.00000000      0.00000000</v>
   <v name="AVECCONST">      0.00000000      0.00000000      0.00000000</v>
  </separator>
  <separator name="response functions" >
   <i type="logical" name="LALL_IN_ONE"> F  </i>
   <i type="int" name="IALL_IN_ONE">    -1</i>
   <i type="int" name="NBANDS_WAVE">    -1</i>
   <i type="logical" name="LFINITE_TEMPERATURE"> F  </i>
   <i type="logical" name="LADDER"> F  </i>
   <i type="logical" name="LRPAFORCE"> F  </i>
   <i type="logical" name="LFXC"> F  </i>
   <i type="logical" name="LHARTREE"> T  </i>
   <i type="int" name="IBSE">     0</i>
   <v type="int" name="KPOINT">    -1     0     0     0</v>
   <i type="logical" name="LTCTC"> F  </i>
   <i type="logical" name="LTCTE"> F  </i>
   <i type="logical" name="LTETE"> F  </i>
   <i type="logical" name="LTRIPLET"> F  </i>
   <i type="logical" name="LFXCEPS"> F  </i>
   <i type="logical" name="LFXHEG"> F  </i>
   <i type="int" name="NATURALO">     2</i>
   <i type="logical" name="LHOLEGF"> F  </i>
   <i type="logical" name="L2ORDER"> F  </i>
   <i type="logical" name="LDMP1"> F  </i>
   <i type="logical" name="LMP2LT"> F  </i>
   <i type="logical" name="LSMP2LT"> F  </i>
   <i type="logical" name="LGWLF"> F  </i>
   <i name="ENCUTGW">     -1.60000002</i>
   <i name="ENCUTGWSOFT">     -1.60000002</i>
   <i name="ENCUTLF">     -1.00000000</i>
   <i type="logical" name="LESF_SPLINES"> F  </i>
   <i type="int" name="LMAXMP2">    -1</i>
   <i name="SCISSOR">      0.00000000</i>
   <i type="int" name="NOMEGA">     0</i>
   <i type="int" name="NOMEGAR">     0</i>
   <i type="int" name="NBANDSGW">    -1</i>
   <i type="int" name="NBANDSO">    -1</i>
   <i type="int" name="NBANDSV">    -1</i>
   <i type="int" name="NELMGW">     1</i>
   <i type="int" name="NELMHF">     1</i>
   <i type="int" name="DIM">     3</i>
   <i type="int" name="IESPILON">     4</i>
   <i type="int" name="ANTIRES">     0</i>
   <i name="OMEGAMAX">    -30.00000000</i>
   <i name="OMEGAMIN">    -30.00000000</i>
   <i name="OMEGATL">   -200.00000000</i>
   <i type="int" name="OMEGAGRID">     0</i>
   <i name="CSHIFT">     -0.10000000</i>
   <i type="logical" name="LSELFENERGY"> F  </i>
   <i type="logical" name="LSPECTRAL"> F  </i>
   <i type="logical" name="LSPECTRALGW"> F  </i>
   <i type="logical" name="LSINGLES"> F  </i>
   <i type="logical" name="LFERMIGW"> F  </i>
   <i type="logical" name="ODDONLYGW"> F  </i>
   <i type="logical" name="EVENONLYGW"> F  </i>
   <i type="int" name="NKREDLFX">     1</i>
   <i type="int" name="NKREDLFY">     1</i>
   <i type="int" name="NKREDLFZ">     1</i>
   <i type="int" name="MAXMEM">  2800</i>
   <i type="int" name="TELESCOPE">     0</i>
   <i type="int" name="NTAUPAR">    -1</i>
   <i type="int" name="NOMEGAPAR">    -1</i>
   <i name="DAMP_NEWTON">      0.80000001</i>
   <i name="LAMBDA">      1.00000000</i>
  </separator>
  <separator name="External order field" >
   <i name="OFIELD_KAPPA">      0.00000000</i>
   <v name="OFIELD_K">      0.00000000      0.00000000      0.00000000</v>
   <i name="OFIELD_Q6_NEAR">      0.00000000</i>
   <i name="OFIELD_Q6_FAR">      0.00000000</i>
   <i name="OFIELD_A">      0.00000000</i>
  </separator>
  <separator name="optional k-points parameters" >
   <i type="int" name="KPOINTS_OPT_MODE">     1</i>
   <i type="logical" name="LKPOINTS_OPT"> F  </i>
  </separator>
 </parameters>
 <atominfo>
  <atoms>     119 </atoms>
  <types>       3 </types>
  <array name="atoms" >
   <dimension dim="1">ion</dimension>
   <field type="string">element</field>
   <field type="int">atomtype</field>
   <set>
    <rc><c>Ga</c><c>   1</c></rc>
    <rc><c>Ga</c><c>   1</c></rc>
    <rc><c>Ga</c><c>   1</c></rc>
    <rc><c>Ga</c><c>   1</c></rc>
    <rc><c>Ga</c><c>   1</c></rc>
    <rc><c>Ga</c><c>   1</c></rc>
    <rc><c>Ga</c><c>   1</c></rc>
    <rc><c>Ga</c><c>   1</c></rc>
    <rc><c>Ga</c><c>   1</c></rc>
    <rc><c>Ga</c><c>   1</c></rc>
    <rc><c>Ga</c><c>   1</c></rc>
    <rc><c>Ga</c><c>   1</c></rc>
    <rc><c>Ga</c><c>   1</c></rc>
    <rc><c>Ga</c><c>   1</c></rc>
    <rc><c>Ga</c><c>   1</c></rc>
    <rc><c>Ga</c><c>   1</c></rc>
    <rc><c>Ga</c><c>   1</c></rc>
    <rc><c>Ga</c><c>   1</c></rc>
    <rc><c>Ga</c><c>   1</c></rc>
    <rc><c>Ga</c><c>   1</c></rc>
    <rc><c>Ga</c><c>   1</c></rc>
    <rc><c>Ga</c><c>   1</c></rc>
    <rc><c>Ga</c><c>   1</c></rc>
    <rc><c>Ga</c><c>   1</c></rc>
    <rc><c>Ga</c><c>   1</c></rc>
    <rc><c>Ga</c><c>   1</c></rc>
    <rc><c>Ga</c><c>   1</c></rc>
    <rc><c>Ga</c><c>   1</c></rc>
    <rc><c>Ga</c><c>   1</c></rc>
    <rc><c>Ga</c><c>   1</c></rc>
    <rc><c>Ga</c><c>   1</c></rc>
    <rc><c>Ga</c><c>   1</c></rc>
    <rc><c>Ga</c><c>   1</c></rc>
    <rc><c>Ga</c><c>   1</c></rc>
    <rc><c>Ga</c><c>   1</c></rc>
    <rc><c>Ga</c><c>   1</c></rc>
    <rc><c>Ga</c><c>   1</c></rc>
    <rc><c>Ga</c><c>   1</c></rc>
    <rc><c>Ga</c><c>   1</c></rc>
    <rc><c>Ga</c><c>   1</c></rc>
    <rc><c>Ga</c><c>   1</c></rc>
    <rc><c>Ga</c><c>   1</c></rc>
    <rc><c>Ga</c><c>   1</c></rc>
    <rc><c>Ga</c><c>   1</c></rc>
    <rc><c>Ga</c><c>   1</c></rc>
    <rc><c>Ga</c><c>   1</c></rc>
    <rc><c>Ga</c><c>   1</c></rc>
    <rc><c>O </c><c>   2</c></rc>
    <rc><c>O </c><c>   2</c></rc>
    <rc><c>O </c><c>   2</c></rc>
    <rc><c>O </c><c>   2</c></rc>
    <rc><c>O </c><c>   2</c></rc>
    <rc><c>O </c><c>   2</c></rc>
    <rc><c>O </c><c>   2</c></rc>
    <rc><c>O </c><c>   2</c></rc>
    <rc><c>O </c><c>   2</c></rc>
    <rc><c>O </c><c>   2</c></rc>
    <rc><c>O </c><c>   2</c></rc>
    <rc><c>O </c><c>   2</c></rc>
    <rc><c>O </c><c>   2</c></rc>
    <rc><c>O </c><c>   2</c></rc>
    <rc><c>O </c><c>   2</c></rc>
    <rc><c>O </c><c>   2</c></rc>
    <rc><c>O </c><c>   2</c></rc>
    <rc><c>O </c><c>   2</c></rc>
    <rc><c>O </c><c>   2</c></rc>
    <rc><c>O </c><c>   2</c></rc>
    <rc><c>O </c><c>   2</c></rc>
    <rc><c>O </c><c>   2</c></rc>
    <rc><c>O </c><c>   2</c></rc>
    <rc><c>O </c><c>   2</c></rc>
    <rc><c>O </c><c>   2</c></rc>
    <rc><c>O </c><c>   2</c></rc>
    <rc><c>O </c><c>   2</c></rc>
    <rc><c>O </c><c>   2</c></rc>
    <rc><c>O </c><c>   2</c></rc>
    <rc><c>O </c><c>   2</c></rc>
    <rc><c>O </c><c>   2</c></rc>
    <rc><c>O </c><c>   2</c></rc>
    <rc><c>O </c><c>   2</c></rc>
    <rc><c>O </c><c>   2</c></rc>
    <rc><c>O </c><c>   2</c></rc>
    <rc><c>O </c><c>   2</c></rc>
    <rc><c>O </c><c>   2</c></rc>
    <rc><c>O </c><c>   2</c></rc>
    <rc><c>O </c><c>   2</c></rc>
    <rc><c>O </c><c>   2</c></rc>
    <rc><c>O </c><c>   2</c></rc>
    <rc><c>O </c><c>   2</c></rc>
    <rc><c>O </c><c>   2</c></rc>
    <rc><c>O </c><c>   2</c></rc>
    <rc><c>O </c><c>   2</c></rc>
    <rc><c>O </c><c>   2</c></rc>
    <rc><c>O </c><c>   2</c></rc>
    <rc><c>O </c><c>   2</c></rc>
    <rc><c>O </c><c>   2</c></rc>
    <rc><c>O </c><c>   2</c></rc>
    <rc><c>O </c><c>   2</c></rc>
    <rc><c>O </c><c>   2</c></rc>
    <rc><c>O </c><c>   2</c></rc>
    <rc><c>O </c><c>   2</c></rc>
    <rc><c>O </c><c>   2</c></rc>
    <rc><c>O </c><c>   2</c></rc>
    <rc><c>O </c><c>   2</c></rc>
    <rc><c>O </c><c>   2</c></rc>
    <rc><c>O </c><c>   2</c></rc>
    <rc><c>O </c><c>   2</c></rc>
    <rc><c>O </c><c>   2</c></rc>
    <rc><c>O </c><c>   2</c></rc>
    <rc><c>O </c><c>   2</c></rc>
    <rc><c>O </c><c>   2</c></rc>
    <rc><c>O </c><c>   2</c></rc>
    <rc><c>O </c><c>   2</c></rc>
    <rc><c>O </c><c>   2</c></rc>
    <rc><c>O </c><c>   2</c></rc>
    <rc><c>O </c><c>   2</c></rc>
    <rc><c>O </c><c>   2</c></rc>
    <rc><c>O </c><c>   2</c></rc>
    <rc><c>P </c><c>   3</c></rc>
   </set>
  </array>
  <array name="atomtypes" >
   <dimension dim="1">type</dimension>
   <field type="int">atomspertype</field>
   <field type="string">element</field>
   <field>mass</field>
   <field>valence</field>
   <field type="string">pseudopotential</field>
   <set>
    <rc><c>  47</c><c>Ga</c><c>     69.72300000</c><c>     13.00000000</c><c>  PAW_PBE Ga_d 06Jul2010                </c></rc>
    <rc><c>  71</c><c>O </c><c>     16.00000000</c><c>      6.00000000</c><c>   PAW_PBE O 08Apr2002                  </c></rc>
    <rc><c>   1</c><c>P </c><c>     30.97400000</c><c>      5.00000000</c><c>  PAW_PBE P 06Sep2000                   </c></rc>
   </set>
  </array>
 </atominfo>
 <structure name="initialpos" >
  <crystal>
   <varray name="basis" >
    <v>       0.00000000      12.28047342       0.00000000 </v>
    <v>       9.14270205       0.00000000       0.00000000 </v>
    <v>       0.00000000      -2.76826177     -11.30069772 </v>
   </varray>
   <i name="volume">   1268.80515525 </i>
   <varray name="rec_basis" >
    <v>       0.00000000       0.08143009      -0.01994742 </v>
    <v>       0.10937686      -0.00000000       0.00000000 </v>
    <v>       0.00000000       0.00000000      -0.08849011 </v>
   </varray>
  </crystal>
  <varray name="positions" >
   <v>       0.65805671       0.99803705       0.15553789 </v>
   <v>       0.66160048       0.99866884       0.65621802 </v>
   <v>       0.65847984       0.33029427       0.15596337 </v>
   <v>       0.65955615       0.33188056       0.65744735 </v>
   <v>       0.65805085       0.66465193       0.15592977 </v>
   <v>       0.66163386       0.66495665       0.65639582 </v>
   <v>       0.84388527       0.16390227       0.34145082 </v>
   <v>       0.84189815       0.16230361       0.84502684 </v>
   <v>       0.83984587       0.50082199       0.34113395 </v>
   <v>       0.84228686       0.49751744       0.84362916 </v>
   <v>       0.84198807       0.83391648       0.34258796 </v>
   <v>       0.84141815       0.82998669       0.84542088 </v>
   <v>       0.59258948       0.16423789       0.39727169 </v>
   <v>       0.59124856       0.16387583       0.89681257 </v>
   <v>       0.59186216       0.49708634       0.39791405 </v>
   <v>       0.59299977       0.50143464       0.89764434 </v>
   <v>       0.59082938       0.83128735       0.39702178 </v>
   <v>       0.58892460       0.83224990       0.89613533 </v>
   <v>       0.91103203       0.99611038       0.10437237 </v>
   <v>       0.90923003       0.00886201       0.60205600 </v>
   <v>       0.90930679       0.33035403       0.10178730 </v>
   <v>       0.89999540       0.35094167       0.59910452 </v>
   <v>       0.90925178       0.66300988       0.10244771 </v>
   <v>       0.90942084       0.67998268       0.60151760 </v>
   <v>       0.15904228       0.15988595       0.15903068 </v>
   <v>       0.15993160       0.49645127       0.15526658 </v>
   <v>       0.15574361       0.52030737       0.65667577 </v>
   <v>       0.15951032       0.83018153       0.15868855 </v>
   <v>       0.16095959       0.86675035       0.62819344 </v>
   <v>       0.34041222       0.99707863       0.34257567 </v>
   <v>       0.33690791       0.00127746       0.83761240 </v>
   <v>       0.34170099       0.32939719       0.34361162 </v>
   <v>       0.34720024       0.32947985       0.83946085 </v>
   <v>       0.34128529       0.66297158       0.34195137 </v>
   <v>       0.33761861       0.66644290       0.84085449 </v>
   <v>       0.10729908       0.98579178       0.42301755 </v>
   <v>       0.09394095       0.98855734       0.89616334 </v>
   <v>       0.08562644       0.32576757       0.39066719 </v>
   <v>       0.08965320       0.32309709       0.89810937 </v>
   <v>       0.08758250       0.66503646       0.39311673 </v>
   <v>       0.09184126       0.66021963       0.89773103 </v>
   <v>       0.40687779       0.16404333       0.09998923 </v>
   <v>       0.41289786       0.16510085       0.60391202 </v>
   <v>       0.40753385       0.49579557       0.09895544 </v>
   <v>       0.40950588       0.49870730       0.60148091 </v>
   <v>       0.40857187       0.83050224       0.10014618 </v>
   <v>       0.41382499       0.83103170       0.60104895 </v>
   <v>       0.99677020       0.16407165       0.12911104 </v>
   <v>       0.99648798       0.18576075       0.62783004 </v>
   <v>       0.99718821       0.49654757       0.12703885 </v>
   <v>       0.99359113       0.51069987       0.62705299 </v>
   <v>       0.99676852       0.82884278       0.12463583 </v>
   <v>       0.99848683       0.84502458       0.62580384 </v>
   <v>       0.50380492       0.99861195       0.37309493 </v>
   <v>       0.50235750       0.99878117       0.87209966 </v>
   <v>       0.50413482       0.33047534       0.37379398 </v>
   <v>       0.50806284       0.33377871       0.87370190 </v>
   <v>       0.50430155       0.66341521       0.37288398 </v>
   <v>       0.50147035       0.66488297       0.86894917 </v>
   <v>       0.67331123       0.16500501       0.27981628 </v>
   <v>       0.67379390       0.16482100       0.78043717 </v>
   <v>       0.67214768       0.49760200       0.27968191 </v>
   <v>       0.67418445       0.49978799       0.78028731 </v>
   <v>       0.67251282       0.83188927       0.27991061 </v>
   <v>       0.67364722       0.83259689       0.78076193 </v>
   <v>       0.82657620       0.99809107       0.21864663 </v>
   <v>       0.82951157       0.00168702       0.71938294 </v>
   <v>       0.82867305       0.32976343       0.21925353 </v>
   <v>       0.82742763       0.33312933       0.72051809 </v>
   <v>       0.82642694       0.66347165       0.21807504 </v>
   <v>       0.82881497       0.66791588       0.71954358 </v>
   <v>       0.83207370       0.00250235       0.44652911 </v>
   <v>       0.83305537       0.99659281       0.94724121 </v>
   <v>       0.83226680       0.33331849       0.44267590 </v>
   <v>       0.83366908       0.32979959       0.94535466 </v>
   <v>       0.83219653       0.66803516       0.44503894 </v>
   <v>       0.83194992       0.66185974       0.94603269 </v>
   <v>       0.66802656       0.16429298       0.05350442 </v>
   <v>       0.67003260       0.16617715       0.55406242 </v>
   <v>       0.66853566       0.49797635       0.05437920 </v>
   <v>       0.67195508       0.49756757       0.55393047 </v>
   <v>       0.66610452       0.83070473       0.05299354 </v>
   <v>       0.66933395       0.83162013       0.55357575 </v>
   <v>       0.49532884       0.99815807       0.12662353 </v>
   <v>       0.50002609       0.99818676       0.62571891 </v>
   <v>       0.49578505       0.32985573       0.12634070 </v>
   <v>       0.49846043       0.33372977       0.62564702 </v>
   <v>       0.49521368       0.66253707       0.12512645 </v>
   <v>       0.49898776       0.66318624       0.62677965 </v>
   <v>       0.00877000       0.15351766       0.38090002 </v>
   <v>       0.00449410       0.15638217       0.87081525 </v>
   <v>       0.00278728       0.49536394       0.37169856 </v>
   <v>       0.00515489       0.49185805       0.87170427 </v>
   <v>       0.00114797       0.83119974       0.36485895 </v>
   <v>       0.00253802       0.82527635       0.87280787 </v>
   <v>       0.17316626       0.99539950       0.28384381 </v>
   <v>       0.17389341       0.98492338       0.78084300 </v>
   <v>       0.17290429       0.32988616       0.28074891 </v>
   <v>       0.16211084       0.31830849       0.76581977 </v>
   <v>       0.17318982       0.66213199       0.27966344 </v>
   <v>       0.17420972       0.65842188       0.78392921 </v>
   <v>       0.32783520       0.16391725       0.22018726 </v>
   <v>       0.33847995       0.17018263       0.72392055 </v>
   <v>       0.32784703       0.49514402       0.21838159 </v>
   <v>       0.32399364       0.49597540       0.71527440 </v>
   <v>       0.32851735       0.82911981       0.21867691 </v>
   <v>       0.32485855       0.83618521       0.71053783 </v>
   <v>       0.32981309       0.16370900       0.44863126 </v>
   <v>       0.32857610       0.16755554       0.94361548 </v>
   <v>       0.33098247       0.49623254       0.44547902 </v>
   <v>       0.33082980       0.49296531       0.94135769 </v>
   <v>       0.33538433       0.82995029       0.44525712 </v>
   <v>       0.33453615       0.83201065       0.94312341 </v>
   <v>       0.16767751       0.99549504       0.05463913 </v>
   <v>       0.16764148       0.32738114       0.05369356 </v>
   <v>       0.15075661       0.33890113       0.55773921 </v>
   <v>       0.16913025       0.66304998       0.05420343 </v>
   <v>       0.16567230       0.67136184       0.54955166 </v>
   <v>       0.13994981       0.19852817       0.64778002 </v>
  </varray>
 </structure>
 <calculation>
  <scstep>
   <time name="total">    3.90    3.91</time>
   <energy>
    <i name="alphaZ">   5376.25786726 </i>
    <i name="ewald"> -86733.40628013 </i>
    <i name="hartreedc">  -2072.93038642 </i>
    <i name="XCdc">   2751.54014431 </i>
    <i name="pawpsdc"> 330046.84367464 </i>
    <i name="pawaedc">-361357.96453026 </i>
    <i name="eentropy">     -0.00815030 </i>
    <i name="bandstr"> -40795.53803476 </i>
    <i name="atom"> 131459.35058357 </i>
    <i name="e_fr_energy"> -21325.85511209 </i>
    <i name="e_wo_entrp"> -21325.84696179 </i>
    <i name="e_0_energy"> -21325.85103694 </i>
   </energy>
  </scstep>
  <scstep>
   <time name="total">    3.11    3.11</time>
   <energy>
    <i name="e_fr_energy"> -65743.36907583 </i>
    <i name="e_wo_entrp"> -65743.35190020 </i>
    <i name="e_0_energy"> -65743.36048802 </i>
   </energy>
  </scstep>
  <scstep>
   <time name="total">    3.29    3.29</time>
   <energy>
    <i name="e_fr_energy"> -70821.80296722 </i>
    <i name="e_wo_entrp"> -70821.78035040 </i>
    <i name="e_0_energy"> -70821.79165881 </i>
   </energy>
  </scstep>
  <scstep>
   <time name="total">    3.83    3.83</time>
   <energy>
    <i name="e_fr_energy"> -71602.78442884 </i>
    <i name="e_wo_entrp"> -71602.76019231 </i>
    <i name="e_0_energy"> -71602.77231057 </i>
   </energy>
  </scstep>
  <scstep>
   <time name="total">  230.10  230.06</time>
   <energy>
    <i name="e_fr_energy"> -39177.92555753 </i>
    <i name="e_wo_entrp"> -39177.92555746 </i>
    <i name="e_0_energy"> -39177.92555749 </i>
   </energy>
  </scstep>
  <scstep>
   <time name="total">  458.78  458.71</time>
   <energy>
    <i name="e_fr_energy">  35365.81413705 </i>
    <i name="e_wo_entrp">  35365.85300804 </i>
    <i name="e_0_energy">  35365.83357255 </i>
   </energy>
  </scstep>
  <scstep>
   <time name="total">  459.79  459.72</time>
   <energy>
    <i name="e_fr_energy">  12414.92564246 </i>
    <i name="e_wo_entrp">  12414.95130565 </i>
    <i name="e_0_energy">  12414.93847406 </i>
   </energy>
  </scstep>
  <scstep>
   <time name="total">  459.30  459.24</time>
   <energy>
    <i name="e_fr_energy">   5035.30766552 </i>
    <i name="e_wo_entrp">   5035.33989163 </i>
    <i name="e_0_energy">   5035.32377858 </i>
   </energy>
  </scstep>
  <scstep>
   <time name="total">  458.99  458.93</time>
   <energy>
    <i name="e_fr_energy">   3229.37152802 </i>
    <i name="e_wo_entrp">   3229.38730313 </i>
    <i name="e_0_energy">   3229.37941557 </i>
   </energy>
  </scstep>
  <scstep>
   <time name="total">  459.10  459.04</time>
   <energy>
    <i name="e_fr_energy">   1566.36829652 </i>
    <i name="e_wo_entrp">   1566.39114022 </i>
    <i name="e_0_energy">   1566.37971837 </i>
   </energy>
  </scstep>
  <scstep>
   <time name="total">  458.79  458.72</time>
   <energy>
    <i name="e_fr_energy">    414.89766439 </i>
    <i name="e_wo_entrp">    414.90890157 </i>
    <i name="e_0_energy">    414.90328298 </i>
   </energy>
  </scstep>
  <scstep>
   <time name="total">  458.38  458.32</time>
   <energy>
    <i name="e_fr_energy">   -235.71380739 </i>
    <i name="e_wo_entrp">   -235.70079561 </i>
    <i name="e_0_energy">   -235.70730150 </i>
   </energy>
  </scstep>
  <scstep>
   <time name="total">  458.18  458.14</time>
   <energy>
    <i name="e_fr_energy">   -632.62474424 </i>
    <i name="e_wo_entrp">   -632.62127886 </i>
    <i name="e_0_energy">   -632.62301155 </i>
   </energy>
  </scstep>
  <scstep>
   <time name="total">  458.43  458.37</time>
   <energy>
    <i name="e_fr_energy">   -812.82614975 </i>
    <i name="e_wo_entrp">   -812.82449625 </i>
    <i name="e_0_energy">   -812.82532300 </i>
   </energy>
  </scstep>
  <scstep>
   <time name="total">  458.27  458.22</time>
   <energy>
    <i name="e_fr_energy">   -873.60325892 </i>
    <i name="e_wo_entrp">   -873.60292014 </i>
    <i name="e_0_energy">   -873.60308953 </i>
   </energy>
  </scstep>
  <scstep>
   <time name="total">  458.09  458.03</time>
   <energy>
    <i name="e_fr_energy">   -913.02946627 </i>
    <i name="e_wo_entrp">   -913.02946627 </i>
    <i name="e_0_energy">   -913.02946627 </i>
   </energy>
  </scstep>
  <scstep>
   <time name="total">  458.09  458.04</time>
   <energy>
    <i name="e_fr_energy">   -936.97389804 </i>
    <i name="e_wo_entrp">   -936.97389804 </i>
    <i name="e_0_energy">   -936.97389804 </i>
   </energy>
  </scstep>
  <scstep>
   <time name="total">  457.85  457.80</time>
   <energy>
    <i name="e_fr_energy">   -952.80318328 </i>
    <i name="e_wo_entrp">   -952.80318328 </i>
    <i name="e_0_energy">   -952.80318328 </i>
   </energy>
  </scstep>
  <scstep>
   <time name="total">  457.79  457.72</time>
   <energy>
    <i name="e_fr_energy">   -962.97223818 </i>
    <i name="e_wo_entrp">   -962.97223818 </i>
    <i name="e_0_energy">   -962.97223818 </i>
   </energy>
  </scstep>
  <scstep>
   <time name="total">  457.86  457.79</time>
   <energy>
    <i name="e_fr_energy">   -968.93178636 </i>
    <i name="e_wo_entrp">   -968.93178636 </i>
    <i name="e_0_energy">   -968.93178636 </i>
   </energy>
  </scstep>
  <scstep>
   <time name="total">  458.10  458.03</time>
   <energy>
    <i name="e_fr_energy">   -972.52404795 </i>
    <i name="e_wo_entrp">   -972.52404795 </i>
    <i name="e_0_energy">   -972.52404795 </i>
   </energy>
  </scstep>
  <scstep>
   <time name="total">  458.08  458.02</time>
   <energy>
    <i name="e_fr_energy">   -974.39081543 </i>
    <i name="e_wo_entrp">   -974.39081543 </i>
    <i name="e_0_energy">   -974.39081543 </i>
   </energy>
  </scstep>
  <scstep>
   <time name="total">  458.01  457.95</time>
   <energy>
    <i name="e_fr_energy">   -975.47255842 </i>
    <i name="e_wo_entrp">   -975.47255842 </i>
    <i name="e_0_energy">   -975.47255842 </i>
   </energy>
  </scstep>
  <scstep>
   <time name="total">  457.97  457.92</time>
   <energy>
    <i name="e_fr_energy">   -976.09420354 </i>
    <i name="e_wo_entrp">   -976.09420354 </i>
    <i name="e_0_energy">   -976.09420354 </i>
   </energy>
  </scstep>
  <scstep>
   <time name="total">  458.07  458.01</time>
   <energy>
    <i name="e_fr_energy">   -976.44347149 </i>
    <i name="e_wo_entrp">   -976.44347149 </i>
    <i name="e_0_energy">   -976.44347149 </i>
   </energy>
  </scstep>
  <scstep>
   <time name="total">  457.88  457.83</time>
   <energy>
    <i name="e_fr_energy">   -976.68439828 </i>
    <i name="e_wo_entrp">   -976.68439828 </i>
    <i name="e_0_energy">   -976.68439828 </i>
   </energy>
  </scstep>
  <scstep>
   <time name="total">  457.61  457.54</time>
   <energy>
    <i name="e_fr_energy">   -976.82243463 </i>
    <i name="e_wo_entrp">   -976.82243463 </i>
    <i name="e_0_energy">   -976.82243463 </i>
   </energy>
  </scstep>
  <scstep>
   <time name="total">  458.11  458.06</time>
   <energy>
    <i name="e_fr_energy">   -976.89840609 </i>
    <i name="e_wo_entrp">   -976.89840609 </i>
    <i name="e_0_energy">   -976.89840609 </i>
   </energy>
  </scstep>
  <scstep>
   <time name="total">  458.04  457.97</time>
   <energy>
    <i name="e_fr_energy">   -976.94424685 </i>
    <i name="e_wo_entrp">   -976.94424685 </i>
    <i name="e_0_energy">   -976.94424685 </i>
   </energy>
  </scstep>
  <scstep>
   <time name="total">  457.92  457.86</time>
   <energy>
    <i name="e_fr_energy">   -976.96842520 </i>
    <i name="e_wo_entrp">   -976.96842520 </i>
    <i name="e_0_energy">   -976.96842520 </i>
   </energy>
  </scstep>
  <scstep>
   <time name="total">  457.67  457.60</time>
   <energy>
    <i name="e_fr_energy">   -976.98325191 </i>
    <i name="e_wo_entrp">   -976.98325191 </i>
    <i name="e_0_energy">   -976.98325191 </i>
   </energy>
  </scstep>
  <scstep>
   <time name="total">  457.94  457.87</time>
   <energy>
    <i name="e_fr_energy">   -976.99322718 </i>
    <i name="e_wo_entrp">   -976.99322718 </i>
    <i name="e_0_energy">   -976.99322718 </i>
   </energy>
  </scstep>
  <scstep>
   <time name="total">  457.93  457.88</time>
   <energy>
    <i name="e_fr_energy">   -976.99923090 </i>
    <i name="e_wo_entrp">   -976.99923090 </i>
    <i name="e_0_energy">   -976.99923090 </i>
   </energy>
  </scstep>
  <scstep>
   <time name="total">  457.72  457.65</time>
   <energy>
    <i name="e_fr_energy">   -977.00282996 </i>
    <i name="e_wo_entrp">   -977.00282996 </i>
    <i name="e_0_energy">   -977.00282996 </i>
   </energy>
  </scstep>
  <scstep>
   <time name="total">  457.69  457.62</time>
   <energy>
    <i name="e_fr_energy">   -977.00493003 </i>
    <i name="e_wo_entrp">   -977.00493003 </i>
    <i name="e_0_energy">   -977.00493003 </i>
   </energy>
  </scstep>
  <scstep>
   <time name="total">  457.94  457.88</time>
   <energy>
    <i name="e_fr_energy">   -977.00606538 </i>
    <i name="e_wo_entrp">   -977.00606538 </i>
    <i name="e_0_energy">   -977.00606538 </i>
   </energy>
  </scstep>
  <scstep>
   <time name="total">  457.98  457.91</time>
   <energy>
    <i name="e_fr_energy">   -977.00677416 </i>
    <i name="e_wo_entrp">   -977.00677416 </i>
    <i name="e_0_energy">   -977.00677416 </i>
   </energy>
  </scstep>
  <scstep>
   <time name="total">  457.83  457.76</time>
   <energy>
    <i name="e_fr_energy">   -977.00751854 </i>
    <i name="e_wo_entrp">   -977.00751854 </i>
    <i name="e_0_energy">   -977.00751854 </i>
   </energy>
  </scstep>
  <scstep>
   <time name="total">  457.98  457.93</time>
   <energy>
    <i name="e_fr_energy">   -977.00778942 </i>
    <i name="e_wo_entrp">   -977.00778942 </i>
    <i name="e_0_energy">   -977.00778942 </i>
   </energy>
  </scstep>
  <scstep>
   <time name="total">  458.01  457.95</time>
   <energy>
    <i name="e_fr_energy">   -977.00789560 </i>
    <i name="e_wo_entrp">   -977.00789560 </i>
    <i name="e_0_energy">   -977.00789560 </i>
   </energy>
  </scstep>
  <scstep>
   <time name="total">  457.97  457.92</time>
   <energy>
    <i name="e_fr_energy">   -977.00793350 </i>
    <i name="e_wo_entrp">   -977.00793350 </i>
    <i name="e_0_energy">   -977.00793350 </i>
   </energy>
  </scstep>
  <scstep>
   <time name="total">  458.17  458.11</time>
   <energy>
    <i name="e_fr_energy">   -977.00794831 </i>
    <i name="e_wo_entrp">   -977.00794831 </i>
    <i name="e_0_energy">   -977.00794831 </i>
   </energy>
  </scstep>
  <scstep>
   <time name="total">  682.99  682.90</time>
   <energy>
    <i name="alphaZ">   5376.25786726 </i>
    <i name="ewald"> -86733.40628013 </i>
    <i name="hartreedc"> -33824.74117142 </i>
    <i name="XCdc">   2753.02627253 </i>
    <i name="pawpsdc"> 120485.38012929 </i>
    <i name="pawaedc">-135649.25701726 </i>
    <i name="eentropy">     -0.00000000 </i>
    <i name="bandstr">  -9097.23331720 </i>
    <i name="atom"> 131459.35058357 </i>
    <i name="e_fr_energy">   -977.00795227 </i>
    <i name="e_wo_entrp">   -977.00795227 </i>
    <i name="e_0_energy">   -977.00795227 </i>
   </energy>
  </scstep>
  <structure>
   <crystal>
    <varray name="basis" >
     <v>       0.00000000      12.28047342       0.00000000 </v>
     <v>       9.14270205       0.00000000       0.00000000 </v>
     <v>       0.00000000      -2.76826177     -11.30069772 </v>
    </varray>
    <i name="volume">   1268.80515525 </i>
    <varray name="rec_basis" >
     <v>       0.00000000       0.08143009      -0.01994742 </v>
     <v>       0.10937686      -0.00000000       0.00000000 </v>
     <v>       0.00000000       0.00000000      -0.08849011 </v>
    </varray>
   </crystal>
   <varray name="positions" >
    <v>       0.65805671       0.99803705       0.15553789 </v>
    <v>       0.66160048       0.99866884       0.65621802 </v>
    <v>       0.65847984       0.33029427       0.15596337 </v>
    <v>       0.65955615       0.33188056       0.65744735 </v>
    <v>       0.65805085       0.66465193       0.15592977 </v>
    <v>       0.66163386       0.66495665       0.65639582 </v>
    <v>       0.84388527       0.16390227       0.34145082 </v>
    <v>       0.84189815       0.16230361       0.84502684 </v>
    <v>       0.83984587       0.50082199       0.34113395 </v>
    <v>       0.84228686       0.49751744       0.84362916 </v>
    <v>       0.84198807       0.83391648       0.34258796 </v>
    <v>       0.84141815       0.82998669       0.84542088 </v>
    <v>       0.59258948       0.16423789       0.39727169 </v>
    <v>       0.59124856       0.16387583       0.89681257 </v>
    <v>       0.59186216       0.49708634       0.39791405 </v>
    <v>       0.59299977       0.50143464       0.89764434 </v>
    <v>       0.59082938       0.83128735       0.39702178 </v>
    <v>       0.58892460       0.83224990       0.89613533 </v>
    <v>       0.91103203       0.99611038       0.10437237 </v>
    <v>       0.90923003       0.00886201       0.60205600 </v>
    <v>       0.90930679       0.33035403       0.10178730 </v>
    <v>       0.89999540       0.35094167       0.59910452 </v>
    <v>       0.90925178       0.66300988       0.10244771 </v>
    <v>       0.90942084       0.67998268       0.60151760 </v>
    <v>       0.15904228       0.15988595       0.15903068 </v>
    <v>       0.15993160       0.49645127       0.15526658 </v>
    <v>       0.15574361       0.52030737       0.65667577 </v>
    <v>       0.15951032       0.83018153       0.15868855 </v>
    <v>       0.16095959       0.86675035       0.62819344 </v>
    <v>       0.34041222       0.99707863       0.34257567 </v>
    <v>       0.33690791       0.00127746       0.83761240 </v>
    <v>       0.34170099       0.32939719       0.34361162 </v>
    <v>       0.34720024       0.32947985       0.83946085 </v>
    <v>       0.34128529       0.66297158       0.34195137 </v>
    <v>       0.33761861       0.66644290       0.84085449 </v>
    <v>       0.10729908       0.98579178       0.42301755 </v>
    <v>       0.09394095       0.98855734       0.89616334 </v>
    <v>       0.08562644       0.32576757       0.39066719 </v>
    <v>       0.08965320       0.32309709       0.89810937 </v>
    <v>       0.08758250       0.66503646       0.39311673 </v>
    <v>       0.09184126       0.66021963       0.89773103 </v>
    <v>       0.40687779       0.16404333       0.09998923 </v>
    <v>       0.41289786       0.16510085       0.60391202 </v>
    <v>       0.40753385       0.49579557       0.09895544 </v>
    <v>       0.40950588       0.49870730       0.60148091 </v>
    <v>       0.40857187       0.83050224       0.10014618 </v>
    <v>       0.41382499       0.83103170       0.60104895 </v>
    <v>       0.99677020       0.16407165       0.12911104 </v>
    <v>       0.99648798       0.18576075       0.62783004 </v>
    <v>       0.99718821       0.49654757       0.12703885 </v>
    <v>       0.99359113       0.51069987       0.62705299 </v>
    <v>       0.99676852       0.82884278       0.12463583 </v>
    <v>       0.99848683       0.84502458       0.62580384 </v>
    <v>       0.50380492       0.99861195       0.37309493 </v>
    <v>       0.50235750       0.99878117       0.87209966 </v>
    <v>       0.50413482       0.33047534       0.37379398 </v>
    <v>       0.50806284       0.33377871       0.87370190 </v>
    <v>       0.50430155       0.66341521       0.37288398 </v>
    <v>       0.50147035       0.66488297       0.86894917 </v>
    <v>       0.67331123       0.16500501       0.27981628 </v>
    <v>       0.67379390       0.16482100       0.78043717 </v>
    <v>       0.67214768       0.49760200       0.27968191 </v>
    <v>       0.67418445       0.49978799       0.78028731 </v>
    <v>       0.67251282       0.83188927       0.27991061 </v>
    <v>       0.67364722       0.83259689       0.78076193 </v>
    <v>       0.82657620       0.99809107       0.21864663 </v>
    <v>       0.82951157       0.00168702       0.71938294 </v>
    <v>       0.82867305       0.32976343       0.21925353 </v>
    <v>       0.82742763       0.33312933       0.72051809 </v>
    <v>       0.82642694       0.66347165       0.21807504 </v>
    <v>       0.82881497       0.66791588       0.71954358 </v>
    <v>       0.83207370       0.00250235       0.44652911 </v>
    <v>       0.83305537       0.99659281       0.94724121 </v>
    <v>       0.83226680       0.33331849       0.44267590 </v>
    <v>       0.83366908       0.32979959       0.94535466 </v>
    <v>       0.83219653       0.66803516       0.44503894 </v>
    <v>       0.83194992       0.66185974       0.94603269 </v>
    <v>       0.66802656       0.16429298       0.05350442 </v>
    <v>       0.67003260       0.16617715       0.55406242 </v>
    <v>       0.66853566       0.49797635       0.05437920 </v>
    <v>       0.67195508       0.49756757       0.55393047 </v>
    <v>       0.66610452       0.83070473       0.05299354 </v>
    <v>       0.66933395       0.83162013       0.55357575 </v>
    <v>       0.49532884       0.99815807       0.12662353 </v>
    <v>       0.50002609       0.99818676       0.62571891 </v>
    <v>       0.49578505       0.32985573       0.12634070 </v>
    <v>       0.49846043       0.33372977       0.62564702 </v>
    <v>       0.49521368       0.66253707       0.12512645 </v>
    <v>       0.49898776       0.66318624       0.62677965 </v>
    <v>       0.00877000       0.15351766       0.38090002 </v>
    <v>       0.00449410       0.15638217       0.87081525 </v>
    <v>       0.00278728       0.49536394       0.37169856 </v>
    <v>       0.00515489       0.49185805       0.87170427 </v>
    <v>       0.00114797       0.83119974       0.36485895 </v>
    <v>       0.00253802       0.82527635       0.87280787 </v>
    <v>       0.17316626       0.99539950       0.28384381 </v>
    <v>       0.17389341       0.98492338       0.78084300 </v>
    <v>       0.17290429       0.32988616       0.28074891 </v>
    <v>       0.16211084       0.31830849       0.76581977 </v>
    <v>       0.17318982       0.66213199       0.27966344 </v>
    <v>       0.17420972       0.65842188       0.78392921 </v>
    <v>       0.32783520       0.16391725       0.22018726 </v>
    <v>       0.33847995       0.17018263       0.72392055 </v>
    <v>       0.32784703       0.49514402       0.21838159 </v>
    <v>       0.32399364       0.49597540       0.71527440 </v>
    <v>       0.32851735       0.82911981       0.21867691 </v>
    <v>       0.32485855       0.83618521       0.71053783 </v>
    <v>       0.32981309       0.16370900       0.44863126 </v>
    <v>       0.32857610       0.16755554       0.94361548 </v>
    <v>       0.33098247       0.49623254       0.44547902 </v>
    <v>       0.33082980       0.49296531       0.94135769 </v>
    <v>       0.33538433       0.82995029       0.44525712 </v>
    <v>       0.33453615       0.83201065       0.94312341 </v>
    <v>       0.16767751       0.99549504       0.05463913 </v>
    <v>       0.16764148       0.32738114       0.05369356 </v>
    <v>       0.15075661       0.33890113       0.55773921 </v>
    <v>       0.16913025       0.66304998       0.05420343 </v>
    <v>       0.16567230       0.67136184       0.54955166 </v>
    <v>       0.13994981       0.19852817       0.64778002 </v>
   </varray>
  </structure>
  <varray name="forces" >
   <v>       0.00282303       0.08344973       0.00554174 </v>
   <v>       0.00086750       0.04787741       0.00996158 </v>
   <v>      -0.01967701       0.05832342       0.01198361 </v>
   <v>      -0.00721476       0.06038821       0.01076912 </v>
   <v>      -0.00338581       0.08581662       0.01785007 </v>
   <v>      -0.00457619       0.07675098      -0.00199282 </v>
   <v>      -0.05821760      -0.09162230      -0.01712013 </v>
   <v>      -0.04672133      -0.07686699      -0.01158022 </v>
   <v>       0.00885989      -0.07675184       0.00722063 </v>
   <v>      -0.01818808      -0.09233958      -0.01626818 </v>
   <v>       0.01150666       0.01221160       0.00599832 </v>
   <v>      -0.03299294      -0.04331461      -0.02963213 </v>
   <v>      -0.00027725      -0.02457252       0.02377011 </v>
   <v>       0.01646561      -0.03232322       0.00585862 </v>
   <v>       0.00515998      -0.02125476       0.03074483 </v>
   <v>      -0.05676779      -0.03774973       0.02109224 </v>
   <v>       0.00054633      -0.00863351       0.02096180 </v>
   <v>       0.02326528      -0.03689011       0.00726630 </v>
   <v>      -0.01252477       0.02462275      -0.03516378 </v>
   <v>      -0.17854907      -0.01389756       0.00151812 </v>
   <v>      -0.01438221       0.02044732      -0.02010116 </v>
   <v>      -0.01010097       0.08299150      -0.04038362 </v>
   <v>       0.02530408       0.02545523      -0.00815587 </v>
   <v>      -0.04001160       0.05480648      -0.03479846 </v>
   <v>      -0.04220621       0.06547696       0.00333298 </v>
   <v>       0.02368355       0.08363062      -0.00147911 </v>
   <v>       0.25640537       0.04384429       0.02916486 </v>
   <v>       0.01521446       0.05732645       0.00400469 </v>
   <v>      -0.15152332      -0.00949478      -0.21035250 </v>
   <v>      -0.02785403      -0.10870544      -0.00576328 </v>
   <v>       0.02851897      -0.16275931       0.06027964 </v>
   <v>       0.00264593      -0.07455405       0.00456971 </v>
   <v>      -0.12020607       0.11900651      -0.00463423 </v>
   <v>       0.02871137      -0.08795973      -0.01264715 </v>
   <v>       0.04248736      -0.15252052      -0.03614090 </v>
   <v>      -0.08750534      -0.26158672       0.53828562 </v>
   <v>      -0.02841973       0.02885435       0.08702324 </v>
   <v>       0.01059214      -0.07391640       0.07217018 </v>
   <v>      -0.02979504      -0.15435246      -0.04951317 </v>
   <v>       0.07598620      -0.00400759      -0.00558435 </v>
   <v>       0.04183260       0.02023670       0.05220807 </v>
   <v>       0.00143420       0.03106108      -0.01409378 </v>
   <v>       0.00312123      -0.03005486      -0.09434179 </v>
   <v>      -0.00817402       0.04046003      -0.03815851 </v>
   <v>      -0.02069579       0.02562079      -0.00258441 </v>
   <v>       0.00918455       0.02309313       0.00420618 </v>
   <v>       0.00620852      -0.04417601      -0.00977018 </v>
   <v>       0.01025436      -0.17242727       0.14086816 </v>
   <v>       0.14927133       0.26047347       0.07288658 </v>
   <v>      -0.00655877      -0.19371207       0.12753451 </v>
   <v>      -0.02232032      -0.22352360       0.14491333 </v>
   <v>      -0.00074916      -0.20315361       0.09239971 </v>
   <v>       0.00390120      -0.36628460       0.21301747 </v>
   <v>      -0.00790889       0.20036356      -0.12232423 </v>
   <v>      -0.00977953       0.27122112      -0.12754925 </v>
   <v>       0.00708596       0.18500368      -0.11930258 </v>
   <v>      -0.00065887       0.15221776      -0.10272279 </v>
   <v>      -0.00126421       0.19031136      -0.12561565 </v>
   <v>       0.00357463       0.21892259      -0.15269884 </v>
   <v>       0.01193854      -0.07838337      -0.10588580 </v>
   <v>       0.00143358      -0.04022969      -0.11645355 </v>
   <v>       0.00400963      -0.02521696      -0.13278283 </v>
   <v>      -0.00027335      -0.02997461      -0.11792561 </v>
   <v>      -0.00304073      -0.05866846      -0.11475625 </v>
   <v>      -0.00914071      -0.02948717      -0.12018400 </v>
   <v>       0.01126440       0.04387455       0.09926137 </v>
   <v>       0.05984524       0.03028573       0.16445036 </v>
   <v>      -0.02038634       0.07573761       0.11456198 </v>
   <v>       0.08763890       0.05479435       0.21126081 </v>
   <v>      -0.05094051       0.04719998       0.11871271 </v>
   <v>       0.02906879       0.00916734       0.13726163 </v>
   <v>       0.04333538       0.44011443      -0.11159195 </v>
   <v>       0.00096584       0.43268799      -0.04555445 </v>
   <v>       0.07960570       0.39711597      -0.16335417 </v>
   <v>      -0.01144407       0.43605150      -0.08647846 </v>
   <v>       0.03919612       0.42931006      -0.08398776 </v>
   <v>      -0.00868609       0.44579630      -0.06531172 </v>
   <v>       0.00289507      -0.44021994       0.07158155 </v>
   <v>      -0.00933302      -0.42853658       0.07374153 </v>
   <v>       0.02128109      -0.43819258       0.09384813 </v>
   <v>      -0.00238009      -0.44864006       0.07903745 </v>
   <v>       0.00122461      -0.43459534       0.08206942 </v>
   <v>      -0.00477228      -0.43161849       0.06615180 </v>
   <v>       0.00079176      -0.17376830       0.13899738 </v>
   <v>      -0.00525002      -0.16471710       0.11224324 </v>
   <v>       0.01605212      -0.19052370       0.14613862 </v>
   <v>      -0.00832950      -0.15429053       0.10126316 </v>
   <v>       0.01129028      -0.17631621       0.12581359 </v>
   <v>       0.02229720      -0.19066596       0.13516509 </v>
   <v>       0.26725252       0.16403652      -0.08724095 </v>
   <v>       0.11002439       0.18206587      -0.14620678 </v>
   <v>      -0.01058379       0.17011996      -0.07470698 </v>
   <v>      -0.02349384       0.17953202      -0.14379702 </v>
   <v>      -0.21489313       0.04804210      -0.18269497 </v>
   <v>       0.00360581       0.16950227      -0.14350322 </v>
   <v>       0.00501404       0.14774882      -0.05532614 </v>
   <v>      -0.18791837      -0.02267962      -0.33635947 </v>
   <v>      -0.01976612      -0.10424140      -0.14393948 </v>
   <v>      -0.41163018      -0.10617923       0.36493409 </v>
   <v>       0.01763533      -0.03768884      -0.08523966 </v>
   <v>      -0.33669325      -0.00567252      -0.20303827 </v>
   <v>      -0.00414869       0.01397374       0.09852816 </v>
   <v>       0.08098929       0.38474007      -0.08257314 </v>
   <v>       0.01007226       0.02167154       0.13419602 </v>
   <v>      -0.00061988       0.06198880       0.11886719 </v>
   <v>      -0.00097822       0.02716809       0.12043309 </v>
   <v>       0.02623973       0.12287370       0.19762474 </v>
   <v>       0.03045309       0.46961339      -0.07111380 </v>
   <v>       0.02166215       0.46461007      -0.12052918 </v>
   <v>      -0.01023229       0.45830641      -0.08810362 </v>
   <v>      -0.01760271       0.42947793      -0.08779762 </v>
   <v>       0.00313368       0.44712761      -0.06162174 </v>
   <v>      -0.07213504       0.39812405      -0.11567524 </v>
   <v>      -0.01325057      -0.41408094       0.04168927 </v>
   <v>       0.02222493      -0.43189011       0.13476730 </v>
   <v>      -0.39039335      -0.43998629      -0.27593852 </v>
   <v>      -0.05661127      -0.43591829       0.08375837 </v>
   <v>      -0.15702932      -0.42812748       0.07520433 </v>
   <v>       1.27380966      -0.61320898      -0.04881899 </v>
  </varray>
  <varray name="stress" >
   <v>     -55.77861910      -1.91269520       2.98971426 </v>
   <v>      -1.91269503     -54.29408416       1.10443310 </v>
   <v>       2.98971448       1.10443335     -60.50123396 </v>
  </varray>
  <energy>
   <i name="e_fr_energy">   -977.00795227 </i>
   <i name="e_wo_entrp">   -977.00795227 </i>
   <i name="e_0_energy">   -977.00795227 </i>
  </energy>
  <time name="totalsc">18447.4518445.21</time>
  <eigenvalues>
   <array>
    <dimension dim="1">band</dimension>
    <dimension dim="2">kpoint</dimension>
    <dimension dim="3">spin</dimension>
    <field>eigene</field>
    <field>occ</field>
    <set>
     <set comment="spin 1">
      <set comment="kpoint 1">
       <r>  -20.3678    1.0000 </r>
       <r>  -19.0277    1.0000 </r>
       <r>  -18.9880    1.0000 </r>
       <r>  -18.7877    1.0000 </r>
       <r>  -18.6693    1.0000 </r>
       <r>  -18.5925    1.0000 </r>
       <r>  -18.5009    1.0000 </r>
       <r>  -18.3935    1.0000 </r>
       <r>  -18.3553    1.0000 </r>
       <r>  -18.3110    1.0000 </r>
       <r>  -18.2388    1.0000 </r>
       <r>  -18.2212    1.0000 </r>
       <r>  -18.1895    1.0000 </r>
       <r>  -18.1804    1.0000 </r>
       <r>  -18.0864    1.0000 </r>
       <r>  -18.0797    1.0000 </r>
       <r>  -18.0744    1.0000 </r>
       <r>  -18.0497    1.0000 </r>
       <r>  -18.0222    1.0000 </r>
       <r>  -17.9730    1.0000 </r>
       <r>  -17.9483    1.0000 </r>
       <r>  -17.9295    1.0000 </r>
       <r>  -17.9192    1.0000 </r>
       <r>  -17.9095    1.0000 </r>
       <r>  -17.8892    1.0000 </r>
       <r>  -17.8643    1.0000 </r>
       <r>  -17.8331    1.0000 </r>
       <r>  -17.8255    1.0000 </r>
       <r>  -17.7862    1.0000 </r>
       <r>  -17.7701    1.0000 </r>
       <r>  -17.7592    1.0000 </r>
       <r>  -17.7350    1.0000 </r>
       <r>  -17.7020    1.0000 </r>
       <r>  -17.6861    1.0000 </r>
       <r>  -17.6740    1.0000 </r>
       <r>  -17.6619    1.0000 </r>
       <r>  -17.6441    1.0000 </r>
       <r>  -17.6271    1.0000 </r>
       <r>  -17.6002    1.0000 </r>
       <r>  -17.5946    1.0000 </r>
       <r>  -17.5796    1.0000 </r>
       <r>  -17.5715    1.0000 </r>
       <r>  -17.5534    1.0000 </r>
       <r>  -17.5337    1.0000 </r>
       <r>  -17.5200    1.0000 </r>
       <r>  -17.4838    1.0000 </r>
       <r>  -17.4655    1.0000 </r>
       <r>  -17.4387    1.0000 </r>
       <r>  -17.4266    1.0000 </r>
       <r>  -17.4120    1.0000 </r>
       <r>  -17.3945    1.0000 </r>
       <r>  -17.3632    1.0000 </r>
       <r>  -17.3508    1.0000 </r>
       <r>  -17.3395    1.0000 </r>
       <r>  -17.3308    1.0000 </r>
       <r>  -17.3204    1.0000 </r>
       <r>  -17.3187    1.0000 </r>
       <r>  -17.3008    1.0000 </r>
       <r>  -17.2973    1.0000 </r>
       <r>  -17.2776    1.0000 </r>
       <r>  -17.2705    1.0000 </r>
       <r>  -17.2604    1.0000 </r>
       <r>  -17.2553    1.0000 </r>
       <r>  -17.2434    1.0000 </r>
       <r>  -17.2320    1.0000 </r>
       <r>  -17.2084    1.0000 </r>
       <r>  -17.1915    1.0000 </r>
       <r>  -17.1671    1.0000 </r>
       <r>  -17.0719    1.0000 </r>
       <r>  -17.0226    1.0000 </r>
       <r>  -16.9451    1.0000 </r>
       <r>  -13.7247    1.0000 </r>
       <r>  -13.6715    1.0000 </r>
       <r>  -13.6467    1.0000 </r>
       <r>  -13.6089    1.0000 </r>
       <r>  -13.6002    1.0000 </r>
       <r>  -13.5979    1.0000 </r>
       <r>  -13.5853    1.0000 </r>
       <r>  -13.5789    1.0000 </r>
       <r>  -13.5706    1.0000 </r>
       <r>  -13.5655    1.0000 </r>
       <r>  -13.5601    1.0000 </r>
       <r>  -13.5448    1.0000 </r>
       <r>  -13.5378    1.0000 </r>
       <r>  -13.5316    1.0000 </r>
       <r>  -13.5278    1.0000 </r>
       <r>  -13.5208    1.0000 </r>
       <r>  -13.5104    1.0000 </r>
       <r>  -13.4944    1.0000 </r>
       <r>  -13.4892    1.0000 </r>
       <r>  -13.4741    1.0000 </r>
       <r>  -13.4467    1.0000 </r>
       <r>  -13.4427    1.0000 </r>
       <r>  -13.4344    1.0000 </r>
       <r>  -13.4334    1.0000 </r>
       <r>  -13.4253    1.0000 </r>
       <r>  -13.4128    1.0000 </r>
       <r>  -13.4114    1.0000 </r>
       <r>  -13.4083    1.0000 </r>
       <r>  -13.4024    1.0000 </r>
       <r>  -13.3918    1.0000 </r>
       <r>  -13.3804    1.0000 </r>
       <r>  -13.3783    1.0000 </r>
       <r>  -13.3723    1.0000 </r>
       <r>  -13.3661    1.0000 </r>
       <r>  -13.3616    1.0000 </r>
       <r>  -13.3591    1.0000 </r>
       <r>  -13.3564    1.0000 </r>
       <r>  -13.3525    1.0000 </r>
       <r>  -13.3517    1.0000 </r>
       <r>  -13.3496    1.0000 </r>
       <r>  -13.3484    1.0000 </r>
       <r>  -13.3460    1.0000 </r>
       <r>  -13.3427    1.0000 </r>
       <r>  -13.3372    1.0000 </r>
       <r>  -13.3347    1.0000 </r>
       <r>  -13.3327    1.0000 </r>
       <r>  -13.3293    1.0000 </r>
       <r>  -13.3266    1.0000 </r>
       <r>  -13.3207    1.0000 </r>
       <r>  -13.3185    1.0000 </r>
       <r>  -13.3160    1.0000 </r>
       <r>  -13.3152    1.0000 </r>
       <r>  -13.3105    1.0000 </r>
       <r>  -13.3089    1.0000 </r>
       <r>  -13.3077    1.0000 </r>
       <r>  -13.3029    1.0000 </r>
       <r>  -13.2992    1.0000 </r>
       <r>  -13.2989    1.0000 </r>
       <r>  -13.2925    1.0000 </r>
       <r>  -13.2861    1.0000 </r>
       <r>  -13.2814    1.0000 </r>
       <r>  -13.2795    1.0000 </r>
       <r>  -13.2753    1.0000 </r>
       <r>  -13.2694    1.0000 </r>
       <r>  -13.2654    1.0000 </r>
       <r>  -13.2637    1.0000 </r>
       <r>  -13.2562    1.0000 </r>
       <r>  -13.2487    1.0000 </r>
       <r>  -13.2471    1.0000 </r>
       <r>  -13.2417    1.0000 </r>
       <r>  -13.2390    1.0000 </r>
       <r>  -13.2339    1.0000 </r>
       <r>  -13.2332    1.0000 </r>
       <r>  -13.2284    1.0000 </r>
       <r>  -13.2248    1.0000 </r>
       <r>  -13.2224    1.0000 </r>
       <r>  -13.2198    1.0000 </r>
       <r>  -13.2155    1.0000 </r>
       <r>  -13.2142    1.0000 </r>
       <r>  -13.2062    1.0000 </r>
       <r>  -13.2043    1.0000 </r>
       <r>  -13.2015    1.0000 </r>
       <r>  -13.1989    1.0000 </r>
       <r>  -13.1980    1.0000 </r>
       <r>  -13.1949    1.0000 </r>
       <r>  -13.1926    1.0000 </r>
       <r>  -13.1910    1.0000 </r>
       <r>  -13.1875    1.0000 </r>
       <r>  -13.1858    1.0000 </r>
       <r>  -13.1838    1.0000 </r>
       <r>  -13.1801    1.0000 </r>
       <r>  -13.1783    1.0000 </r>
       <r>  -13.1756    1.0000 </r>
       <r>  -13.1748    1.0000 </r>
       <r>  -13.1729    1.0000 </r>
       <r>  -13.1712    1.0000 </r>
       <r>  -13.1650    1.0000 </r>
       <r>  -13.1642    1.0000 </r>
       <r>  -13.1619    1.0000 </r>
       <r>  -13.1604    1.0000 </r>
       <r>  -13.1553    1.0000 </r>
       <r>  -13.1541    1.0000 </r>
       <r>  -13.1494    1.0000 </r>
       <r>  -13.1484    1.0000 </r>
       <r>  -13.1432    1.0000 </r>
       <r>  -13.1425    1.0000 </r>
       <r>  -13.1406    1.0000 </r>
       <r>  -13.1372    1.0000 </r>
       <r>  -13.1339    1.0000 </r>
       <r>  -13.1294    1.0000 </r>
       <r>  -13.1260    1.0000 </r>
       <r>  -13.1240    1.0000 </r>
       <r>  -13.1204    1.0000 </r>
       <r>  -13.1189    1.0000 </r>
       <r>  -13.1149    1.0000 </r>
       <r>  -13.1135    1.0000 </r>
       <r>  -13.1124    1.0000 </r>
       <r>  -13.1091    1.0000 </r>
       <r>  -13.1056    1.0000 </r>
       <r>  -13.1035    1.0000 </r>
       <r>  -13.0983    1.0000 </r>
       <r>  -13.0923    1.0000 </r>
       <r>  -13.0917    1.0000 </r>
       <r>  -13.0885    1.0000 </r>
       <r>  -13.0880    1.0000 </r>
       <r>  -13.0838    1.0000 </r>
       <r>  -13.0796    1.0000 </r>
       <r>  -13.0756    1.0000 </r>
       <r>  -13.0742    1.0000 </r>
       <r>  -13.0703    1.0000 </r>
       <r>  -13.0697    1.0000 </r>
       <r>  -13.0655    1.0000 </r>
       <r>  -13.0646    1.0000 </r>
       <r>  -13.0626    1.0000 </r>
       <r>  -13.0595    1.0000 </r>
       <r>  -13.0573    1.0000 </r>
       <r>  -13.0551    1.0000 </r>
       <r>  -13.0521    1.0000 </r>
       <r>  -13.0510    1.0000 </r>
       <r>  -13.0491    1.0000 </r>
       <r>  -13.0481    1.0000 </r>
       <r>  -13.0445    1.0000 </r>
       <r>  -13.0441    1.0000 </r>
       <r>  -13.0431    1.0000 </r>
       <r>  -13.0409    1.0000 </r>
       <r>  -13.0380    1.0000 </r>
       <r>  -13.0338    1.0000 </r>
       <r>  -13.0324    1.0000 </r>
       <r>  -13.0311    1.0000 </r>
       <r>  -13.0295    1.0000 </r>
       <r>  -13.0272    1.0000 </r>
       <r>  -13.0258    1.0000 </r>
       <r>  -13.0228    1.0000 </r>
       <r>  -13.0221    1.0000 </r>
       <r>  -13.0202    1.0000 </r>
       <r>  -13.0173    1.0000 </r>
       <r>  -13.0156    1.0000 </r>
       <r>  -13.0131    1.0000 </r>
       <r>  -13.0112    1.0000 </r>
       <r>  -13.0057    1.0000 </r>
       <r>  -13.0036    1.0000 </r>
       <r>  -12.9982    1.0000 </r>
       <r>  -12.9936    1.0000 </r>
       <r>  -12.9924    1.0000 </r>
       <r>  -12.9893    1.0000 </r>
       <r>  -12.9836    1.0000 </r>
       <r>  -12.9801    1.0000 </r>
       <r>  -12.9763    1.0000 </r>
       <r>  -12.9726    1.0000 </r>
       <r>  -12.9715    1.0000 </r>
       <r>  -12.9646    1.0000 </r>
       <r>  -12.9589    1.0000 </r>
       <r>  -12.9585    1.0000 </r>
       <r>  -12.9512    1.0000 </r>
       <r>  -12.9485    1.0000 </r>
       <r>  -12.9410    1.0000 </r>
       <r>  -12.9380    1.0000 </r>
       <r>  -12.9320    1.0000 </r>
[...]
       <r>   -13.7652     1.8670   142.2603 </r>
       <r>   -13.6258    52.8870   149.6328 </r>
       <r>   -13.4864   203.5780   178.0121 </r>
       <r>   -13.3470   338.9662   225.2648 </r>
       <r>   -13.2076   575.8707   305.5425 </r>
       <r>   -13.0682   730.7263   407.4075 </r>
       <r>   -12.9288   639.9008   496.6112 </r>
       <r>   -12.7894   201.8776   524.7534 </r>
       <r>   -12.6500   169.9846   548.4496 </r>
       <r>   -12.5106   120.0078   565.1790 </r>
       <r>   -12.3712    97.2537   578.7364 </r>
       <r>   -12.2318   109.4856   593.9989 </r>
       <r>   -12.0924    97.8241   607.6358 </r>
       <r>   -11.9530    30.3139   611.8617 </r>
       <r>   -11.8136     0.9923   612.0000 </r>
       <r>   -11.6742     0.0000   612.0000 </r>
       <r>   -11.5348     0.0000   612.0000 </r>
       <r>   -11.3954     0.0000   612.0000 </r>
       <r>   -11.2560     0.0000   612.0000 </r>
       <r>   -11.1166     0.0000   612.0000 </r>
       <r>   -10.9772     0.0000   612.0000 </r>
       <r>   -10.8378     0.0000   612.0000 </r>
       <r>   -10.6984     0.0000   612.0000 </r>
       <r>   -10.5590     0.0000   612.0000 </r>
       <r>   -10.4196     0.0000   612.0000 </r>
       <r>   -10.2802     0.0000   612.0000 </r>
       <r>   -10.1408     0.0000   612.0000 </r>
       <r>   -10.0013     0.0000   612.0000 </r>
       <r>    -9.8619     0.0000   612.0000 </r>
       <r>    -9.7225     0.0000   612.0000 </r>
       <r>    -9.5831     0.0000   612.0000 </r>
       <r>    -9.4437     0.0000   612.0000 </r>
       <r>    -9.3043     0.0000   612.0000 </r>
       <r>    -9.1649     0.0000   612.0000 </r>
       <r>    -9.0255     0.0000   612.0000 </r>
       <r>    -8.8861     0.0000   612.0000 </r>
       <r>    -8.7467     0.0000   612.0000 </r>
       <r>    -8.6073     0.0000   612.0000 </r>
       <r>    -8.4679     0.0000   612.0000 </r>
       <r>    -8.3285     0.0000   612.0000 </r>
       <r>    -8.1891     0.0000   612.0000 </r>
       <r>    -8.0497     0.0000   612.0000 </r>
       <r>    -7.9103     0.0277   612.0039 </r>
       <r>    -7.7709    12.1409   613.6963 </r>
       <r>    -7.6315     2.1783   614.0000 </r>
       <r>    -7.4921     0.0000   614.0000 </r>
       <r>    -7.3527     0.0000   614.0000 </r>
       <r>    -7.2133     0.0000   614.0000 </r>
       <r>    -7.0739     0.0000   614.0000 </r>
       <r>    -6.9345     0.0000   614.0000 </r>
       <r>    -6.7951     0.0000   614.0000 </r>
       <r>    -6.6557     0.0000   614.0000 </r>
       <r>    -6.5163     0.0000   614.0000 </r>
       <r>    -6.3769     0.0000   614.0000 </r>
       <r>    -6.2375     0.0000   614.0000 </r>
       <r>    -6.0981     0.0000   614.0000 </r>
       <r>    -5.9587     0.0000   614.0000 </r>
       <r>    -5.8193     0.0000   614.0000 </r>
       <r>    -5.6799     0.0000   614.0000 </r>
       <r>    -5.5405     0.0074   614.0010 </r>
       <r>    -5.4011     6.0971   614.8510 </r>
       <r>    -5.2617    16.5048   617.1518 </r>
       <r>    -5.1223    21.8151   620.1929 </r>
       <r>    -4.9829    22.8145   623.3733 </r>
       <r>    -4.8435    31.3781   627.7475 </r>
       <r>    -4.7041    35.9643   632.7610 </r>
       <r>    -4.5647    40.4773   638.4036 </r>
       <r>    -4.4253    48.2403   645.1284 </r>
       <r>    -4.2859    48.8102   651.9327 </r>
       <r>    -4.1464    48.2395   658.6574 </r>
       <r>    -4.0070    41.1381   664.3921 </r>
       <r>    -3.8676    51.8930   671.6261 </r>
       <r>    -3.7282    33.6093   676.3114 </r>
       <r>    -3.5888    29.6738   680.4480 </r>
       <r>    -3.4494    35.6287   685.4147 </r>
       <r>    -3.3100    39.8128   690.9647 </r>
       <r>    -3.1706    33.3231   695.6100 </r>
       <r>    -3.0312    36.9615   700.7625 </r>
       <r>    -2.8918    31.8128   705.1973 </r>
       <r>    -2.7524    34.0991   709.9508 </r>
       <r>    -2.6130    38.8719   715.3696 </r>
       <r>    -2.4736    41.9925   721.2235 </r>
       <r>    -2.3342    46.1472   727.6565 </r>
       <r>    -2.1948    39.3173   733.1375 </r>
       <r>    -2.0554    50.4420   740.1692 </r>
       <r>    -1.9160    64.1024   749.1052 </r>
       <r>    -1.7766    67.0208   758.4481 </r>
       <r>    -1.6372    54.6229   766.0627 </r>
       <r>    -1.4978    58.8107   774.2610 </r>
       <r>    -1.3584    59.7658   782.5925 </r>
       <r>    -1.2190    48.1035   789.2982 </r>
       <r>    -1.0796    64.3863   798.2738 </r>
       <r>    -0.9402    69.6149   807.9783 </r>
       <r>    -0.8008    66.4121   817.2363 </r>
       <r>    -0.6614    70.1334   827.0131 </r>
       <r>    -0.5220    63.0848   835.8072 </r>
       <r>    -0.3826    69.3615   845.4764 </r>
       <r>    -0.2432    67.6519   854.9072 </r>
       <r>    -0.1038    78.0839   865.7923 </r>
       <r>     0.0356    77.6769   876.6207 </r>
       <r>     0.1750    69.2820   886.2787 </r>
       <r>     0.3144    72.7903   896.4259 </r>
       <r>     0.4538    82.8181   907.9709 </r>
       <r>     0.5932    86.6168   920.0455 </r>
       <r>     0.7326    93.0174   933.0124 </r>
       <r>     0.8720    86.1550   945.0226 </r>
       <r>     1.0114   108.6921   960.1745 </r>
       <r>     1.1508   114.0577   976.0744 </r>
       <r>     1.2902   117.4205   992.4431 </r>
       <r>     1.4296   121.4197  1009.3693 </r>
       <r>     1.5690    87.2975  1021.5388 </r>
       <r>     1.7084    54.6975  1029.1637 </r>
       <r>     1.8479    48.3472  1035.9034 </r>
       <r>     1.9873    14.8495  1037.9735 </r>
       <r>     2.1267     0.1903  1038.0000 </r>
       <r>     2.2661     0.0000  1038.0000 </r>
       <r>     2.4055     0.0000  1038.0000 </r>
       <r>     2.5449     0.0000  1038.0000 </r>
       <r>     2.6843     0.3116  1038.0434 </r>
       <r>     2.8237     4.0000  1038.6010 </r>
       <r>     2.9631     8.6470  1039.8064 </r>
       <r>     3.1025     1.3884  1040.0000 </r>
       <r>     3.2419     0.0000  1040.0000 </r>
       <r>     3.3813     0.0000  1040.0000 </r>
       <r>     3.5207     0.0000  1040.0000 </r>
       <r>     3.6601     0.0000  1040.0000 </r>
       <r>     3.7995     0.0000  1040.0000 </r>
       <r>     3.9389     0.0000  1040.0000 </r>
       <r>     4.0783     0.0000  1040.0000 </r>
       <r>     4.2177     0.0392  1040.0055 </r>
       <r>     4.3571     6.6408  1040.9312 </r>
       <r>     4.4965     7.3045  1041.9495 </r>
       <r>     4.6359     0.3625  1042.0000 </r>
       <r>     4.7753     0.0000  1042.0000 </r>
       <r>     4.9147     0.0000  1042.0000 </r>
       <r>     5.0541     0.0000  1042.0000 </r>
       <r>     5.1935     0.0000  1042.0000 </r>
       <r>     5.3329     0.0000  1042.0000 </r>
       <r>     5.4723     0.0000  1042.0000 </r>
       <r>     5.6117     0.0000  1042.0000 </r>
       <r>     5.7511     0.0000  1042.0000 </r>
       <r>     5.8905     0.0000  1042.0000 </r>
       <r>     6.0299     0.0000  1042.0000 </r>
       <r>     6.1693     0.0000  1042.0000 </r>
       <r>     6.3087     0.0000  1042.0000 </r>
       <r>     6.4481     0.0000  1042.0000 </r>
       <r>     6.5875     0.0000  1042.0000 </r>
       <r>     6.7269     0.0000  1042.0000 </r>
       <r>     6.8663     0.0000  1042.0000 </r>
       <r>     7.0057     0.5111  1042.0713 </r>
       <r>     7.1451     1.2816  1042.2499 </r>
       <r>     7.2845     0.0007  1042.2500 </r>
       <r>     7.4239     0.0002  1042.2500 </r>
       <r>     7.5633     1.0327  1042.3940 </r>
       <r>     7.7028     2.3769  1042.7253 </r>
       <r>     7.8422     0.3096  1042.7685 </r>
       <r>     7.9816     4.8554  1043.4454 </r>
       <r>     8.1210     2.1386  1043.7435 </r>
       <r>     8.2604     1.8371  1043.9996 </r>
       <r>     8.3998     4.2539  1044.5926 </r>
       <r>     8.5392     6.8684  1045.5500 </r>
       <r>     8.6786     1.8717  1045.8110 </r>
       <r>     8.8180     2.6727  1046.1836 </r>
       <r>     8.9574    11.5353  1047.7916 </r>
       <r>     9.0968     6.0661  1048.6372 </r>
       <r>     9.2362     7.0628  1049.6218 </r>
       <r>     9.3756     7.7070  1050.6962 </r>
       <r>     9.5150    10.7243  1052.1912 </r>
       <r>     9.6544    10.0975  1053.5988 </r>
       <r>     9.7938     9.1832  1054.8790 </r>
       <r>     9.9332     9.3087  1056.1766 </r>
       <r>    10.0726    14.3402  1058.1757 </r>
       <r>    10.2120    20.8894  1061.0877 </r>
       <r>    10.3514    15.9090  1063.3054 </r>
       <r>    10.4908    23.2722  1066.5497 </r>
       <r>    10.6302    25.2211  1070.0655 </r>
       <r>    10.7696    30.1777  1074.2724 </r>
       <r>    10.9090    41.4890  1080.0560 </r>
       <r>    11.0484    34.0220  1084.7988 </r>
       <r>    11.1878    23.3456  1088.0532 </r>
       <r>    11.3272    33.3484  1092.7021 </r>
       <r>    11.4666    36.0622  1097.7292 </r>
       <r>    11.6060    32.0620  1102.1988 </r>
       <r>    11.7454    30.5214  1106.4535 </r>
       <r>    11.8848    35.1094  1111.3478 </r>
       <r>    12.0242    40.0995  1116.9378 </r>
       <r>    12.1636    31.9117  1121.3864 </r>
       <r>    12.3030    29.3706  1125.4807 </r>
       <r>    12.4424    35.3232  1130.4048 </r>
       <r>    12.5818    47.5884  1137.0388 </r>
       <r>    12.7212    36.5407  1142.1326 </r>
       <r>    12.8606    31.3579  1146.5040 </r>
       <r>    13.0000    24.8858  1149.9731 </r>
       <r>    13.1394    31.2412  1154.3282 </r>
       <r>    13.2788    33.9916  1159.0667 </r>
       <r>    13.4182    40.6902  1164.7390 </r>
       <r>    13.5577    36.6257  1169.8447 </r>
       <r>    13.6971    28.6105  1173.8331 </r>
       <r>    13.8365    30.4698  1178.0807 </r>
       <r>    13.9759    27.1142  1181.8605 </r>
       <r>    14.1153    28.6721  1185.8574 </r>
       <r>    14.2547    28.1018  1189.7749 </r>
       <r>    14.3941    23.6258  1193.0684 </r>
       <r>    14.5335    21.6875  1196.0917 </r>
       <r>    14.6729    27.8030  1199.9675 </r>
       <r>    14.8123    29.2898  1204.0505 </r>
       <r>    14.9517    25.8873  1207.6593 </r>
       <r>    15.0911    21.4885  1210.6548 </r>
       <r>    15.2305    26.7811  1214.3882 </r>
       <r>    15.3699    23.8231  1217.7092 </r>
       <r>    15.5093    21.5598  1220.7146 </r>
       <r>    15.6487    18.8411  1223.3411 </r>
       <r>    15.7881    16.9305  1225.7013 </r>
       <r>    15.9275    21.4013  1228.6847 </r>
       <r>    16.0669    18.7697  1231.3012 </r>
       <r>    16.2063    19.4140  1234.0076 </r>
       <r>    16.3457    20.9486  1236.9279 </r>
       <r>    16.4851    18.1480  1239.4577 </r>
       <r>    16.6245    11.3740  1241.0433 </r>
       <r>    16.7639    17.6007  1243.4969 </r>
       <r>    16.9033    11.5482  1245.1067 </r>
       <r>    17.0427    13.3658  1246.9700 </r>
       <r>    17.1821     8.2134  1248.1149 </r>
       <r>    17.3215     5.0697  1248.8216 </r>
       <r>    17.4609     5.0369  1249.5238 </r>
       <r>    17.6003     1.7530  1249.7682 </r>
       <r>    17.7397     1.6522  1249.9985 </r>
       <r>    17.8791     0.0109  1250.0000 </r>
       <r>    18.0185     0.0000  1250.0000 </r>
       <r>    18.1579     0.0000  1250.0000 </r>
       <r>    18.2973     0.0000  1250.0000 </r>
       <r>    18.4367     0.0000  1250.0000 </r>
       <r>    18.5761     0.0000  1250.0000 </r>
       <r>    18.7155     0.0000  1250.0000 </r>
       <r>    18.8549     0.0000  1250.0000 </r>
       <r>    18.9943     0.0000  1250.0000 </r>
       <r>    19.1337     0.0000  1250.0000 </r>
       <r>    19.2731     0.0000  1250.0000 </r>
       <r>    19.4125     0.0000  1250.0000 </r>
       <r>    19.5520     0.0000  1250.0000 </r>
      </set>
     </set>
    </array>
   </total>
  </dos>
 </calculation>
 <structure name="finalpos" >
  <crystal>
   <varray name="basis" >
    <v>       0.00000000      12.28047342       0.00000000 </v>
    <v>       9.14270205       0.00000000       0.00000000 </v>
    <v>       0.00000000      -2.76826177     -11.30069772 </v>
   </varray>
   <i name="volume">   1268.80515525 </i>
   <varray name="rec_basis" >
    <v>       0.00000000       0.08143009      -0.01994742 </v>
    <v>       0.10937686      -0.00000000       0.00000000 </v>
    <v>       0.00000000       0.00000000      -0.08849011 </v>
   </varray>
  </crystal>
  <varray name="positions" >
   <v>       0.65805671       0.99803705       0.15553789 </v>
   <v>       0.66160048       0.99866884       0.65621802 </v>
   <v>       0.65847984       0.33029427       0.15596337 </v>
   <v>       0.65955615       0.33188056       0.65744735 </v>
   <v>       0.65805085       0.66465193       0.15592977 </v>
   <v>       0.66163386       0.66495665       0.65639582 </v>
   <v>       0.84388527       0.16390227       0.34145082 </v>
   <v>       0.84189815       0.16230361       0.84502684 </v>
   <v>       0.83984587       0.50082199       0.34113395 </v>
   <v>       0.84228686       0.49751744       0.84362916 </v>
   <v>       0.84198807       0.83391648       0.34258796 </v>
   <v>       0.84141815       0.82998669       0.84542088 </v>
   <v>       0.59258948       0.16423789       0.39727169 </v>
   <v>       0.59124856       0.16387583       0.89681257 </v>
   <v>       0.59186216       0.49708634       0.39791405 </v>
   <v>       0.59299977       0.50143464       0.89764434 </v>
   <v>       0.59082938       0.83128735       0.39702178 </v>
   <v>       0.58892460       0.83224990       0.89613533 </v>
   <v>       0.91103203       0.99611038       0.10437237 </v>
   <v>       0.90923003       0.00886201       0.60205600 </v>
   <v>       0.90930679       0.33035403       0.10178730 </v>
   <v>       0.89999540       0.35094167       0.59910452 </v>
   <v>       0.90925178       0.66300988       0.10244771 </v>
   <v>       0.90942084       0.67998268       0.60151760 </v>
   <v>       0.15904228       0.15988595       0.15903068 </v>
   <v>       0.15993160       0.49645127       0.15526658 </v>
   <v>       0.15574361       0.52030737       0.65667577 </v>
   <v>       0.15951032       0.83018153       0.15868855 </v>
   <v>       0.16095959       0.86675035       0.62819344 </v>
   <v>       0.34041222       0.99707863       0.34257567 </v>
   <v>       0.33690791       0.00127746       0.83761240 </v>
   <v>       0.34170099       0.32939719       0.34361162 </v>
   <v>       0.34720024       0.32947985       0.83946085 </v>
   <v>       0.34128529       0.66297158       0.34195137 </v>
   <v>       0.33761861       0.66644290       0.84085449 </v>
   <v>       0.10729908       0.98579178       0.42301755 </v>
   <v>       0.09394095       0.98855734       0.89616334 </v>
   <v>       0.08562644       0.32576757       0.39066719 </v>
   <v>       0.08965320       0.32309709       0.89810937 </v>
   <v>       0.08758250       0.66503646       0.39311673 </v>
   <v>       0.09184126       0.66021963       0.89773103 </v>
   <v>       0.40687779       0.16404333       0.09998923 </v>
   <v>       0.41289786       0.16510085       0.60391202 </v>
   <v>       0.40753385       0.49579557       0.09895544 </v>
   <v>       0.40950588       0.49870730       0.60148091 </v>
   <v>       0.40857187       0.83050224       0.10014618 </v>
   <v>       0.41382499       0.83103170       0.60104895 </v>
   <v>       0.99677020       0.16407165       0.12911104 </v>
   <v>       0.99648798       0.18576075       0.62783004 </v>
   <v>       0.99718821       0.49654757       0.12703885 </v>
   <v>       0.99359113       0.51069987       0.62705299 </v>
   <v>       0.99676852       0.82884278       0.12463583 </v>
   <v>       0.99848683       0.84502458       0.62580384 </v>
   <v>       0.50380492       0.99861195       0.37309493 </v>
   <v>       0.50235750       0.99878117       0.87209966 </v>
   <v>       0.50413482       0.33047534       0.37379398 </v>
   <v>       0.50806284       0.33377871       0.87370190 </v>
   <v>       0.50430155       0.66341521       0.37288398 </v>
   <v>       0.50147035       0.66488297       0.86894917 </v>
   <v>       0.67331123       0.16500501       0.27981628 </v>
   <v>       0.67379390       0.16482100       0.78043717 </v>
   <v>       0.67214768       0.49760200       0.27968191 </v>
   <v>       0.67418445       0.49978799       0.78028731 </v>
   <v>       0.67251282       0.83188927       0.27991061 </v>
   <v>       0.67364722       0.83259689       0.78076193 </v>
   <v>       0.82657620       0.99809107       0.21864663 </v>
   <v>       0.82951157       0.00168702       0.71938294 </v>
   <v>       0.82867305       0.32976343       0.21925353 </v>
   <v>       0.82742763       0.33312933       0.72051809 </v>
   <v>       0.82642694       0.66347165       0.21807504 </v>
   <v>       0.82881497       0.66791588       0.71954358 </v>
   <v>       0.83207370       0.00250235       0.44652911 </v>
   <v>       0.83305537       0.99659281       0.94724121 </v>
   <v>       0.83226680       0.33331849       0.44267590 </v>
   <v>       0.83366908       0.32979959       0.94535466 </v>
   <v>       0.83219653       0.66803516       0.44503894 </v>
   <v>       0.83194992       0.66185974       0.94603269 </v>
   <v>       0.66802656       0.16429298       0.05350442 </v>
   <v>       0.67003260       0.16617715       0.55406242 </v>
   <v>       0.66853566       0.49797635       0.05437920 </v>
   <v>       0.67195508       0.49756757       0.55393047 </v>
   <v>       0.66610452       0.83070473       0.05299354 </v>
   <v>       0.66933395       0.83162013       0.55357575 </v>
   <v>       0.49532884       0.99815807       0.12662353 </v>
   <v>       0.50002609       0.99818676       0.62571891 </v>
   <v>       0.49578505       0.32985573       0.12634070 </v>
   <v>       0.49846043       0.33372977       0.62564702 </v>
   <v>       0.49521368       0.66253707       0.12512645 </v>
   <v>       0.49898776       0.66318624       0.62677965 </v>
   <v>       0.00877000       0.15351766       0.38090002 </v>
   <v>       0.00449410       0.15638217       0.87081525 </v>
   <v>       0.00278728       0.49536394       0.37169856 </v>
   <v>       0.00515489       0.49185805       0.87170427 </v>
   <v>       0.00114797       0.83119974       0.36485895 </v>
   <v>       0.00253802       0.82527635       0.87280787 </v>
   <v>       0.17316626       0.99539950       0.28384381 </v>
   <v>       0.17389341       0.98492338       0.78084300 </v>
   <v>       0.17290429       0.32988616       0.28074891 </v>
   <v>       0.16211084       0.31830849       0.76581977 </v>
   <v>       0.17318982       0.66213199       0.27966344 </v>
   <v>       0.17420972       0.65842188       0.78392921 </v>
   <v>       0.32783520       0.16391725       0.22018726 </v>
   <v>       0.33847995       0.17018263       0.72392055 </v>
   <v>       0.32784703       0.49514402       0.21838159 </v>
   <v>       0.32399364       0.49597540       0.71527440 </v>
   <v>       0.32851735       0.82911981       0.21867691 </v>
   <v>       0.32485855       0.83618521       0.71053783 </v>
   <v>       0.32981309       0.16370900       0.44863126 </v>
   <v>       0.32857610       0.16755554       0.94361548 </v>
   <v>       0.33098247       0.49623254       0.44547902 </v>
   <v>       0.33082980       0.49296531       0.94135769 </v>
   <v>       0.33538433       0.82995029       0.44525712 </v>
   <v>       0.33453615       0.83201065       0.94312341 </v>
   <v>       0.16767751       0.99549504       0.05463913 </v>
   <v>       0.16764148       0.32738114       0.05369356 </v>
   <v>       0.15075661       0.33890113       0.55773921 </v>
   <v>       0.16913025       0.66304998       0.05420343 </v>
   <v>       0.16567230       0.67136184       0.54955166 </v>
   <v>       0.13994981       0.19852817       0.64778002 </v>
  </varray>
 </structure>
</modeling>
