 running    4 mpi-ranks, on    1 nodes
 distrk:  each k-point on    1 cores,    4 groups
 distr:  one band on    1 cores,    1 groups
 OpenACC runtime initialized ...    4 GPUs detected
 vasp.6.4.2 20Jul23 (build Nov 12 2023 22:16:35) complex                         
 POSCAR found type information on POSCAR GaO P 
 POSCAR found :  3 types and     120 ions
 scaLAPACK will be used selectively (only on CPU)
 LDA part: xc-table for Pade appr. of Perdew
 POSCAR, INCAR and KPOINTS ok, starting setup
 FFT: planning ... GRIDC
 FFT: planning ... GRID_SOFT
 FFT: planning ... GRID
 WAVECAR not read
 initial charge from wavefunction
 entering main loop
       N       E                     dE             d eps       ncg     rms          ort
DAV:   1    -0.186132007726E+05   -0.18613E+05   -0.54337E+05  5064   0.747E+03
DAV:   2    -0.630239903380E+05   -0.44411E+05   -0.43009E+05  5064   0.122E+03
DAV:   3    -0.678834951336E+05   -0.48595E+04   -0.43465E+04  5064   0.365E+02
DAV:   4    -0.685250223024E+05   -0.64153E+03   -0.56571E+03  5064   0.111E+02
DAV:   5    -0.383659499482E+05    0.30159E+05   -0.89000E+02  5064   0.567E+01
 gam= 0.000 g(H,U,f)=  0.764E+05 0.168E+05 0.153E+02 ort(H,U,f) = 0.000E+00 0.000E+00 0.000E+00
SDA:   6     0.273509969245E+05    0.65717E+05   -0.89000E+02  5064   0.932E+05 0.000E+00
 gam= 0.000 trial= 0.400  step= 0.382 mean= 0.400
 gam= 0.806 g(H,U,f)=  0.383E+05 0.322E+05 0.468E+04 ort(H,U,f) =-0.207E+04-0.230E+05-0.395E+04
CGA:   7     0.907995419693E+04   -0.18271E+05   -0.17830E+05  5064   0.752E+05-0.290E+05
 gam= 0.806 trial= 0.399  step= 0.213 mean= 0.399
 gam= 0.330 g(H,U,f)=  0.151E+05 0.921E+04 0.466E+03 ort(H,U,f) = 0.127E+04 0.335E+04 0.181E+03
CGA:   8     0.432972028729E+04   -0.47502E+04   -0.55235E+04  5064   0.248E+05 0.480E+04
 gam= 0.330 trial= 0.390  step= 0.166 mean= 0.390
 gam= 0.550 g(H,U,f)=  0.101E+05 0.342E+04 0.663E+02 ort(H,U,f) = 0.883E+03-0.119E+04-0.464E+02
CGA:   9     0.276100421323E+04   -0.15687E+04   -0.21871E+04  5064   0.136E+05-0.359E+03
 gam= 0.550 trial= 0.379  step= 0.226 mean= 0.379
 gam= 0.713 g(H,U,f)=  0.751E+04 0.211E+04 0.908E+02 ort(H,U,f) = 0.130E+04-0.426E+03-0.414E+02
CGA:  10     0.161884870389E+04   -0.11422E+04   -0.15156E+04  5064   0.972E+04 0.833E+03
 gam= 0.713 trial= 0.371  step= 0.236 mean= 0.371
 gam= 0.431 g(H,U,f)=  0.338E+04 0.799E+03 0.134E+02 ort(H,U,f) = 0.224E+03 0.513E+03 0.185E+01
CGA:  11     0.681925657296E+03   -0.93692E+03   -0.12143E+04  5064   0.419E+04 0.739E+03
 gam= 0.431 trial= 0.364  step= 0.331 mean= 0.364
 gam= 0.546 g(H,U,f)=  0.133E+04 0.925E+03 0.354E+02 ort(H,U,f) = 0.442E+03 0.697E+02-0.175E+02
CGA:  12    -0.486625720605E+02   -0.73059E+03   -0.74730E+03  5064   0.229E+04 0.494E+03
 gam= 0.546 trial= 0.363  step= 0.327 mean= 0.363
 gam= 0.364 g(H,U,f)=  0.720E+03 0.114E+03 0.110E+00 ort(H,U,f) = 0.778E+02 0.251E+03 0.215E+00
CGA:  13    -0.453139001299E+03   -0.40448E+03   -0.41861E+03  5064   0.834E+03 0.329E+03
 gam= 0.364 trial= 0.361  step= 0.595 mean= 0.361
 gam= 0.475 g(H,U,f)=  0.337E+03 0.582E+02 0.621E+00 ort(H,U,f) =-0.105E+03 0.995E+02 0.150E+01
CGA:  14    -0.735544380984E+03   -0.28241E+03   -0.28392E+03  5064   0.396E+03-0.390E+01
 gam= 0.475 trial= 0.373  step= 0.635 mean= 0.373
 gam= 0.526 g(H,U,f)=  0.190E+03 0.166E+02 0.115E+01 ort(H,U,f) =-0.914E+02 0.402E+02 0.296E+01
CGA:  15    -0.851300440218E+03   -0.11576E+03   -0.12503E+03  5064   0.208E+03-0.483E+02
 gam= 0.526 trial= 0.386  step= 0.535 mean= 0.386
 gam= 0.432 g(H,U,f)=  0.807E+02 0.804E+01 0.110E+01 ort(H,U,f) =-0.349E+01-0.650E+00 0.136E+00
CGA:  16    -0.899921708560E+03   -0.48621E+02   -0.48941E+02  5064   0.899E+02-0.400E+01
 gam= 0.432 trial= 0.393  step= 0.502 mean= 0.393
 gam= 0.452 g(H,U,f)=  0.343E+02 0.628E+01 0.651E-08 ort(H,U,f) =-0.101E+01-0.762E+00 0.895E-08
CGA:  17    -0.921886414458E+03   -0.21965E+02   -0.22117E+02  5064   0.406E+02-0.177E+01
 gam= 0.452 trial= 0.399  step= 0.581 mean= 0.399
 gam= 0.487 g(H,U,f)=  0.158E+02 0.402E+01 0.104E-15 ort(H,U,f) =-0.232E+01 0.234E+01 0.228E-15
CGA:  18    -0.933458054442E+03   -0.11572E+02   -0.11562E+02  5064   0.198E+02 0.287E-01
 gam= 0.487 trial= 0.408  step= 0.555 mean= 0.408
 gam= 0.500 g(H,U,f)=  0.798E+01 0.192E+01 0.326E-14 ort(H,U,f) =-0.257E+01 0.258E+01 0.103E-13
CGA:  19    -0.938954689526E+03   -0.54966E+01   -0.54955E+01  5064   0.990E+01 0.481E-02
 gam= 0.500 trial= 0.415  step= 0.621 mean= 0.415
 gam= 0.505 g(H,U,f)=  0.420E+01 0.795E+00 0.349E-20 ort(H,U,f) =-0.128E+01 0.128E+01 0.250E-19
CGA:  20    -0.942030757346E+03   -0.30761E+01   -0.30758E+01  5064   0.500E+01 0.225E-02
 gam= 0.505 trial= 0.425  step= 0.587 mean= 0.425
 gam= 0.438 g(H,U,f)=  0.189E+01 0.299E+00 0.270E-18 ort(H,U,f) =-0.522E+00 0.531E+00-0.424E-17
CGA:  21    -0.943496629618E+03   -0.14659E+01   -0.14655E+01  5064   0.219E+01 0.806E-02
 gam= 0.438 trial= 0.433  step= 0.647 mean= 0.433
 gam= 0.481 g(H,U,f)=  0.960E+00 0.937E-01 0.112E-13 ort(H,U,f) =-0.876E-01 0.972E-01-0.414E-13
CGA:  22    -0.944207322673E+03   -0.71069E+00   -0.70968E+00  5064   0.105E+01 0.959E-02
 gam= 0.481 trial= 0.444  step= 0.582 mean= 0.444
 gam= 0.490 g(H,U,f)=  0.455E+00 0.609E-01 0.895E-13 ort(H,U,f) =-0.201E-02 0.589E-02-0.668E-13
CGA:  23    -0.944515757166E+03   -0.30843E+00   -0.30814E+00  5064   0.516E+00 0.388E-02
 gam= 0.490 trial= 0.451  step= 0.581 mean= 0.451
 gam= 0.483 g(H,U,f)=  0.209E+00 0.399E-01 0.415E-12 ort(H,U,f) =-0.155E-01 0.156E-01 0.684E-12
CGA:  24    -0.944666293187E+03   -0.15054E+00   -0.15052E+00  5064   0.249E+00 0.358E-04
 gam= 0.483 trial= 0.458  step= 0.536 mean= 0.458
 gam= 0.442 g(H,U,f)=  0.856E-01 0.246E-01 0.195E-16 ort(H,U,f) =-0.257E-01 0.250E-01 0.607E-16
CGA:  25    -0.944732997325E+03   -0.66704E-01   -0.66736E-01  5064   0.110E+00-0.738E-03
 gam= 0.442 trial= 0.461  step= 0.656 mean= 0.461
 gam= 0.531 g(H,U,f)=  0.486E-01 0.984E-02 0.403E-21 ort(H,U,f) =-0.175E-01 0.170E-01 0.219E-20
CGA:  26    -0.944768942078E+03   -0.35945E-01   -0.35998E-01  5064   0.585E-01-0.480E-03
 gam= 0.531 trial= 0.471  step= 0.637 mean= 0.471
 gam= 0.481 g(H,U,f)=  0.246E-01 0.352E-02 0.351E-14 ort(H,U,f) =-0.655E-02 0.644E-02 0.856E-13
CGA:  27    -0.944787473671E+03   -0.18532E-01   -0.18543E-01  5064   0.281E-01-0.106E-03
 gam= 0.481 trial= 0.479  step= 0.636 mean= 0.479
 gam= 0.539 g(H,U,f)=  0.138E-01 0.139E-02 0.109E-21 ort(H,U,f) =-0.127E-02 0.125E-02-0.618E-21
CGA:  28    -0.944796393442E+03   -0.89198E-02   -0.89218E-02  5064   0.152E-01-0.183E-04
 gam= 0.539 trial= 0.487  step= 0.572 mean= 0.487
 gam= 0.448 g(H,U,f)=  0.596E-02 0.835E-03 0.919E-18 ort(H,U,f) = 0.117E-03-0.124E-03-0.111E-17
CGA:  29    -0.944800728254E+03   -0.43348E-02   -0.43353E-02  5064   0.680E-02-0.676E-05
 gam= 0.448 trial= 0.492  step= 0.571 mean= 0.492
 gam= 0.480 g(H,U,f)=  0.267E-02 0.586E-03 0.177E-16 ort(H,U,f) =-0.105E-03 0.118E-03 0.799E-17
CGA:  30    -0.944802669549E+03   -0.19413E-02   -0.19408E-02  5064   0.326E-02 0.129E-04
 gam= 0.480 trial= 0.495  step= 0.626 mean= 0.495
 gam= 0.486 g(H,U,f)=  0.123E-02 0.351E-03 0.195E-16 ort(H,U,f) =-0.275E-03 0.303E-03 0.345E-16
CGA:  31    -0.944803693978E+03   -0.10244E-02   -0.10226E-02  5064   0.159E-02 0.283E-04
 gam= 0.486 trial= 0.502  step= 0.643 mean= 0.502
 gam= 0.525 g(H,U,f)=  0.685E-03 0.148E-03 0.579E-17 ort(H,U,f) =-0.224E-03 0.249E-03 0.252E-16
CGA:  32    -0.944804209838E+03   -0.51586E-03   -0.51412E-03  5064   0.833E-03 0.247E-04
 gam= 0.525 trial= 0.509  step= 0.659 mean= 0.509
 gam= 0.538 g(H,U,f)=  0.400E-03 0.478E-04 0.469E-19 ort(H,U,f) =-0.824E-04 0.939E-04 0.346E-17
CGA:  33    -0.944804489339E+03   -0.27950E-03   -0.27865E-03  5064   0.448E-03 0.115E-04
 gam= 0.538 trial= 0.517  step= 0.610 mean= 0.517
 gam= 0.495 g(H,U,f)=  0.201E-03 0.208E-04 0.227E-16 ort(H,U,f) =-0.144E-04 0.135E-04-0.138E-15
CGA:  34    -0.944804627897E+03   -0.13856E-03   -0.13860E-03  5064   0.222E-03-0.911E-06
 gam= 0.495 trial= 0.521  step= 0.589 mean= 0.521
 gam= 0.473 g(H,U,f)=  0.917E-04 0.132E-04 0.525E-15 ort(H,U,f) =-0.148E-05-0.238E-05-0.905E-15
CGA:  35    -0.944804692950E+03   -0.65053E-04   -0.65184E-04  5064   0.105E-03-0.386E-05
 gam= 0.473 trial= 0.525  step= 0.619 mean= 0.525
 gam= 0.493 g(H,U,f)=  0.422E-04 0.947E-05 0.104E-15 ort(H,U,f) =-0.424E-05 0.178E-05 0.598E-16
CGA:  36    -0.944804724766E+03   -0.31816E-04   -0.31933E-04  5064   0.517E-04-0.246E-05
 gam= 0.493 trial= 0.529  step= 0.665 mean= 0.529
 gam= 0.000 g(H,U,f)=  0.230E-04 0.507E-05 0.570E-16 ort(H,U,f) =-0.543E-05 0.425E-05 0.111E-15
SDA:  37    -0.944804741480E+03   -0.16714E-04   -0.16794E-04  5064   0.281E-04-0.118E-05
 gam= 0.000 trial= 0.536  step= 0.877 mean= 0.536
 gam= 0.439 g(H,U,f)=  0.101E-04 0.222E-05 0.292E-15 ort(H,U,f) =-0.350E-05 0.305E-05 0.450E-15
CGA:  38    -0.944804753727E+03   -0.12247E-04   -0.12324E-04  5064   0.123E-04-0.452E-06
 gam= 0.439 trial= 0.553  step= 0.750 mean= 0.553
 gam= 0.390 g(H,U,f)=  0.422E-05 0.586E-06 0.171E-23 ort(H,U,f) =-0.221E-05 0.181E-05 0.623E-23
CGA:  39    -0.944804758239E+03   -0.45121E-05   -0.45513E-05  5064   0.481E-05-0.399E-06
 gam= 0.390 trial= 0.563  step= 0.637 mean= 0.563
 final diagonalization
   1 F= -.94480476E+03 E0= -.94480476E+03  d E =-.142546E-18
 writing wavefunctions
Warning: ieee_invalid is signaling
Warning: ieee_divide_by_zero is signaling
Warning: ieee_underflow is signaling
Warning: ieee_inexact is signaling
FORTRAN STOP
Warning: ieee_invalid is signaling
Warning: ieee_divide_by_zero is signaling
Warning: ieee_underflow is signaling
Warning: ieee_inexact is signaling
FORTRAN STOP
Warning: ieee_invalid is signaling
Warning: ieee_divide_by_zero is signaling
Warning: ieee_underflow is signaling
Warning: ieee_inexact is signaling
FORTRAN STOP
Warning: ieee_invalid is signaling
Warning: ieee_divide_by_zero is signaling
Warning: ieee_underflow is signaling
Warning: ieee_inexact is signaling
FORTRAN STOP
