       N       E                     dE             d eps       ncg     rms          ort
DAV:   1    -0.186132007726E+05   -0.18613E+05   -0.54337E+05  5064   0.747E+03
DAV:   2    -0.630239903380E+05   -0.44411E+05   -0.43009E+05  5064   0.122E+03
DAV:   3    -0.678834951336E+05   -0.48595E+04   -0.43465E+04  5064   0.365E+02
DAV:   4    -0.685250223024E+05   -0.64153E+03   -0.56571E+03  5064   0.111E+02
DAV:   5    -0.383659499482E+05    0.30159E+05   -0.89000E+02  5064   0.567E+01
SDA:   6     0.273509969245E+05    0.65717E+05   -0.89000E+02  5064   0.932E+05 0.000E+00
CGA:   7     0.907995419693E+04   -0.18271E+05   -0.17830E+05  5064   0.752E+05-0.290E+05
CGA:   8     0.432972028729E+04   -0.47502E+04   -0.55235E+04  5064   0.248E+05 0.480E+04
CGA:   9     0.276100421323E+04   -0.15687E+04   -0.21871E+04  5064   0.136E+05-0.359E+03
CGA:  10     0.161884870389E+04   -0.11422E+04   -0.15156E+04  5064   0.972E+04 0.833E+03
CGA:  11     0.681925657296E+03   -0.93692E+03   -0.12143E+04  5064   0.419E+04 0.739E+03
CGA:  12    -0.486625720605E+02   -0.73059E+03   -0.74730E+03  5064   0.229E+04 0.494E+03
CGA:  13    -0.453139001299E+03   -0.40448E+03   -0.41861E+03  5064   0.834E+03 0.329E+03
CGA:  14    -0.735544380984E+03   -0.28241E+03   -0.28392E+03  5064   0.396E+03-0.390E+01
CGA:  15    -0.851300440218E+03   -0.11576E+03   -0.12503E+03  5064   0.208E+03-0.483E+02
CGA:  16    -0.899921708560E+03   -0.48621E+02   -0.48941E+02  5064   0.899E+02-0.400E+01
CGA:  17    -0.921886414458E+03   -0.21965E+02   -0.22117E+02  5064   0.406E+02-0.177E+01
CGA:  18    -0.933458054442E+03   -0.11572E+02   -0.11562E+02  5064   0.198E+02 0.287E-01
CGA:  19    -0.938954689526E+03   -0.54966E+01   -0.54955E+01  5064   0.990E+01 0.481E-02
CGA:  20    -0.942030757346E+03   -0.30761E+01   -0.30758E+01  5064   0.500E+01 0.225E-02
CGA:  21    -0.943496629618E+03   -0.14659E+01   -0.14655E+01  5064   0.219E+01 0.806E-02
CGA:  22    -0.944207322673E+03   -0.71069E+00   -0.70968E+00  5064   0.105E+01 0.959E-02
CGA:  23    -0.944515757166E+03   -0.30843E+00   -0.30814E+00  5064   0.516E+00 0.388E-02
CGA:  24    -0.944666293187E+03   -0.15054E+00   -0.15052E+00  5064   0.249E+00 0.358E-04
CGA:  25    -0.944732997325E+03   -0.66704E-01   -0.66736E-01  5064   0.110E+00-0.738E-03
CGA:  26    -0.944768942078E+03   -0.35945E-01   -0.35998E-01  5064   0.585E-01-0.480E-03
CGA:  27    -0.944787473671E+03   -0.18532E-01   -0.18543E-01  5064   0.281E-01-0.106E-03
CGA:  28    -0.944796393442E+03   -0.89198E-02   -0.89218E-02  5064   0.152E-01-0.183E-04
CGA:  29    -0.944800728254E+03   -0.43348E-02   -0.43353E-02  5064   0.680E-02-0.676E-05
CGA:  30    -0.944802669549E+03   -0.19413E-02   -0.19408E-02  5064   0.326E-02 0.129E-04
CGA:  31    -0.944803693978E+03   -0.10244E-02   -0.10226E-02  5064   0.159E-02 0.283E-04
CGA:  32    -0.944804209838E+03   -0.51586E-03   -0.51412E-03  5064   0.833E-03 0.247E-04
CGA:  33    -0.944804489339E+03   -0.27950E-03   -0.27865E-03  5064   0.448E-03 0.115E-04
CGA:  34    -0.944804627897E+03   -0.13856E-03   -0.13860E-03  5064   0.222E-03-0.911E-06
CGA:  35    -0.944804692950E+03   -0.65053E-04   -0.65184E-04  5064   0.105E-03-0.386E-05
CGA:  36    -0.944804724766E+03   -0.31816E-04   -0.31933E-04  5064   0.517E-04-0.246E-05
SDA:  37    -0.944804741480E+03   -0.16714E-04   -0.16794E-04  5064   0.281E-04-0.118E-05
CGA:  38    -0.944804753727E+03   -0.12247E-04   -0.12324E-04  5064   0.123E-04-0.452E-06
CGA:  39    -0.944804758239E+03   -0.45121E-05   -0.45513E-05  5064   0.481E-05-0.399E-06
   1 F= -.94480476E+03 E0= -.94480476E+03  d E =-.142546E-18
