 vasp.6.4.2 20Jul23 (build Nov 12 2023 22:16:35) complex                         
 executed on              LinuxNV date 2025.03.17  16:41:04
 running    4 mpi-ranks, on    1 nodes
 distrk:  each k-point on    1 cores,    4 groups
 distr:  one band on NCORE=   1 cores,    1 groups
 OpenACC runtime initialized ...    4 GPUs detected


--------------------------------------------------------------------------------------------------------


 INCAR:
   PREC = Normal
   ENCUT = 450
   NELM = 500
   IBRION = -1
   ISPIN = 1
   NSW = 0
   ISIF = 2
   EDIFF = 1E-5
   EDIFFG = -5E-3
   ISTART = 0
   ICHARG = 0
   ISMEAR = 0
   SIGMA = 0.05
   LWAVE = .T.
   LCHARG = .T.
   LREAL = Auto
   LPLANE = .TRUE.
   NPAR = 1
   KPAR = 4
   NCORE = 1
   ALGO = All
   LHFCALC = .TRUE.
   HSE06 = .TRUE.
   HFSCREEN = 0.2
   TIME = 0.4
   AEXX = 0.32
   LMAXFOCK = 4
   PRECFOCK = Fast
   NELECT = 1056

 POTCAR:    PAW_PBE Ga_d 06Jul2010                
 POTCAR:     PAW_PBE O 08Apr2002                  
 POTCAR:    PAW_PBE P 06Sep2000                   
 POTCAR:    PAW_PBE Ga_d 06Jul2010                
   SHA256 =  a60ddf36e14f00ea098d9e3914b3745f1b7105e68786148f49ae384e44b4226c Ga_d/POTCAR           
   COPYR  = (c) Copyright 06Jul2010 Georg Kresse                                                    
   COPYR  = This file is part of the software VASP. Any use, copying, and all other rights are regul
   COPYR  = If you do not have a valid VASP license, you may not use, copy or distribute this file. 
   VRHFIN =Ga: s2p1                                                                                 
   LEXCH  = PE                                                                                      
   EATOM  =  2148.8298 eV,  157.9345 Ry                                                             
                                                                                                    
   TITEL  = PAW_PBE Ga_d 06Jul2010                                                                  
   LULTRA =        F    use ultrasoft PP ?                                                          
   IUNSCR =        1    unscreen: 0-lin 1-nonlin 2-no                                               
   RPACOR =    1.700    partial core radius                                                         
   POMASS =   69.723; ZVAL   =   13.000    mass and valenz                                          
   RCORE  =    2.300    outmost cutoff radius                                                       
   RWIGS  =    2.300; RWIGS  =    1.217    wigner-seitz radius (au A)                               
   ENMAX  =  282.691; ENMIN  =  212.018 eV                                                          
   ICORE  =        3    local potential                                                             
   LCOR   =        T    correct aug charges                                                         
   LPAW   =        T    paw PP                                                                      
   EAUG   =  490.690                                                                                
   DEXC   =    0.000                                                                                
   RMAX   =    2.341    core radius for proj-oper                                                   
   RAUG   =    1.300    factor for augmentation sphere                                              
   RDEP   =    2.413    radius for radial grids                                                     
   RDEPT  =    1.856    core radius for aug-charge                                                  
                                                                                                    
   Atomic configuration                                                                             
    9 entries                                                                                       
     n  l   j            E        occ.                                                              
     1  0  0.50    -10228.7831   2.0000                                                             
     2  0  0.50     -1262.1604   2.0000                                                             
     2  1  1.50     -1098.6333   6.0000                                                             
     3  0  0.50      -148.1110   2.0000                                                             
     3  1  1.50       -98.8436   6.0000                                                             
     3  2  2.50       -19.1549  10.0000                                                             
     4  0  0.50        -8.9483   2.0000                                                             
     4  1  0.50        -2.5791   1.0000                                                             
     4  3  2.50        -2.7416   0.0000                                                             
   Description                                                                                      
     l       E           TYP  RCUT    TYP  RCUT                                                     
     2    -19.1549037     23  2.300                                                                 
     2     -5.4423304     23  2.300                                                                 
     0     -8.9483111     23  2.300                                                                 
     0     68.0291300     23  2.300                                                                 
     1     -2.5790802     23  2.100                                                                 
     1     81.6349560     23  2.300                                                                 
     3      6.8029130     23  2.300                                                                 
  local pseudopotential read in
  partial core-charges read in
  partial kinetic energy density read in
  atomic valenz-charges read in
  non local Contribution for L=            2  read in
    real space projection operators read in
  non local Contribution for L=            2  read in
    real space projection operators read in
  non local Contribution for L=            0  read in
    real space projection operators read in
  non local Contribution for L=            0  read in
    real space projection operators read in
  non local Contribution for L=            1  read in
    real space projection operators read in
  non local Contribution for L=            1  read in
    real space projection operators read in
    PAW grid and wavefunctions read in
 
   number of l-projection  operators is LMAX  =            6
   number of lm-projection operators is LMMAX =           18
 
 POTCAR:     PAW_PBE O 08Apr2002                  
   SHA256 =  818f92134a0a090dccd8ba1447fa70422a3b330e708bb4f08108d8ae51209ddf O/POTCAR              
   COPYR  = (c) Copyright 08Apr2002 Georg Kresse                                                    
   COPYR  = This file is part of the software VASP. Any use, copying, and all other rights are regul
   COPYR  = If you do not have a valid VASP license, you may not use, copy or distribute this file. 
   VRHFIN =O: s2p4                                                                                  
   LEXCH  = PE                                                                                      
   EATOM  =   432.3788 eV,   31.7789 Ry                                                             
                                                                                                    
   TITEL  = PAW_PBE O 08Apr2002                                                                     
   LULTRA =        F    use ultrasoft PP ?                                                          
   IUNSCR =        1    unscreen: 0-lin 1-nonlin 2-no                                               
   RPACOR =    1.200    partial core radius                                                         
   POMASS =   16.000; ZVAL   =    6.000    mass and valenz                                          
   RCORE  =    1.520    outmost cutoff radius                                                       
   RWIGS  =    1.550; RWIGS  =    0.820    wigner-seitz radius (au A)                               
   ENMAX  =  400.000; ENMIN  =  300.000 eV                                                          
   ICORE  =        2    local potential                                                             
   LCOR   =        T    correct aug charges                                                         
   LPAW   =        T    paw PP                                                                      
   EAUG   =  605.392                                                                                
   DEXC   =    0.000                                                                                
   RMAX   =    1.553    core radius for proj-oper                                                   
   RAUG   =    1.300    factor for augmentation sphere                                              
   RDEP   =    1.550    radius for radial grids                                                     
   RDEPT  =    1.329    core radius for aug-charge                                                  
                                                                                                    
   Atomic configuration                                                                             
    4 entries                                                                                       
     n  l   j            E        occ.                                                              
     1  0  0.50      -514.6923   2.0000                                                             
     2  0  0.50       -23.9615   2.0000                                                             
     2  1  0.50        -9.0305   4.0000                                                             
     3  2  1.50        -9.5241   0.0000                                                             
   Description                                                                                      
     l       E           TYP  RCUT    TYP  RCUT                                                     
     0    -23.9615318     23  1.200                                                                 
     0     -9.5240782     23  1.200                                                                 
     1     -9.0304911     23  1.520                                                                 
     1      8.1634956     23  1.520                                                                 
     2     -9.5240782      7  1.500                                                                 
  local pseudopotential read in
  partial core-charges read in
  partial kinetic energy density read in
  kinetic energy density of atom read in
  atomic valenz-charges read in
  non local Contribution for L=            0  read in
    real space projection operators read in
  non local Contribution for L=            0  read in
    real space projection operators read in
  non local Contribution for L=            1  read in
    real space projection operators read in
  non local Contribution for L=            1  read in
    real space projection operators read in
    PAW grid and wavefunctions read in
 
   number of l-projection  operators is LMAX  =            4
   number of lm-projection operators is LMMAX =            8
 
 POTCAR:    PAW_PBE P 06Sep2000                   
   SHA256 =  df60c54a93efe35c9e85ae94c010c75e9f6960a95d5595d7cdba4096d109af88 P/POTCAR              
   COPYR  = (c) Copyright 06Sep2000 Georg Kresse                                                    
   COPYR  = This file is part of the software VASP. Any use, copying, and all other rights are regul
   COPYR  = If you do not have a valid VASP license, you may not use, copy or distribute this file. 
   VRHFIN =P : s2p3                                                                                 
   LEXCH  = PE                                                                                      
   EATOM  =   176.0430 eV,   12.9388 Ry                                                             
                                                                                                    
   TITEL  = PAW_PBE P 06Sep2000                                                                     
   LULTRA =        F    use ultrasoft PP ?                                                          
   IUNSCR =        1    unscreen: 0-lin 1-nonlin 2-no                                               
   RPACOR =    1.500    partial core radius                                                         
   POMASS =   30.974; ZVAL   =    5.000    mass and valenz                                          
   RCORE  =    1.900    outmost cutoff radius                                                       
   RWIGS  =    2.330; RWIGS  =    1.233    wigner-seitz radius (au A)                               
   ENMAX  =  255.040; ENMIN  =  191.280 eV                                                          
   ICORE  =        2    local potential                                                             
   LCOR   =        T    correct aug charges                                                         
   LPAW   =        T    paw PP                                                                      
   EAUG   =  342.924                                                                                
   DEXC   =    0.000                                                                                
   RMAX   =    1.935    core radius for proj-oper                                                   
   RAUG   =    1.300    factor for augmentation sphere                                              
   RDEP   =    1.931    radius for radial grids                                                     
   RDEPT  =    1.794    core radius for aug-charge                                                  
                                                                                                    
   Atomic configuration                                                                             
    6 entries                                                                                       
     n  l   j            E        occ.                                                              
     1  0  0.50     -2084.0982   2.0000                                                             
     2  0  0.50      -173.9859   2.0000                                                             
     2  1  1.50      -124.4865   6.0000                                                             
     3  0  0.50       -13.9692   2.0000                                                             
     3  1  0.50        -5.5067   3.0000                                                             
     3  2  1.50        -5.4423   0.0000                                                             
   Description                                                                                      
     l       E           TYP  RCUT    TYP  RCUT                                                     
     0    -13.9691527     23  1.900                                                                 
     0    -11.7794650     23  1.900                                                                 
     1     -5.5066937     23  1.900                                                                 
     1     -0.2556953     23  1.900                                                                 
     2     -5.4423304     23  1.900                                                                 
  local pseudopotential read in
  partial core-charges read in
  partial kinetic energy density read in
  atomic valenz-charges read in
  non local Contribution for L=            0  read in
    real space projection operators read in
  non local Contribution for L=            0  read in
    real space projection operators read in
  non local Contribution for L=            1  read in
    real space projection operators read in
  non local Contribution for L=            1  read in
    real space projection operators read in
    PAW grid and wavefunctions read in
 
   number of l-projection  operators is LMAX  =            4
   number of lm-projection operators is LMMAX =            8
 
 Optimization of the real space projectors (new method)

 maximal supplied QI-value         = 16.25
 optimisation between [QCUT,QGAM] = [ 10.73, 21.61] = [ 32.22,130.83] Ry 
 Optimized for a Real-space Cutoff    1.42 Angstroem

   l    n(q)    QCUT    max X(q) W(low)/X(q) W(high)/X(q)  e(spline) 
   2      8    10.726     7.143    0.22E-03    0.16E-03    0.73E-07
   2      8    10.726     5.586    0.40E-03    0.26E-03    0.10E-06
   0      9    10.726    12.382    0.25E-04    0.21E-05    0.37E-07
   0      9    10.726     6.622    0.42E-04    0.48E-05    0.77E-07
   1      9    10.726     7.935    0.27E-03    0.13E-04    0.16E-06
   1      9    10.726     2.425    0.23E-03    0.15E-04    0.14E-06
 Optimization of the real space projectors (new method)

 maximal supplied QI-value         = 24.76
 optimisation between [QCUT,QGAM] = [ 10.64, 21.54] = [ 31.73,129.89] Ry 
 Optimized for a Real-space Cutoff    1.23 Angstroem

   l    n(q)    QCUT    max X(q) W(low)/X(q) W(high)/X(q)  e(spline) 
   0      8    10.645    20.381    0.38E-03    0.60E-03    0.15E-06
   0      8    10.645    15.268    0.40E-03    0.65E-03    0.17E-06
   1      7    10.645     5.964    0.30E-03    0.63E-03    0.18E-06
   1      7    10.645     5.382    0.24E-03    0.53E-03    0.16E-06
 Optimization of the real space projectors (new method)

 maximal supplied QI-value         = 19.84
 optimisation between [QCUT,QGAM] = [ 10.71, 21.63] = [ 32.15,130.99] Ry 
 Optimized for a Real-space Cutoff    1.19 Angstroem

   l    n(q)    QCUT    max X(q) W(low)/X(q) W(high)/X(q)  e(spline) 
   0      8    10.715   160.924    0.37E-03    0.37E-04    0.63E-07
   0      8    10.715   130.086    0.37E-03    0.36E-04    0.63E-07
   1      7    10.715    74.434    0.19E-03    0.56E-03    0.65E-07
   1      7    10.715    49.120    0.19E-03    0.55E-03    0.63E-07
  PAW_PBE Ga_d 06Jul2010                :
 energy of atom  1       EATOM=-2148.8298
 kinetic energy error for atom=    0.0038 (will be added to EATOM!!)
   PAW_PBE O 08Apr2002                  :
 energy of atom  2       EATOM= -432.3788
 kinetic energy error for atom=    0.0389 (will be added to EATOM!!)
  PAW_PBE P 06Sep2000                   :
 energy of atom  3       EATOM= -176.0430
 kinetic energy error for atom=    0.0019 (will be added to EATOM!!)
 
 
 POSCAR: Ga48 O72
  positions in direct lattice
  velocities in cartesian coordinates
 exchange correlation table for  LEXCH =        8
   RHO(1)=    0.500       N(1)  =     2000
   RHO(2)=  100.500       N(2)  =     4000
 


--------------------------------------------------------------------------------------------------------


 ion  position               nearest neighbor table
   1  0.659  0.996  0.154-  67 1.92  85 1.94  83 1.94  79 1.95  65 2.09  61 2.15
   2  0.660  1.000  0.658-  84 1.94  86 1.95  80 1.96  68 2.02  62 2.07  66 2.08
   3  0.659  0.337  0.154-  69 1.92  87 1.94  81 1.94  79 1.95  63 2.09  61 2.15
   4  0.660  0.333  0.658-  82 1.94  88 1.95  80 1.96  70 2.02  62 2.07  64 2.08
   5  0.658  0.667  0.156-  81 1.94  83 1.94  89 1.94  71 2.03  63 2.06  65 2.06
   6  0.659  0.667  0.659-  82 1.94  84 1.94  90 1.95  72 2.03  64 2.07  66 2.07
   7  0.822  0.167  0.372-  61 1.90  73 1.91  75 1.91 120 2.18
   8  0.843  0.167  0.849-  74 1.94  76 1.94  91 1.96  62 2.04  68 2.10  70 2.10
   9  0.841  0.501  0.341-  92 1.95  77 1.97  69 1.98  75 1.99  71 2.05  63 2.06
  10  0.841  0.499  0.847-  76 1.94  78 1.95  93 1.95  64 2.03  70 2.08  72 2.10
  11  0.841  0.832  0.341-  94 1.95  77 1.97  67 1.98  73 1.99  71 2.05  65 2.06
  12  0.841  0.834  0.847-  74 1.94  78 1.95  95 1.95  66 2.03  68 2.08  72 2.10
  13  0.585  0.167  0.399-  55 1.83  57 1.83  80 1.85  61 1.89
  14  0.592  0.167  0.899-  79 1.84  56 1.85  58 1.85  62 1.87
  15  0.593  0.501  0.399-  82 1.84  59 1.85  57 1.85  63 1.85
  16  0.588  0.501  0.895-  81 1.82  60 1.84  58 1.84  64 1.87
  17  0.593  0.832  0.399-  84 1.84  59 1.85  55 1.85  65 1.85
  18  0.588  0.833  0.895-  83 1.82  60 1.84  56 1.84  66 1.87
  19  0.914  0.004  0.108-  53 1.86  67 1.86  74 1.88  49 1.89 120 2.80
  20  0.909  0.997  0.606-  54 1.84  73 1.85  50 1.86  68 1.86
  21  0.914  0.330  0.108-  51 1.86  69 1.86  76 1.88  49 1.89 120 2.80
  22  0.909  0.336  0.606-  52 1.84  75 1.85  50 1.86  70 1.86
  23  0.912  0.667  0.106-  78 1.85  51 1.85  53 1.85  71 1.87
  24  0.907  0.667  0.601-  77 1.84  52 1.85  54 1.85  72 1.88
  25  0.163  0.167  0.155-  49 1.95 114 1.97 116 1.97 102 2.01  96 2.11  98 2.11
  26  0.159  0.167  0.655- 115 1.96 117 1.96  50 1.97 103 2.02  97 2.08  99 2.08
  27  0.162  0.500  0.157-  51 1.94 118 1.95 116 1.97 104 2.02  98 2.03 100 2.08
  28  0.160  0.500  0.658- 117 1.94  52 1.95 119 1.95 105 2.02  99 2.07 101 2.08
  29  0.162  0.833  0.157-  53 1.94 118 1.95 114 1.97 106 2.02  96 2.03 100 2.08
  30  0.160  0.833  0.658- 115 1.94  54 1.95 119 1.95 107 2.02  97 2.07 101 2.08
  31  0.342  0.999  0.343-  55 1.93 112 1.96 108 1.96  96 1.97 106 2.08 102 2.09
  32  0.340  0.000  0.843-  56 1.94 109 1.95 113 1.95  97 2.02 107 2.06 103 2.07
  33  0.342  0.335  0.343-  57 1.93 110 1.96 108 1.96  98 1.97 104 2.08 102 2.09
  34  0.340  0.333  0.843-  58 1.94 109 1.95 111 1.95  99 2.02 105 2.06 103 2.07
  35  0.343  0.667  0.344-  59 1.93 110 1.96 112 1.96 100 2.02 104 2.06 106 2.06
  36  0.340  0.667  0.844-  60 1.92 111 1.95 113 1.95 101 2.01 105 2.08 107 2.08
  37  0.095  0.995  0.399- 115 1.85  94 1.87  96 1.92 120 2.18
  38  0.091  0.001  0.899- 114 1.84  95 1.85  91 1.85  97 1.88
  39  0.095  0.339  0.399- 117 1.85  92 1.87  98 1.92 120 2.18
  40  0.091  0.332  0.899- 116 1.84  93 1.85  91 1.85  99 1.88
  41  0.095  0.667  0.400-  92 1.82  94 1.82 119 1.85 100 1.87
  42  0.091  0.667  0.899- 118 1.84  93 1.85  95 1.85 101 1.87
  43  0.410  0.167  0.101- 109 1.84  85 1.84  87 1.84 102 1.87
  44  0.409  0.167  0.603- 108 1.84  86 1.85  88 1.85 103 1.87
  45  0.410  0.500  0.102-  89 1.84 111 1.84  87 1.85 104 1.86
  46  0.409  0.500  0.603- 110 1.84  90 1.84  88 1.85 105 1.87
  47  0.410  0.834  0.102-  89 1.84 113 1.84  85 1.85 106 1.86
  48  0.409  0.833  0.603- 112 1.84  90 1.84  86 1.85 107 1.87
  49  0.002  0.167  0.087-  19 1.89  21 1.89  25 1.95
  50  0.994  0.167  0.614-  20 1.86  22 1.86  26 1.97
  51  0.000  0.500  0.128-  23 1.85  21 1.86  27 1.94
  52  0.997  0.501  0.629-  22 1.84  24 1.85  28 1.95
  53  0.000  0.834  0.128-  23 1.85  19 1.86  29 1.94
  54  0.997  0.832  0.629-  20 1.84  24 1.85  30 1.95
  55  0.503  0.997  0.374-  13 1.83  17 1.85  31 1.93
  56  0.503  0.001  0.872-  18 1.84  14 1.85  32 1.94
  57  0.503  0.336  0.374-  13 1.83  15 1.85  33 1.93
  58  0.503  0.332  0.872-  16 1.84  14 1.85  34 1.94
  59  0.504  0.667  0.376-  15 1.85  17 1.85  35 1.93
  60  0.501  0.667  0.868-  16 1.84  18 1.84  36 1.92
  61  0.670  0.167  0.284-  13 1.89   7 1.90   1 2.15   3 2.15
  62  0.674  0.167  0.782-  14 1.87   8 2.04   2 2.07   4 2.07
  63  0.670  0.503  0.280-  15 1.85   9 2.06   5 2.06   3 2.09
  64  0.673  0.500  0.782-  16 1.87  10 2.03   6 2.07   4 2.08
  65  0.670  0.830  0.280-  17 1.85  11 2.06   5 2.06   1 2.09
  66  0.673  0.833  0.782-  18 1.87  12 2.03   6 2.07   2 2.08
  67  0.819  0.976  0.210-  19 1.86   1 1.92  11 1.98
  68  0.827  1.000  0.722-  20 1.86   2 2.02  12 2.08   8 2.10
  69  0.819  0.357  0.210-  21 1.86   3 1.92   9 1.98
  70  0.827  0.333  0.722-  22 1.86   4 2.02  10 2.08   8 2.10
  71  0.827  0.667  0.219-  23 1.87   5 2.03   9 2.05  11 2.05
  72  0.828  0.667  0.721-  24 1.88   6 2.03  10 2.10  12 2.10
  73  0.819  0.986  0.454-  20 1.85   7 1.91  11 1.99
  74  0.833  0.999  0.949-  19 1.88  12 1.94   8 1.94
  75  0.819  0.347  0.454-  22 1.85   7 1.91   9 1.99
  76  0.833  0.334  0.949-  21 1.88  10 1.94   8 1.94
  77  0.829  0.667  0.445-  24 1.84   9 1.97  11 1.97
  78  0.835  0.667  0.948-  23 1.85  10 1.95  12 1.95
  79  0.667  0.167  0.055-  14 1.84   1 1.95   3 1.95
  80  0.666  0.167  0.555-  13 1.85   2 1.96   4 1.96
  81  0.661  0.504  0.051-  16 1.82   5 1.94   3 1.94
  82  0.666  0.501  0.557-  15 1.84   6 1.94   4 1.94
  83  0.661  0.830  0.051-  18 1.82   5 1.94   1 1.94
  84  0.666  0.832  0.557-  17 1.84   6 1.94   2 1.94
  85  0.497  0.001  0.128-  43 1.84  47 1.85   1 1.94
  86  0.497  0.000  0.629-  44 1.85  48 1.85   2 1.95
  87  0.497  0.333  0.128-  43 1.84  45 1.85   3 1.94
  88  0.497  0.333  0.629-  44 1.85  46 1.85   4 1.95
  89  0.495  0.667  0.127-  45 1.84  47 1.84   5 1.94
  90  0.496  0.667  0.629-  46 1.84  48 1.84   6 1.95
  91  0.004  0.167  0.857-  38 1.85  40 1.85   8 1.96
  92  0.005  0.506  0.379-  41 1.82  39 1.87   9 1.95
  93  0.004  0.499  0.874-  42 1.85  40 1.85  10 1.95
  94  0.005  0.828  0.379-  41 1.82  37 1.87  11 1.95
  95  0.004  0.834  0.874-  42 1.85  38 1.85  12 1.95
  96  0.179  0.996  0.279-  37 1.92  31 1.97  29 2.03  25 2.11
  97  0.172  0.000  0.780-  38 1.88  32 2.02  30 2.07  26 2.08
  98  0.179  0.337  0.279-  39 1.92  33 1.97  27 2.03  25 2.11
  99  0.172  0.333  0.780-  40 1.88  34 2.02  28 2.07  26 2.08
 100  0.175  0.667  0.282-  41 1.87  35 2.02  27 2.08  29 2.08
 101  0.173  0.667  0.782-  42 1.87  36 2.01  28 2.08  30 2.08
 102  0.331  0.167  0.220-  43 1.87  25 2.01  31 2.09  33 2.09
 103  0.327  0.167  0.720-  44 1.87  26 2.02  32 2.07  34 2.07
 104  0.331  0.502  0.220-  45 1.86  27 2.02  35 2.06  33 2.08
 105  0.328  0.500  0.721-  46 1.87  28 2.02  34 2.06  36 2.08
 106  0.331  0.831  0.220-  47 1.86  29 2.02  35 2.06  31 2.08
 107  0.328  0.834  0.721-  48 1.87  30 2.02  32 2.06  36 2.08
 108  0.335  0.167  0.446-  44 1.84  31 1.96  33 1.96
 109  0.332  0.167  0.945-  43 1.84  32 1.95  34 1.95
 110  0.332  0.500  0.447-  46 1.84  33 1.96  35 1.96
 111  0.333  0.499  0.946-  45 1.84  36 1.95  34 1.95
 112  0.332  0.833  0.447-  48 1.84  31 1.96  35 1.96
 113  0.333  0.834  0.946-  47 1.84  36 1.95  32 1.95
 114  0.175  0.998  0.053-  38 1.84  29 1.97  25 1.97
 115  0.172  0.998  0.556-  37 1.85  30 1.94  26 1.96
 116  0.175  0.335  0.053-  40 1.84  27 1.97  25 1.97
 117  0.172  0.336  0.556-  39 1.85  28 1.94  26 1.96
 118  0.170  0.667  0.054-  42 1.84  27 1.95  29 1.95
 119  0.172  0.667  0.557-  41 1.85  28 1.95  30 1.95
 120  0.980  0.167  0.317-  37 2.18  39 2.18   7 2.18  19 2.80  21 2.80
 
  LATTYP: Found a simple monoclinic cell.
 ALAT       =    11.6348202465
 B/A-ratio  =     0.7858051831
 C/A-ratio  =     1.0554931797
 COS(beta)  =    -0.2379290539
  
  Lattice vectors:
  
 A1 = (   0.0000000000,  -2.7682617730, -11.3006977184)
 A2 = (  -9.1427020537,   0.0000000000,   0.0000000000)
 A3 = (   0.0000000000,  12.2804734172,   0.0000000000)


Analysis of symmetry for initial positions (statically):
=====================================================================
 Subroutine PRICEL returns:
 Original cell was already a primitive cell.
 

 Routine SETGRP: Setting up the symmetry group for a 
 simple monoclinic supercell.


 Subroutine GETGRP returns: Found  2 space group operations
 (whereof  1 operations were pure point group operations)
 out of a pool of  4 trial point group operations.


The static configuration has the point symmetry C_1 .
 The point group associated with its full space group is C_1h.


Analysis of symmetry for dynamics (positions and initial velocities):
=====================================================================
 Subroutine PRICEL returns:
 Original cell was already a primitive cell.
 

 Routine SETGRP: Setting up the symmetry group for a 
 simple monoclinic supercell.


 Subroutine GETGRP returns: Found  2 space group operations
 (whereof  1 operations were pure point group operations)
 out of a pool of  4 trial point group operations.


The dynamic configuration has the point symmetry C_1 .
 The point group associated with its full space group is C_1h.


 Subroutine INISYM returns: Found  2 space group operations
 (whereof  1 operations are pure point group operations),
 and found     1 'primitive' translations


----------------------------------------------------------------------------------------

                                     Primitive cell                                     

  volume of cell :    1268.8052

  direct lattice vectors                    reciprocal lattice vectors
     0.000000000 12.280473417  0.000000000     0.000000000  0.081430085 -0.019947423
     9.142702054  0.000000000  0.000000000     0.109376855 -0.000000000  0.000000000
     0.000000000 -2.768261773-11.300697718     0.000000000  0.000000000 -0.088490111

  length of vectors
    12.280473417  9.142702054 11.634820246     0.083837691  0.109376855  0.088490111

  position of ions in fractional coordinates (direct lattice)
     0.659171644  0.996374817  0.154164259
     0.659720668  0.999905430  0.658464735
     0.659171644  0.336958517  0.154164259
     0.659720668  0.333427904  0.658464735
     0.657967088  0.666666667  0.156394747
     0.659093798  0.666666667  0.659094106
     0.821986086  0.166666667  0.372117751
     0.843040343  0.166666667  0.849138184
     0.840949212  0.501151858  0.340734011
     0.841444278  0.499478447  0.846850083
     0.840949212  0.832181475  0.340734011
     0.841444278  0.833854887  0.846850083
     0.584953626  0.166666667  0.399187212
     0.591558330  0.166666667  0.898544224
     0.593259269  0.501198464  0.399467890
     0.587892849  0.500581736  0.895449028
     0.593259269  0.832134869  0.399467890
     0.587892849  0.832751597  0.895449028
     0.913874835  0.003582874  0.108283680
     0.909350303  0.997025464  0.606262865
     0.913874835  0.329750459  0.108283680
     0.909350303  0.336307869  0.606262865
     0.912252475  0.666666667  0.105548860
     0.907368665  0.666666667  0.601068002
     0.163130458  0.166666667  0.154998459
     0.158975643  0.166666667  0.655169261
     0.162257711  0.500010916  0.156899594
     0.160039600  0.500462515  0.658133601
     0.162257711  0.833322417  0.156899594
     0.160039600  0.832870818  0.658133601
     0.342084223  0.998688732  0.343447330
     0.340430924  0.000203693  0.842982918
     0.342084223  0.334644602  0.343447330
     0.340430924  0.333129640  0.842982918
     0.342829501  0.666666667  0.343893598
     0.340344455  0.666666667  0.844202131
     0.094745552  0.994598548  0.399248193
     0.091465590  0.001361217  0.898852555
     0.094745552  0.338734785  0.399248193
     0.091465590  0.331972117  0.898852555
     0.094678877  0.666666667  0.399975035
     0.090702314  0.666666667  0.898802863
     0.409724259  0.166666667  0.101408933
     0.409036428  0.166666667  0.603104098
     0.410033092  0.499696258  0.102340063
     0.408938980  0.500045007  0.603100523
     0.410033092  0.833637075  0.102340063
     0.408938980  0.833288326  0.603100523
     0.001862024  0.166666667  0.087251178
     0.993961496  0.166666667  0.613906699
     0.000290592  0.499525511  0.128400540
     0.997379428  0.501455984  0.629033468
     0.000290592  0.833807823  0.128400540
     0.997379428  0.831877349  0.629033468
     0.503444970  0.997374780  0.374095859
     0.502910125  0.001280758  0.871889165
     0.503444970  0.335958553  0.374095859
     0.502910125  0.332052575  0.871889165
     0.504466920  0.666666667  0.375890878
     0.500826007  0.666666667  0.868313165
     0.670100715  0.166666667  0.283635152
     0.673516688  0.166666667  0.782072070
     0.669539457  0.503016516  0.279887428
     0.673012697  0.500389247  0.782183094
     0.669539457  0.830316818  0.279887428
     0.673012697  0.832944086  0.782183094
     0.818963095  0.976436934  0.209888583
     0.827478337  0.999914067  0.722040031
     0.818963095  0.356896399  0.209888583
     0.827478337  0.333419266  0.722040031
     0.827062211  0.666666667  0.218749885
     0.828077551  0.666666667  0.720836238
     0.818857350  0.986441406  0.454305505
     0.833271230  0.999268370  0.948919983
     0.818857350  0.346891927  0.454305505
     0.833271230  0.334064963  0.948919983
     0.829357295  0.666666667  0.445223676
     0.835015086  0.666666667  0.948401374
     0.666768859  0.166666667  0.055434383
     0.666447995  0.166666667  0.554731853
     0.660941832  0.503597323  0.050877337
     0.665575715  0.500854539  0.557110425
     0.660941832  0.829736010  0.050877337
     0.665575715  0.832478794  0.557110425
     0.497044605  0.000578574  0.127731338
     0.496632692  0.000069995  0.628664725
     0.497044605  0.332754759  0.127731338
     0.496632692  0.333263338  0.628664725
     0.495387778  0.666666667  0.126678608
     0.496051954  0.666666667  0.628805279
     0.003934633  0.166666667  0.856850128
     0.004520009  0.505511205  0.378700238
     0.004345968  0.499212964  0.873865431
     0.004520009  0.827822128  0.378700238
     0.004345968  0.834120369  0.873865431
     0.178602127  0.995850119  0.279172876
     0.172039809  0.000445595  0.779950377
     0.178602127  0.337483214  0.279172876
     0.172039809  0.332887738  0.779950377
     0.174998744  0.666666667  0.281718417
     0.172951485  0.666666667  0.782134099
     0.330588485  0.166666667  0.219867198
     0.327214750  0.166666667  0.719569428
     0.330604765  0.502191690  0.220247999
     0.328128996  0.499727631  0.720827819
     0.330604765  0.831141644  0.220247999
     0.328128996  0.833605702  0.720827819
     0.335002496  0.166666667  0.445893651
     0.332489156  0.166666667  0.945242144
     0.332480178  0.500439678  0.446805995
     0.333151077  0.499415887  0.945861981
     0.332480178  0.832893656  0.446805995
     0.333151077  0.833917447  0.945861981
     0.175117379  0.998431334  0.052676444
     0.172239283  0.997595284  0.556256474
     0.175117379  0.334901999  0.052676444
     0.172239283  0.335738050  0.556256474
     0.170252916  0.666666667  0.054326613
     0.171848941  0.666666667  0.556963539
     0.979712581  0.166666667  0.316707993

  ion indices of the primitive-cell ions
   primitive index   ion index
                 1           1
                 2           2
                 3           3
                 4           4
                 5           5
                 6           6
                 7           7
                 8           8
                 9           9
                10          10
                11          11
                12          12
                13          13
                14          14
                15          15
                16          16
                17          17
                18          18
                19          19
                20          20
                21          21
                22          22
                23          23
                24          24
                25          25
                26          26
                27          27
                28          28
                29          29
                30          30
                31          31
                32          32
                33          33
                34          34
                35          35
                36          36
                37          37
                38          38
                39          39
                40          40
                41          41
                42          42
                43          43
                44          44
                45          45
                46          46
                47          47
                48          48
                49          49
                50          50
                51          51
                52          52
                53          53
                54          54
                55          55
                56          56
                57          57
                58          58
                59          59
                60          60
                61          61
                62          62
                63          63
                64          64
                65          65
                66          66
                67          67
                68          68
                69          69
                70          70
                71          71
                72          72
                73          73
                74          74
                75          75
                76          76
                77          77
                78          78
                79          79
                80          80
                81          81
                82          82
                83          83
                84          84
                85          85
                86          86
                87          87
                88          88
                89          89
                90          90
                91          91
                92          92
                93          93
                94          94
                95          95
                96          96
                97          97
                98          98
                99          99
               100         100
               101         101
               102         102
               103         103
               104         104
               105         105
               106         106
               107         107
               108         108
               109         109
               110         110
               111         111
               112         112
               113         113
               114         114
               115         115
               116         116
               117         117
               118         118
               119         119
               120         120

----------------------------------------------------------------------------------------

 
 
 KPOINTS: Automatic mesh                          

Automatic generation of k-mesh.
 Grid dimensions read from file:
 generate k-points for:    2    2    2

 Generating k-lattice:

  Cartesian coordinates                     Fractional coordinates (reciprocal lattice)
     0.000000000  0.040715043 -0.009973711     0.500000000  0.000000000  0.000000000
     0.054688428 -0.000000000  0.000000000     0.000000000  0.500000000  0.000000000
     0.000000000  0.000000000 -0.044245056     0.000000000  0.000000000  0.500000000

  Length of vectors
     0.041918846  0.054688428  0.044245056

  Shift w.r.t. Gamma in fractional coordinates (k-lattice)
     0.000000000  0.000000000  0.000000000

 
 Subroutine IBZKPT returns following result:
 ===========================================
 
 Found      8 irreducible k-points:
 
 Following reciprocal coordinates:
            Coordinates               Weight
  0.000000  0.000000  0.000000      1.000000
  0.500000  0.000000  0.000000      1.000000
  0.000000  0.500000  0.000000      1.000000
  0.500000  0.500000  0.000000      1.000000
  0.000000  0.000000  0.500000      1.000000
  0.500000  0.000000  0.500000      1.000000
  0.000000  0.500000  0.500000      1.000000
  0.500000  0.500000  0.500000      1.000000
 
 Following cartesian coordinates:
            Coordinates               Weight
  0.000000  0.000000 -0.000000      1.000000
  0.000000  0.040715 -0.009974      1.000000
  0.054688  0.000000 -0.000000      1.000000
  0.054688  0.040715 -0.009974      1.000000
  0.000000  0.000000 -0.044245      1.000000
  0.000000  0.040715 -0.054219      1.000000
  0.054688  0.000000 -0.044245      1.000000
  0.054688  0.040715 -0.054219      1.000000
 
 
 Subroutine IBZKPT_HF returns following result:
 ==============================================
 
 Found      8 k-points in 1st BZ
 the following      8 k-points will be used (e.g. in the exchange kernel)
 Following reciprocal coordinates:   # in IRBZ
  0.000000  0.000000  0.000000    0.12500000   1 t-inv F
  0.500000  0.000000  0.000000    0.12500000   2 t-inv F
  0.000000  0.500000  0.000000    0.12500000   3 t-inv F
  0.500000  0.500000  0.000000    0.12500000   4 t-inv F
  0.000000  0.000000  0.500000    0.12500000   5 t-inv F
  0.500000  0.000000  0.500000    0.12500000   6 t-inv F
  0.000000  0.500000  0.500000    0.12500000   7 t-inv F
  0.500000  0.500000  0.500000    0.12500000   8 t-inv F


--------------------------------------------------------------------------------------------------------




 Dimension of arrays:
   k-points           NKPTS =      8   k-points in BZ     NKDIM =      8   number of bands    NBANDS=    633
   number of dos      NEDOS =    301   number of ions     NIONS =    120
   non local maximal  LDIM  =      6   non local SUM 2l+1 LMDIM =     18
   total plane-waves  NPLWV = 184320
   max r-space proj   IRMAX =   1800   max aug-charges    IRDMAX=   5704
   dimension x,y,z NGX =    64 NGY =   48 NGZ =   60
   dimension x,y,z NGXF=   128 NGYF=   96 NGZF=  120
   support grid    NGXF=   128 NGYF=   96 NGZF=  120
   ions per type =              48  71   1
   NGX,Y,Z   is equivalent  to a cutoff of   8.66,  8.73,  8.57 a.u.
   NGXF,Y,Z  is equivalent  to a cutoff of  17.33, 17.46, 17.15 a.u.

 SYSTEM =  unknown system                          
 POSCAR =  Ga48 O72                                

 Startparameter for this run:
   NWRITE =      2    write-flag & timer
   PREC   = normal    normal or accurate (medium, high low for compatibility)
   ISTART =      0    job   : 0-new  1-cont  2-samecut
   ICHARG =      0    charge: 1-file 2-atom 10-const
   ISPIN  =      1    spin polarized calculation?
   LNONCOLLINEAR =      F non collinear calculations
   LSORBIT =      F    spin-orbit coupling
   INIWAV =      1    electr: 0-lowe 1-rand  2-diag
   LASPH  =      F    aspherical Exc in radial PAW
 Electronic Relaxation 1
   ENCUT  =  450.0 eV  33.07 Ry    5.75 a.u.  21.24 15.81 20.12*2*pi/ulx,y,z
   ENINI  =  450.0     initial cutoff
   ENAUG  =  605.4 eV  augmentation charge cutoff
   NELM   =    500;   NELMIN=  2; NELMDL= -5     # of ELM steps 
   EDIFF  = 0.1E-04   stopping-criterion for ELM
   LREAL  =      T    real-space projection
   NLSPLINE    = F    spline interpolate recip. space projectors
   LCOMPAT=      F    compatible to vasp.4.4
   GGA_COMPAT  = T    GGA compatible to vasp.4.4-vasp.4.6
   LMAXPAW     = -100 max onsite density
   LMAXMIX     =    2 max onsite mixed and CHGCAR
   VOSKOWN=      0    Vosko Wilk Nusair interpolation
   ROPT   =   -0.00050  -0.00050  -0.00050
 Ionic relaxation
   EDIFFG = -.5E-02   stopping-criterion for IOM
   NSW    =      0    number of steps for IOM
   NBLOCK =      1;   KBLOCK =      1    inner block; outer block 
   IBRION =     -1    ionic relax: 0-MD 1-quasi-New 2-CG
   NFREE  =      0    steps in history (QN), initial steepest desc. (CG)
   ISIF   =      2    stress and relaxation
   IWAVPR =     10    prediction:  0-non 1-charg 2-wave 3-comb
   ISYM   =      3    0-nonsym 1-usesym 2-fastsym
   LCORR  =      T    Harris-Foulkes like correction to forces

   POTIM  = 0.5000    time-step for ionic-motion
   TEIN   =    0.0    initial temperature
   TEBEG  =    0.0;   TEEND  =   0.0 temperature during run
   SMASS  =  -3.00    Nose mass-parameter (am)
   estimated Nose-frequenzy (Omega)   =  0.10E-29 period in steps = 0.13E+47 mass=  -0.345E-26a.u.
   SCALEE = 1.0000    scale energy and forces
   NPACO  =    256;   APACO  = 10.0  distance and # of slots for P.C.
   PSTRESS=    0.0 pullay stress

  Mass of Ions in am
   POMASS =  69.72 16.00 30.97
  Ionic Valenz
   ZVAL   =  13.00  6.00  5.00
  Atomic Wigner-Seitz radii
   RWIGS  =  -1.00 -1.00 -1.00
  virtual crystal weights 
   VCA    =   1.00  1.00  1.00
   NELECT =    1056.0000    total number of electrons
   NUPDOWN=      -1.0000    fix difference up-down

 DOS related values:
   EMIN   =  10.00;   EMAX   =-10.00  energy-range for DOS
   EFERMI =   0.00;   METHOD = LEGACY      
   ISMEAR =     0;   SIGMA  =   0.05  broadening in eV -4-tet -1-fermi 0-gaus

 Electronic relaxation 2 (details)
   IALGO  =     58    algorithm
   LDIAG  =      T    sub-space diagonalisation (order eigenvalues)
   LSUBROT=      F    optimize rotation matrix (better conditioning)
   TURBO    =      0    0=normal 1=particle mesh
   IRESTART =      0    0=no restart 2=restart with 2 vectors
   NREBOOT  =      0    no. of reboots
   NMIN     =      0    reboot dimension
   EREF     =   0.00    reference energy to select bands
   IMIX   =      4    mixing-type and parameters
     AMIX     =   0.40;   BMIX     =  1.00
     AMIX_MAG =   1.60;   BMIX_MAG =  1.00
     AMIN     =   0.10
     WC   =   100.;   INIMIX=   1;  MIXPRE=   1;  MAXMIX= -45

 Intra band minimization:
   WEIMIN = 0.0000     energy-eigenvalue tresh-hold
   EBREAK =  0.39E-08  absolut break condition
   DEPER  =   0.30     relativ break condition  

   TIME   =   0.40     timestep for ELM

  volume/ion in A,a.u.               =      10.57        71.35
  Fermi-wavevector in a.u.,A,eV,Ry     =   1.539919  2.910025 32.264175  2.371350
  Thomas-Fermi vector in A             =   2.646079
 
 Write flags
   LWAVE        =      T    write WAVECAR
   LDOWNSAMPLE  =      F    k-point downsampling of WAVECAR
   LCHARG       =      T    write CHGCAR
   LVTOT        =      F    write LOCPOT, total local potential
   LVHAR        =      F    write LOCPOT, Hartree potential only
   LELF         =      F    write electronic localiz. function (ELF)
   LORBIT       =      0    0 simple, 1 ext, 2 COOP (PROOUT), +10 PAW based schemes


 Dipole corrections
   LMONO  =      F    monopole corrections only (constant potential shift)
   LDIPOL =      F    correct potential (dipole corrections)
   IDIPOL =      0    1-x, 2-y, 3-z, 4-all directions 
   EPSILON=  1.0000000 bulk dielectric constant

 Exchange correlation treatment:
   GGA     =    --    GGA type
   LEXCH   =     8    internal setting for exchange type
   LIBXC   =     F    Libxc                    
   VOSKOWN =     0    Vosko Wilk Nusair interpolation
   EXXOEP  =     0    0=HF, 1=EXX-LHF (local Hartree Fock) 2=EXX OEP
   LHFCALC =     T    Hartree Fock is set to
   LSYMGRAD=     F    symmetrize gradient (conserves proper symmetry)
   PRECFOCK=fast      Normal, Fast or Accurate (Low or Medium for compatibility)
   LRHFCALC=     F    long range Hartree Fock
   LRSCOR  =     F    long range correlation only (use DFT for short range part)
   LTHOMAS =     F    Thomas Fermi screening in HF
   LMODELHF=     F    short range full HF, long range fraction AEXX
   FOCKCORR=     1    mode to apply convergence corrections
   LFOCKACE=     T    use Adeptively-Compressed-Exchange operator
   ENCUT4O =  -1.0   cutoff for four orbital integrals eV
   LMAXFOCK=     4    L truncation for augmentation on plane wave grid
   LMAXFOCKAE=  -1    L truncation for all-electron charge restoration on plane wave grid
   NMAXFOCKAE=   1    number of basis functions for all-electron charge restoration
   LFOCKAEDFT=     F  apply the AE augmentation even for DFT
   NKREDX  =     1    reduce k-point grid by
   NKREDY  =     1    reduce k-point grid by
   NKREDZ  =     1    reduce k-point grid by
   SHIFTRED=     F    shift reduced grid of Gamma
   HFKIDENT=     F    idential grid for each k-point
   ODDONLY =     F    use only odd q-grid points
   EVENONLY=     F    use only even q-grid points
   HFALPHA =   -1.0000 decay constant for conv. correction
   MCALPHA =    0.0000 extent of test-charge in conv. correction in multipole expansion
   AEXX    =    0.3200 exact exchange contribution
   HFSCREEN=    0.2000 screening length (either q_TF or 0.3 A-1)
   HFSCREENC=   0.2000 screening length for correlation (either q_TF or 0.3 A-1)
   HFRCUT  =    0.0000 spherical cutoff for potential kernel
   ALDAX   =    0.6800 LDA exchange part
   AGGAX   =    0.6800 GGA exchange part
   ALDAC   =    1.0000 LDA correlation
   AGGAC   =    1.0000 GGA correlation
   ENCUTFOCK=  -1.0 apply spherical cutoff to Coloumb kernel
   NBANDSGWLOW=     1    first orbital included in HF term
   NBLOCK_FOCK=    64    blocking factor in FOCK_ACC

 Linear response parameters
   LEPSILON=     F    determine dielectric tensor
   LRPA    =     F    only Hartree local field effects (RPA)
   LNABLA  =     F    use nabla operator in PAW spheres
   LVEL    =     F    velocity operator in full k-point grid
   CSHIFT  =0.1000    complex shift for real part using Kramers Kronig
   OMEGAMAX=  -1.0    maximum frequency
   DEG_THRESHOLD= 0.2000000E-02 threshold for treating states as degnerate
   RTIME   =   -0.100 relaxation time in fs
  (WPLASMAI=    0.000 imaginary part of plasma frequency in eV, 0.658/RTIME)
   DFIELD  = 0.0000000 0.0000000 0.0000000 field for delta impulse in time
 
  Optional k-point grid parameters
   LKPOINTS_OPT  =     F    use optional k-point grid
   KPOINTS_OPT_MODE=     1    mode for optional k-point grid
 
 Orbital magnetization related:
   ORBITALMAG=     F  switch on orbital magnetization
   LCHIMAG   =     F  perturbation theory with respect to B field
   DQ        =  0.001000  dq finite difference perturbation B field
   LLRAUG    =     F  two centre corrections for induced B field
   LBONE     =     F  B-component reconstruction in AE one-centre
   LVGVCALC  =     T  calculate vGv susceptibility
   LVGVAPPL  =     F  apply vGv susceptibility instead of pGv for G=0

 Random number generation:
   RANDOM_GENERATOR = DEFAULT
   PCG_SEED         = not used


--------------------------------------------------------------------------------------------------------


 Static calculation
 charge density and potential will be updated during run
 non-spin polarized calculation
 Conjugate gradient for all bands (Freysoldt, et al. PRB 79, 241103 (2009))
 preconditioned conjugated gradient                                        
 perform sub-space diagonalisation
    before iterative eigenvector-optimisation
 modified Broyden-mixing scheme, WC =      100.0
 initial mixing is a Kerker type mixing with AMIX =  0.4000 and BMIX =      1.0000
 Hartree-type preconditioning will be used
 using additional bands           105
 real space projection scheme for non local part
 use partial core corrections
 no Harris-corrections to forces 
 use gradient corrections 
 use of overlap-Matrix (Vanderbilt PP)
 Gauss-broadening in eV      SIGMA  =   0.05


--------------------------------------------------------------------------------------------------------


  energy-cutoff  :      450.00
  volume of cell :     1268.81
      direct lattice vectors                 reciprocal lattice vectors
     0.000000000 12.280473417  0.000000000     0.000000000  0.081430085 -0.019947423
     9.142702054  0.000000000  0.000000000     0.109376855 -0.000000000  0.000000000
     0.000000000 -2.768261773-11.300697718     0.000000000  0.000000000 -0.088490111

  length of vectors
    12.280473417  9.142702054 11.634820246     0.083837691  0.109376855  0.088490111


 
 k-points in units of 2pi/SCALE and weight: Automatic mesh                          
   0.00000000  0.00000000 -0.00000000       0.125
   0.00000000  0.04071504 -0.00997371       0.125
   0.05468843  0.00000000 -0.00000000       0.125
   0.05468843  0.04071504 -0.00997371       0.125
   0.00000000  0.00000000 -0.04424506       0.125
   0.00000000  0.04071504 -0.05421877       0.125
   0.05468843  0.00000000 -0.04424506       0.125
   0.05468843  0.04071504 -0.05421877       0.125
 
 k-points in reciprocal lattice and weights: Automatic mesh                          
   0.00000000  0.00000000  0.00000000       0.125
   0.50000000  0.00000000  0.00000000       0.125
   0.00000000  0.50000000  0.00000000       0.125
   0.50000000  0.50000000  0.00000000       0.125
   0.00000000  0.00000000  0.50000000       0.125
   0.50000000  0.00000000  0.50000000       0.125
   0.00000000  0.50000000  0.50000000       0.125
   0.50000000  0.50000000  0.50000000       0.125
 
 position of ions in fractional coordinates (direct lattice) 
   0.65917164  0.99637482  0.15416426
   0.65972067  0.99990543  0.65846473
   0.65917164  0.33695852  0.15416426
   0.65972067  0.33342790  0.65846473
   0.65796709  0.66666667  0.15639475
   0.65909380  0.66666667  0.65909411
   0.82198609  0.16666667  0.37211775
   0.84304034  0.16666667  0.84913818
   0.84094921  0.50115186  0.34073401
   0.84144428  0.49947845  0.84685008
   0.84094921  0.83218148  0.34073401
   0.84144428  0.83385489  0.84685008
   0.58495363  0.16666667  0.39918721
   0.59155833  0.16666667  0.89854422
   0.59325927  0.50119846  0.39946789
   0.58789285  0.50058174  0.89544903
   0.59325927  0.83213487  0.39946789
   0.58789285  0.83275160  0.89544903
   0.91387483  0.00358287  0.10828368
   0.90935030  0.99702546  0.60626287
   0.91387483  0.32975046  0.10828368
   0.90935030  0.33630787  0.60626287
   0.91225247  0.66666667  0.10554886
   0.90736866  0.66666667  0.60106800
   0.16313046  0.16666667  0.15499846
   0.15897564  0.16666667  0.65516926
   0.16225771  0.50001092  0.15689959
   0.16003960  0.50046252  0.65813360
   0.16225771  0.83332242  0.15689959
   0.16003960  0.83287082  0.65813360
   0.34208422  0.99868873  0.34344733
   0.34043092  0.00020369  0.84298292
   0.34208422  0.33464460  0.34344733
   0.34043092  0.33312964  0.84298292
   0.34282950  0.66666667  0.34389360
   0.34034445  0.66666667  0.84420213
   0.09474555  0.99459855  0.39924819
   0.09146559  0.00136122  0.89885256
   0.09474555  0.33873478  0.39924819
   0.09146559  0.33197212  0.89885256
   0.09467888  0.66666667  0.39997504
   0.09070231  0.66666667  0.89880286
   0.40972426  0.16666667  0.10140893
   0.40903643  0.16666667  0.60310410
   0.41003309  0.49969626  0.10234006
   0.40893898  0.50004501  0.60310052
   0.41003309  0.83363708  0.10234006
   0.40893898  0.83328833  0.60310052
   0.00186202  0.16666667  0.08725118
   0.99396150  0.16666667  0.61390670
   0.00029059  0.49952551  0.12840054
   0.99737943  0.50145598  0.62903347
   0.00029059  0.83380782  0.12840054
   0.99737943  0.83187735  0.62903347
   0.50344497  0.99737478  0.37409586
   0.50291012  0.00128076  0.87188916
   0.50344497  0.33595855  0.37409586
   0.50291012  0.33205258  0.87188916
   0.50446692  0.66666667  0.37589088
   0.50082601  0.66666667  0.86831317
   0.67010072  0.16666667  0.28363515
   0.67351669  0.16666667  0.78207207
   0.66953946  0.50301652  0.27988743
   0.67301270  0.50038925  0.78218309
   0.66953946  0.83031682  0.27988743
   0.67301270  0.83294409  0.78218309
   0.81896310  0.97643693  0.20988858
   0.82747834  0.99991407  0.72204003
   0.81896310  0.35689640  0.20988858
   0.82747834  0.33341927  0.72204003
   0.82706221  0.66666667  0.21874989
   0.82807755  0.66666667  0.72083624
   0.81885735  0.98644141  0.45430551
   0.83327123  0.99926837  0.94891998
   0.81885735  0.34689193  0.45430551
   0.83327123  0.33406496  0.94891998
   0.82935730  0.66666667  0.44522368
   0.83501509  0.66666667  0.94840137
   0.66676886  0.16666667  0.05543438
   0.66644800  0.16666667  0.55473185
   0.66094183  0.50359732  0.05087734
   0.66557572  0.50085454  0.55711042
   0.66094183  0.82973601  0.05087734
   0.66557572  0.83247879  0.55711042
   0.49704461  0.00057857  0.12773134
   0.49663269  0.00007000  0.62866472
   0.49704461  0.33275476  0.12773134
   0.49663269  0.33326334  0.62866472
   0.49538778  0.66666667  0.12667861
   0.49605195  0.66666667  0.62880528
   0.00393463  0.16666667  0.85685013
   0.00452001  0.50551120  0.37870024
   0.00434597  0.49921296  0.87386543
   0.00452001  0.82782213  0.37870024
   0.00434597  0.83412037  0.87386543
   0.17860213  0.99585012  0.27917288
   0.17203981  0.00044560  0.77995038
   0.17860213  0.33748321  0.27917288
   0.17203981  0.33288774  0.77995038
   0.17499874  0.66666667  0.28171842
   0.17295148  0.66666667  0.78213410
   0.33058848  0.16666667  0.21986720
   0.32721475  0.16666667  0.71956943
   0.33060477  0.50219169  0.22024800
   0.32812900  0.49972763  0.72082782
   0.33060477  0.83114164  0.22024800
   0.32812900  0.83360570  0.72082782
   0.33500250  0.16666667  0.44589365
   0.33248916  0.16666667  0.94524214
   0.33248018  0.50043968  0.44680600
   0.33315108  0.49941589  0.94586198
   0.33248018  0.83289366  0.44680600
   0.33315108  0.83391745  0.94586198
   0.17511738  0.99843133  0.05267644
   0.17223928  0.99759528  0.55625647
   0.17511738  0.33490200  0.05267644
   0.17223928  0.33573805  0.55625647
   0.17025292  0.66666667  0.05432661
   0.17184894  0.66666667  0.55696354
   0.97971258  0.16666667  0.31670799
 
 position of ions in cartesian coordinates  (Angst):
   9.10955808  7.66817283 -1.74216369
   9.14183742  6.27887937 -7.44111093
   3.08071132  7.66817283 -1.74216369
   3.04843198  6.27887937 -7.44111093
   6.09513470  7.64720573 -1.76736976
   6.09513470  6.26943884 -7.44822326
   1.52378368  9.06425894 -4.20519022
   1.52378368  8.00229775 -9.59585394
   4.58188212  9.38401350 -3.85053206
   4.56658262  7.98903137 -9.56999680
   7.60838728  9.38401350 -3.85053206
   7.62368678  7.98903137 -9.56999680
   1.52378368  6.07845275 -4.51109402
   1.52378368  4.77721072-10.15417666
   4.58230823  6.17967299 -4.51426587
   4.57666967  4.74076519-10.11919879
   7.60796117  6.17967299 -4.51426587
   7.61359974  4.74076519-10.11919879
   0.03275715 10.92305804 -1.22368114
   9.11550676  9.48895791 -6.85119338
   3.01481020 10.92305804 -1.22368114
   3.07476264  9.48895791 -6.85119338
   6.09513470 10.91070539 -1.19277576
   6.09513470  9.47900319 -6.79248779
   1.52378368  1.57424295 -1.75159073
   1.52378368  0.13861613 -7.40386978
   4.57145083  1.55826236 -1.77307488
   4.57557967  0.14347596 -7.43736888
   7.61881857  1.55826236 -1.77307488
   7.61468974  0.14347596 -7.43736888
   9.13071352  3.25020409 -3.88119446
   0.00186231  1.84705553 -9.52629514
   3.05955589  3.25020409 -3.88119446
   3.04570505  1.84705553 -9.52629514
   6.09513470  3.25812108 -3.88623759
   6.09513470  1.84261854 -9.54007310
   9.09331819  0.05829672 -4.51178315
   0.01244520 -1.36501843-10.15766102
   3.09695121  0.05829672 -4.51178315
   3.03512215 -1.36501843-10.15766102
   6.09513470  0.05546584 -4.51999697
   6.09513470 -1.37425425-10.15709946
   1.52378368  4.75088140 -1.14599170
   1.52378368  3.35361096 -6.81549710
   4.56857400  4.75209640 -1.15651411
   4.57176251  3.35242416 -6.81545670
   7.62169540  4.75209640 -1.15651411
   7.61850689  3.35242416 -6.81545670
   1.52378368 -0.21866757 -0.98599919
   1.52378368 10.50686329 -6.93757403
   4.56701291 -0.35187770 -1.45101569
   4.58466266 10.50696225 -7.10851707
   7.62325649 -0.35187770 -1.45101569
   7.60560675 10.50696225 -7.10851707
   9.11870045  5.14694730 -4.22754422
   0.01170959  3.76235697 -9.85295589
   3.07156896  5.14694730 -4.22754422
   3.03585776  3.76235697 -9.85295589
   6.09513470  5.15452826 -4.24782919
   6.09513470  3.74666233 -9.81254461
   1.52378368  7.44397767 -3.20527511
   1.52378368  6.10612357 -8.83796006
   4.59893013  7.44745984 -3.16292322
   4.57490980  6.09962698 -8.83921471
   7.59133928  7.44745984 -3.16292322
   7.61535961  6.09962698 -8.83921471
   8.92727197  9.47622798 -2.37188743
   9.14191640  8.16302991 -8.15955613
   3.26299744  9.47622798 -2.37188743
   3.04835301  8.16302991 -8.15955613
   6.09513470  9.55115855 -2.47202633
   6.09513470  8.17372095 -8.14595243
   9.01873987  8.79831936 -5.13396919
   9.13601298  7.60610628-10.72345788
   3.17152953  8.79831936 -5.13396919
   3.05425643  7.60610628-10.72345788
   6.09513470  8.95240453 -5.03133818
   6.09513470  7.62895730-10.71759724
   1.52378368  8.03478037 -0.62644721
   1.52378368  6.64865390 -6.26885699
   4.60424028  7.97583681 -0.57494941
   4.57916382  6.63135739 -6.29573651
   7.58602912  7.97583681 -0.57494941
   7.61110558  6.63135739 -6.29573651
   0.00528973  5.75034928 -1.44345325
   0.00063994  4.35857605 -7.10435002
   3.04227762  5.75034928 -1.44345325
   3.04692741  4.35857605 -7.10435002
   6.09513470  5.73291689 -1.43155666
   6.09513470  4.35105521 -7.10593838
   1.52378368 -2.32366630 -9.68300429
   4.62173833 -0.99283355 -4.27957692
   4.56415539 -2.36571773 -9.87528908
   7.56853107 -0.99283355 -4.27957692
   7.62611401 -2.36571773 -9.87528908
   9.10476093  1.42049507 -3.15484828
   0.00407394 -0.04637652 -8.81398345
   3.08550848  1.42049507 -3.15484828
   3.04349341 -0.04637652 -8.81398345
   6.09513470  1.36919709 -3.18361468
   6.09513470 -0.04122581 -8.83866103
   1.52378368  3.45113314 -2.48465274
   1.52378368  2.02639550 -8.13163659
   4.59138899  3.45027891 -2.48895606
   4.56886084  2.03413932 -8.14585729
   7.59888041  3.45027891 -2.48895606
   7.62140857  2.03413932 -8.14585729
   1.52378368  2.87963890 -5.03890937
   1.52378368  1.46644655-10.68189574
   4.57537087  2.84613803 -5.04921949
   4.56601065  1.47285939-10.68890033
   7.61489854  2.84613803 -5.04921949
   7.62425875  1.47285939-10.68890033
   9.12836021  2.00470213 -0.59528057
   9.12071645  0.57531640 -6.28608627
   3.06190919  2.00470213 -0.59528057
   3.06955296  0.57531640 -6.28608627
   6.09513470  1.94039612 -0.61392864
   6.09513470  0.56856547 -6.29407659
   1.52378368 11.15460367 -3.57902130
 


--------------------------------------------------------------------------------------------------------


 k-point   1 :   0.0000 0.0000 0.0000  plane waves:   27533
 k-point   2 :   0.5000 0.0000 0.0000  plane waves:   27522
 k-point   3 :   0.0000 0.5000 0.0000  plane waves:   27488
 k-point   4 :   0.5000 0.5000 0.0000  plane waves:   27488
 k-point   5 :   0.0000 0.0000 0.5000  plane waves:   27482
 k-point   6 :   0.5000 0.0000 0.5000  plane waves:   27476
 k-point   7 :   0.0000 0.5000 0.5000  plane waves:   27468
 k-point   8 :   0.5000 0.5000 0.5000  plane waves:   27564

 maximum and minimum number of plane-waves per node :     27564    27468

 maximum number of plane-waves:     27564
 maximum index in each direction: 
   IXMAX=   21   IYMAX=   15   IZMAX=   20
   IXMIN=  -21   IYMIN=  -16   IZMIN=  -20


 serial   3D FFT for wavefunctions
 parallel 3D FFT for charge:
    minimum data exchange during FFTs selected (reduces bandwidth)


 FFT grid for exact exchange (Hartree Fock) 
  NGX = 48; NGY = 36; NGZ = 48

 
 Radii for the augmentation spheres in the non-local exchange
 for species   1 augmentation radius   1.392 (default was   1.031)
       energy cutoff for augmentation   1800.0
 for species   2 augmentation radius   0.974 (default was   0.722)
       energy cutoff for augmentation   1800.0
 for species   3 augmentation radius   1.294 (default was   0.959)
       energy cutoff for augmentation   1800.0
 Maximum index for augmentation-charges in exchange           749
  SETUP_FOCK is finished

 total amount of memory used by VASP MPI-rank0  7269058. kBytes
=======================================================================

   base      :      30000. kBytes
   nonlr-proj:      32953. kBytes
   fftplans  :      51012. kBytes
   grid      :     102973. kBytes
   one-center:       1866. kBytes
   HF        :        194. kBytes
   wavefun   :    7050060. kBytes
 
     INWAV:  cpu time      0.0001: real time      0.0002
 Broyden mixing: mesh for mixing (old mesh)
   NGX = 43   NGY = 31   NGZ = 41
  (NGX  =128   NGY  = 96   NGZ  =120)
  gives a total of  54653 points

 charge density for first step will be calculated from the start-wavefunctions


--------------------------------------------------------------------------------------------------------


 Maximum index for non-local projection operator          1717
 Maximum index for augmentation-charges          5372 (set IRDMAX)


--------------------------------------------------------------------------------------------------------


 initial charge from wavefunction
 First call to EWALD:  gamma=   0.164
 Maximum number of real-space cells 3x 3x 3
 Maximum number of reciprocal cells 3x 2x 3

    FEWALD:  cpu time      0.0734: real time      0.0734


--------------------------------------- Ionic step        1  -------------------------------------------




--------------------------------------- Iteration      1(   1)  ---------------------------------------


    POTLOK:  cpu time      0.0347: real time      0.0347
    SETDIJ:  cpu time      0.1220: real time      0.1220
    TRIAL :  cpu time      2.8727: real time      2.8816
    CORREC:  cpu time      0.0014: real time      0.0014
    --------------------------------------------
      LOOP:  cpu time      3.9451: real time      3.9559

 eigenvalue-minimisations  : 10640
 total energy-change (2. order) :-0.1861320E+05  (-0.5433747E+05)
 number of electron    1055.9999543 magnetization 
 augmentation part      121.8844482 magnetization 

 Free energy of the ion-electron system (eV)
  ---------------------------------------------------
  alpha Z        PSCENC =      5529.70323211
  Ewald energy   TEWEN  =    -88745.69390698
  -Hartree energ DENC   =     -2118.39256583
  -exchange      EXHF   =         0.00000000
  -V(xc)+E(xc)   XCENC  =      2796.63294179
  PAW double counting   =    338284.64019713  -367624.99825733
  entropy T*S    EENTRO =        -0.00803161
  eigenvalues    EBANDS =    -40382.01724180
  atomic energy  EATOM  =    133646.93285989
  ---------------------------------------------------
  free energy    TOTEN  =    -18613.20077262 eV

  energy without entropy =   -18613.19274101  energy(sigma->0) =   -18613.19675681
  exchange ACFDT corr.  =         0.00000000  see jH, gK, PRB 81, 115126


--------------------------------------------------------------------------------------------------------




--------------------------------------- Iteration      1(   2)  ---------------------------------------


    TRIAL :  cpu time      3.1254: real time      3.1249
    CORREC:  cpu time      0.0016: real time      0.0016
    --------------------------------------------
      LOOP:  cpu time      3.1272: real time      3.1275

 eigenvalue-minimisations  : 13320
 total energy-change (2. order) :-0.4441079E+05  (-0.4300853E+05)
 number of electron    1055.9999543 magnetization 
 augmentation part      121.8844482 magnetization 

 Free energy of the ion-electron system (eV)
  ---------------------------------------------------
  alpha Z        PSCENC =      5529.70323211
  Ewald energy   TEWEN  =    -88745.69390698
  -Hartree energ DENC   =     -2118.39256583
  -exchange      EXHF   =         0.00000000
  -V(xc)+E(xc)   XCENC  =      2796.63294179
  PAW double counting   =    338284.64019713  -367624.99825733
  entropy T*S    EENTRO =        -0.01444111
  eigenvalues    EBANDS =    -84792.80039763
  atomic energy  EATOM  =    133646.93285989
  ---------------------------------------------------
  free energy    TOTEN  =    -63023.99033795 eV

  energy without entropy =   -63023.97589684  energy(sigma->0) =   -63023.98311740
  exchange ACFDT corr.  =         0.00000000  see jH, gK, PRB 81, 115126


--------------------------------------------------------------------------------------------------------




--------------------------------------- Iteration      1(   3)  ---------------------------------------


    TRIAL :  cpu time      3.2796: real time      3.2792
    CORREC:  cpu time      0.0016: real time      0.0016
    --------------------------------------------
      LOOP:  cpu time      3.2813: real time      3.2814

 eigenvalue-minimisations  : 14408
 total energy-change (2. order) :-0.4859505E+04  (-0.4346501E+04)
 number of electron    1055.9999543 magnetization 
 augmentation part      121.8844482 magnetization 

 Free energy of the ion-electron system (eV)
  ---------------------------------------------------
  alpha Z        PSCENC =      5529.70323211
  Ewald energy   TEWEN  =    -88745.69390698
  -Hartree energ DENC   =     -2118.39256583
  -exchange      EXHF   =         0.00000000
  -V(xc)+E(xc)   XCENC  =      2796.63294179
  PAW double counting   =    338284.64019713  -367624.99825733
  entropy T*S    EENTRO =        -0.03365748
  eigenvalues    EBANDS =    -89652.28597693
  atomic energy  EATOM  =    133646.93285989
  ---------------------------------------------------
  free energy    TOTEN  =    -67883.49513362 eV

  energy without entropy =   -67883.46147614  energy(sigma->0) =   -67883.47830488
  exchange ACFDT corr.  =         0.00000000  see jH, gK, PRB 81, 115126


--------------------------------------------------------------------------------------------------------




--------------------------------------- Iteration      1(   4)  ---------------------------------------


    TRIAL :  cpu time      3.6702: real time      3.6696
    CORREC:  cpu time      0.0016: real time      0.0016
    --------------------------------------------
      LOOP:  cpu time      3.6720: real time      3.6719

 eigenvalue-minimisations  : 17264
 total energy-change (2. order) :-0.6415272E+03  (-0.5657055E+03)
 number of electron    1055.9999543 magnetization 
 augmentation part      121.8844482 magnetization 

 Free energy of the ion-electron system (eV)
  ---------------------------------------------------
  alpha Z        PSCENC =      5529.70323211
  Ewald energy   TEWEN  =    -88745.69390698
  -Hartree energ DENC   =     -2118.39256583
  -exchange      EXHF   =         0.00000000
  -V(xc)+E(xc)   XCENC  =      2796.63294179
  PAW double counting   =    338284.64019713  -367624.99825733
  entropy T*S    EENTRO =        -0.03120644
  eigenvalues    EBANDS =    -90293.81559673
  atomic energy  EATOM  =    133646.93285989
  ---------------------------------------------------
  free energy    TOTEN  =    -68525.02230238 eV

  energy without entropy =   -68524.99109594  energy(sigma->0) =   -68525.00669916
  exchange ACFDT corr.  =         0.00000000  see jH, gK, PRB 81, 115126


--------------------------------------------------------------------------------------------------------




--------------------------------------- Iteration      1(   5)  ---------------------------------------


    POTLOK:  cpu time      1.3690: real time      1.3688
    SETDIJ:  cpu time      0.4683: real time      0.4682
    TRIAL :  cpu time    234.7352: real time    234.6904
    CORREC:  cpu time      0.0015: real time      0.0015
    CHARGE:  cpu time      0.2083: real time      0.2082
    --------------------------------------------
      LOOP:  cpu time    236.7826: real time    236.7378

 eigenvalue-minimisations  : 19504
 total energy-change (2. order) : 0.3015907E+05  (-0.8899988E+02)
 number of electron    1055.9998773 magnetization 
 augmentation part      487.1778581 magnetization 

 Free energy of the ion-electron system (eV)
  ---------------------------------------------------
  alpha Z        PSCENC =      5529.70323211
  Ewald energy   TEWEN  =    -88745.69390698
  -Hartree energ DENC   =     -2118.39256583
  -exchange      EXHF   =      4749.17265017
  -V(xc)+E(xc)   XCENC  =      1932.74539330
  PAW double counting   =    339516.89718654  -341591.21069898
  entropy T*S    EENTRO =        -0.00682576
  eigenvalues    EBANDS =    -91286.09727263
  atomic energy  EATOM  =    133646.93285989
  ---------------------------------------------------
  free energy    TOTEN  =    -38365.94994817 eV

  energy without entropy =   -38365.94312241  energy(sigma->0) =   -38365.94653529
  exchange ACFDT corr.  =        -0.05141653  see jH, gK, PRB 81, 115126


--------------------------------------------------------------------------------------------------------




--------------------------------------- Iteration      1(   6)  ---------------------------------------


    POTLOK:  cpu time      1.4143: real time      1.4141
    SETDIJ:  cpu time      0.4681: real time      0.4680
    TRIAL :  cpu time    233.4940: real time    233.4642
    CORREC:  cpu time    235.7009: real time    235.6655
    CHARGE:  cpu time      0.2071: real time      0.2071
    --------------------------------------------
      LOOP:  cpu time    471.2854: real time    471.2204

 eigenvalue-minimisations  :     0
 total energy-change (2. order) : 0.6571695E+05  (-0.1783023E+05)
 number of electron    1055.9998149 magnetization 
 augmentation part      469.6518608 magnetization 

 Free energy of the ion-electron system (eV)
  ---------------------------------------------------
  alpha Z        PSCENC =      5529.70323211
  Ewald energy   TEWEN  =    -88745.69390698
  -Hartree energ DENC   =    -74763.21934282
  -exchange      EXHF   =      4845.03823682
  -V(xc)+E(xc)   XCENC  =      3753.45187222
  PAW double counting   =    148707.73767652  -173644.72907148
  entropy T*S    EENTRO =        -0.01529424
  eigenvalues    EBANDS =     68021.78219397
  atomic energy  EATOM  =    133646.93285989
  ---------------------------------------------------
  free energy    TOTEN  =     27350.99692449 eV

  energy without entropy =    27351.01221873  energy(sigma->0) =    27351.00457161
  exchange ACFDT corr.  =        -0.04065812  see jH, gK, PRB 81, 115126


--------------------------------------------------------------------------------------------------------




--------------------------------------- Iteration      1(   7)  ---------------------------------------


    POTLOK:  cpu time      1.4905: real time      1.4902
    SETDIJ:  cpu time      0.4670: real time      0.4669
    TRIAL :  cpu time    233.9125: real time    233.8755
    CORREC:  cpu time    236.1663: real time    236.1241
    CHARGE:  cpu time      0.2066: real time      0.2066
    --------------------------------------------
      LOOP:  cpu time    472.2439: real time    472.1703

 eigenvalue-minimisations  :     0
 total energy-change (2. order) :-0.1827104E+05  (-0.5523515E+04)
 number of electron    1055.9998453 magnetization 
 augmentation part      440.1851167 magnetization 

 Free energy of the ion-electron system (eV)
  ---------------------------------------------------
  alpha Z        PSCENC =      5529.70323211
  Ewald energy   TEWEN  =    -88745.69390698
  -Hartree energ DENC   =    -42307.73123693
  -exchange      EXHF   =      3851.25649399
  -V(xc)+E(xc)   XCENC  =      2986.06858731
  PAW double counting   =    144699.40266385  -163276.36354335
  entropy T*S    EENTRO =        -0.01044166
  eigenvalues    EBANDS =     12696.39434127
  atomic energy  EATOM  =    133646.93285989
  ---------------------------------------------------
  free energy    TOTEN  =      9079.95419693 eV

  energy without entropy =     9079.96463859  energy(sigma->0) =     9079.95941776
  exchange ACFDT corr.  =      -189.62701888  see jH, gK, PRB 81, 115126


--------------------------------------------------------------------------------------------------------




--------------------------------------- Iteration      1(   8)  ---------------------------------------


    POTLOK:  cpu time      1.4687: real time      1.4684
    SETDIJ:  cpu time      0.4700: real time      0.4700
    TRIAL :  cpu time    233.5077: real time    233.4698
    CORREC:  cpu time    235.8292: real time    235.7936
    CHARGE:  cpu time      0.2098: real time      0.2098
    --------------------------------------------
      LOOP:  cpu time    471.4857: real time    471.4120

 eigenvalue-minimisations  :     0
 total energy-change (2. order) :-0.4750234E+04  (-0.2187137E+04)
 number of electron    1055.9998668 magnetization 
 augmentation part      440.3209732 magnetization 

 Free energy of the ion-electron system (eV)
  ---------------------------------------------------
  alpha Z        PSCENC =      5529.70323211
  Ewald energy   TEWEN  =    -88745.69390698
  -Hartree energ DENC   =    -31644.11234959
  -exchange      EXHF   =      3530.71046539
  -V(xc)+E(xc)   XCENC  =      2761.63596307
  PAW double counting   =    140578.47993306  -155581.42836732
  entropy T*S    EENTRO =        -0.03955220
  eigenvalues    EBANDS =     -5746.49710069
  atomic energy  EATOM  =    133646.93285989
  ---------------------------------------------------
  free energy    TOTEN  =      4329.72028729 eV

  energy without entropy =     4329.75983949  energy(sigma->0) =     4329.74006339
  exchange ACFDT corr.  =      -117.86317849  see jH, gK, PRB 81, 115126


--------------------------------------------------------------------------------------------------------




--------------------------------------- Iteration      1(   9)  ---------------------------------------


    POTLOK:  cpu time      1.4996: real time      1.4993
    SETDIJ:  cpu time      0.4684: real time      0.4683
    TRIAL :  cpu time    234.6132: real time    234.5777
    CORREC:  cpu time    235.8020: real time    235.7617
    CHARGE:  cpu time      0.2066: real time      0.2065
    --------------------------------------------
      LOOP:  cpu time    472.5922: real time    472.5165

 eigenvalue-minimisations  :     0
 total energy-change (2. order) :-0.1568716E+04  (-0.1515571E+04)
 number of electron    1055.9998581 magnetization 
 augmentation part      453.8118767 magnetization 

 Free energy of the ion-electron system (eV)
  ---------------------------------------------------
  alpha Z        PSCENC =      5529.70323211
  Ewald energy   TEWEN  =    -88745.69390698
  -Hartree energ DENC   =    -30236.27109689
  -exchange      EXHF   =      3496.15256955
  -V(xc)+E(xc)   XCENC  =      2736.80937401
  PAW double counting   =    135940.00002259  -150607.97710349
  entropy T*S    EENTRO =        -0.03574699
  eigenvalues    EBANDS =     -8998.61218536
  atomic energy  EATOM  =    133646.93285989
  ---------------------------------------------------
  free energy    TOTEN  =      2761.00421323 eV

  energy without entropy =     2761.03996022  energy(sigma->0) =     2761.02208672
  exchange ACFDT corr.  =      -120.55817633  see jH, gK, PRB 81, 115126


--------------------------------------------------------------------------------------------------------




--------------------------------------- Iteration      1(  10)  ---------------------------------------


    POTLOK:  cpu time      1.5010: real time      1.5008
    SETDIJ:  cpu time      0.4667: real time      0.4666
    TRIAL :  cpu time    234.5795: real time    234.5376
    CORREC:  cpu time    235.4492: real time    235.4036
    CHARGE:  cpu time      0.2076: real time      0.2075
    --------------------------------------------
      LOOP:  cpu time    472.2054: real time    472.1182

 eigenvalue-minimisations  :     0
 total energy-change (2. order) :-0.1142156E+04  (-0.1214348E+04)
 number of electron    1055.9998430 magnetization 
 augmentation part      465.6116333 magnetization 

 Free energy of the ion-electron system (eV)
  ---------------------------------------------------
  alpha Z        PSCENC =      5529.70323211
  Ewald energy   TEWEN  =    -88745.69390698
  -Hartree energ DENC   =    -32372.39692166
  -exchange      EXHF   =      3591.12809247
  -V(xc)+E(xc)   XCENC  =      2798.77955167
  PAW double counting   =    135857.01618495  -151407.59822642
  entropy T*S    EENTRO =        -0.02739675
  eigenvalues    EBANDS =     -7278.98641515
  atomic energy  EATOM  =    133646.93285989
  ---------------------------------------------------
  free energy    TOTEN  =      1618.84870389 eV

  energy without entropy =     1618.87610064  energy(sigma->0) =     1618.86240227
  exchange ACFDT corr.  =       -61.71029960  see jH, gK, PRB 81, 115126


--------------------------------------------------------------------------------------------------------




--------------------------------------- Iteration      1(  11)  ---------------------------------------


    POTLOK:  cpu time      1.4766: real time      1.4763
    SETDIJ:  cpu time      0.4678: real time      0.4677
[...]
   0.135E+02 0.471E+02 -.278E+02   -.125E+02 -.450E+02 0.287E+02   -.908E+00 -.184E+01 -.876E+00
   0.134E+02 0.562E+02 -.443E+02   -.130E+02 -.541E+02 0.463E+02   -.352E+00 -.187E+01 -.180E+01
   -.135E+02 0.471E+02 -.278E+02   0.125E+02 -.450E+02 0.287E+02   0.908E+00 -.184E+01 -.876E+00
   -.134E+02 0.562E+02 -.443E+02   0.130E+02 -.541E+02 0.463E+02   0.352E+00 -.187E+01 -.180E+01
   -.700E-05 -.437E+01 -.170E+02   0.279E-11 0.115E+02 0.272E+02   0.000E+00 -.614E+01 -.873E+01
   0.881E-05 -.441E+02 -.698E+02   0.387E-10 0.526E+02 0.717E+02   0.000E+00 -.734E+01 -.157E+01
   0.136E+02 -.460E+00 0.261E+02   -.142E+02 0.660E+01 -.288E+02   0.461E+00 -.527E+01 0.240E+01
   0.569E+01 -.239E+02 -.747E+00   -.468E+01 0.316E+02 -.309E+01   -.872E+00 -.658E+01 0.331E+01
   -.136E+02 -.460E+00 0.261E+02   0.142E+02 0.660E+01 -.288E+02   -.461E+00 -.527E+01 0.240E+01
   -.569E+01 -.239E+02 -.747E+00   0.468E+01 0.316E+02 -.309E+01   0.872E+00 -.658E+01 0.331E+01
   0.870E+01 0.990E+01 -.178E+02   -.107E+02 -.166E+02 0.217E+02   0.173E+01 0.574E+01 -.335E+01
   -.923E+01 0.886E+01 -.120E+02   0.963E+01 -.161E+02 0.158E+02   -.343E+00 0.622E+01 -.333E+01
   -.870E+01 0.990E+01 -.178E+02   0.107E+02 -.166E+02 0.217E+02   -.173E+01 0.574E+01 -.335E+01
   0.923E+01 0.886E+01 -.120E+02   -.963E+01 -.161E+02 0.158E+02   0.343E+00 0.622E+01 -.333E+01
   0.133E-04 0.177E+02 -.101E+02   0.835E-11 -.247E+02 0.133E+02   0.000E+00 0.605E+01 -.276E+01
   0.370E-04 0.587E+01 -.169E+02   0.282E-10 -.125E+02 0.216E+02   0.000E+00 0.568E+01 -.408E+01
   0.682E-05 0.264E+02 -.275E+02   0.172E-10 -.285E+02 0.384E+02   0.000E+00 0.176E+01 -.942E+01
   0.185E-07 0.510E+02 0.440E+02   0.248E-10 -.481E+02 -.395E+02   0.000E+00 -.251E+01 -.389E+01
   0.159E+02 0.464E+02 0.355E+02   -.165E+02 -.432E+02 -.305E+02   0.564E+00 -.278E+01 -.438E+01
   0.420E+01 0.472E+02 0.481E+02   -.439E+01 -.444E+02 -.437E+02   0.167E+00 -.236E+01 -.381E+01
   -.159E+02 0.464E+02 0.355E+02   0.165E+02 -.432E+02 -.305E+02   -.564E+00 -.278E+01 -.438E+01
   -.420E+01 0.472E+02 0.481E+02   0.439E+01 -.444E+02 -.437E+02   -.167E+00 -.236E+01 -.381E+01
   -.821E+02 -.101E+03 0.636E+01   0.855E+02 0.100E+03 -.121E+02   -.294E+01 0.338E+00 0.501E+01
   -.756E+01 -.701E+02 -.316E+02   0.833E+01 0.677E+02 0.260E+02   -.666E+00 0.208E+01 0.487E+01
   0.821E+02 -.101E+03 0.636E+01   -.855E+02 0.100E+03 -.121E+02   0.294E+01 0.338E+00 0.501E+01
   0.756E+01 -.701E+02 -.316E+02   -.833E+01 0.677E+02 0.260E+02   0.666E+00 0.208E+01 0.487E+01
   -.209E-04 -.793E+02 -.431E+02   0.249E-10 0.766E+02 0.393E+02   0.000E+00 0.239E+01 0.327E+01
   0.791E-05 -.765E+02 -.298E+02   0.109E-10 0.748E+02 0.246E+02   0.000E+00 0.145E+01 0.448E+01
   0.185E+02 0.700E+02 0.249E+02   -.249E+02 -.845E+02 -.224E+02   0.554E+01 0.124E+02 -.216E+01
   0.525E+01 0.127E+03 0.895E+02   -.566E+01 -.139E+03 -.893E+02   0.344E+00 0.106E+02 -.164E+00
   -.185E+02 0.700E+02 0.249E+02   0.249E+02 -.845E+02 -.224E+02   -.554E+01 0.124E+02 -.216E+01
   -.525E+01 0.127E+03 0.895E+02   0.566E+01 -.139E+03 -.893E+02   -.344E+00 0.106E+02 -.164E+00
   -.147E-04 0.102E+03 0.590E+02   0.296E-10 -.116E+03 -.546E+02   0.000E+00 0.112E+02 -.384E+01
   -.333E-05 0.117E+03 0.743E+02   0.792E-11 -.129E+03 -.718E+02   0.000E+00 0.106E+02 -.220E+01
   0.169E-04 -.146E+03 -.278E+02   0.317E-10 0.159E+03 0.236E+02   0.000E+00 -.107E+02 0.364E+01
   0.645E-05 -.124E+03 -.536E+02   0.267E-10 0.136E+03 0.503E+02   0.000E+00 -.107E+02 0.283E+01
   0.467E+01 -.135E+03 -.573E+02   -.470E+01 0.147E+03 0.531E+02   0.222E-01 -.104E+02 0.362E+01
   0.411E+00 -.120E+03 -.604E+02   -.549E+00 0.132E+03 0.572E+02   0.114E+00 -.102E+02 0.275E+01
   -.467E+01 -.135E+03 -.573E+02   0.470E+01 0.147E+03 0.531E+02   -.222E-01 -.104E+02 0.362E+01
   -.411E+00 -.120E+03 -.604E+02   0.549E+00 0.132E+03 0.572E+02   -.114E+00 -.102E+02 0.275E+01
   -.103E+02 -.278E+02 0.251E+02   0.103E+02 0.351E+02 -.296E+02   -.235E-01 -.628E+01 0.383E+01
   -.345E+01 -.171E+02 0.139E+02   0.333E+01 0.245E+02 -.177E+02   0.109E+00 -.640E+01 0.331E+01
   0.103E+02 -.278E+02 0.251E+02   -.103E+02 0.351E+02 -.296E+02   0.235E-01 -.628E+01 0.383E+01
   0.345E+01 -.171E+02 0.139E+02   -.333E+01 0.245E+02 -.177E+02   -.109E+00 -.640E+01 0.331E+01
   0.418E-04 -.194E+02 0.185E+02   0.105E-10 0.274E+02 -.225E+02   0.000E+00 -.688E+01 0.345E+01
   0.419E-05 -.197E+02 0.105E+02   0.309E-10 0.273E+02 -.143E+02   0.000E+00 -.660E+01 0.325E+01
   -.275E-04 0.140E+02 -.678E+02   0.778E-11 -.201E+02 0.784E+02   0.000E+00 0.522E+01 -.915E+01
   0.527E+02 0.379E+02 -.101E+02   -.546E+02 -.462E+02 0.121E+02   0.173E+01 0.712E+01 -.173E+01
   -.790E+00 0.231E+02 -.167E+02   0.538E+00 -.305E+02 0.208E+02   0.218E+00 0.639E+01 -.349E+01
   -.527E+02 0.379E+02 -.101E+02   0.546E+02 -.462E+02 0.121E+02   -.173E+01 0.712E+01 -.173E+01
   0.790E+00 0.231E+02 -.167E+02   -.538E+00 -.305E+02 0.208E+02   -.218E+00 0.639E+01 -.349E+01
   -.378E+02 0.132E+03 0.548E+02   0.391E+02 -.134E+03 -.519E+02   -.118E+01 0.157E+01 -.250E+01
   -.600E+01 0.794E+02 0.207E+02   0.627E+01 -.782E+02 -.164E+02   -.229E+00 -.110E+01 -.366E+01
   0.378E+02 0.132E+03 0.548E+02   -.391E+02 -.134E+03 -.519E+02   0.118E+01 0.157E+01 -.250E+01
   0.600E+01 0.794E+02 0.207E+02   -.627E+01 -.782E+02 -.164E+02   0.229E+00 -.110E+01 -.366E+01
   0.188E-04 0.920E+02 0.342E+02   0.730E-11 -.905E+02 -.291E+02   0.000E+00 -.132E+01 -.444E+01
   0.174E-04 0.822E+02 0.315E+02   0.194E-10 -.808E+02 -.269E+02   0.000E+00 -.122E+01 -.397E+01
   -.475E-05 -.518E+02 -.200E+02   0.267E-11 0.501E+02 0.143E+02   0.000E+00 0.145E+01 0.492E+01
   -.121E-04 -.539E+02 -.492E+02   0.174E-10 0.517E+02 0.445E+02   0.000E+00 0.189E+01 0.406E+01
   0.246E+01 -.582E+02 -.312E+02   -.255E+01 0.562E+02 0.263E+02   0.832E-01 0.176E+01 0.427E+01
   0.400E+01 -.585E+02 -.449E+02   -.371E+01 0.569E+02 0.403E+02   -.245E+00 0.145E+01 0.394E+01
   -.246E+01 -.582E+02 -.312E+02   0.255E+01 0.562E+02 0.263E+02   -.832E-01 0.176E+01 0.427E+01
   -.400E+01 -.585E+02 -.449E+02   0.371E+01 0.569E+02 0.403E+02   0.245E+00 0.145E+01 0.394E+01
   0.148E-04 0.149E+03 0.522E+02   0.122E-10 -.161E+03 -.481E+02   0.000E+00 0.103E+02 -.355E+01
   -.171E-04 0.120E+03 0.604E+02   0.425E-11 -.133E+03 -.571E+02   0.000E+00 0.109E+02 -.286E+01
   0.698E+01 0.134E+03 0.586E+02   -.690E+01 -.147E+03 -.547E+02   -.668E-01 0.109E+02 -.335E+01
   0.266E+01 0.125E+03 0.622E+02   -.283E+01 -.137E+03 -.590E+02   0.143E+00 0.107E+02 -.273E+01
   -.698E+01 0.134E+03 0.586E+02   0.690E+01 -.147E+03 -.547E+02   0.668E-01 0.109E+02 -.335E+01
   -.266E+01 0.125E+03 0.622E+02   0.283E+01 -.137E+03 -.590E+02   -.143E+00 0.107E+02 -.273E+01
   0.436E+01 -.114E+03 -.500E+02   -.463E+01 0.128E+03 0.459E+02   0.230E+00 -.120E+02 0.352E+01
   -.307E+02 -.902E+02 -.101E+03   0.312E+02 0.103E+03 0.986E+02   -.408E+00 -.112E+02 0.251E+01
   -.436E+01 -.114E+03 -.500E+02   0.463E+01 0.128E+03 0.459E+02   -.230E+00 -.120E+02 0.352E+01
   0.307E+02 -.902E+02 -.101E+03   -.312E+02 0.103E+03 0.986E+02   0.408E+00 -.112E+02 0.251E+01
   0.278E-04 -.106E+03 -.615E+02   0.759E-11 0.119E+03 0.582E+02   0.000E+00 -.111E+02 0.290E+01
   0.306E-04 -.107E+03 -.754E+02   0.255E-10 0.120E+03 0.723E+02   0.000E+00 -.112E+02 0.261E+01
   0.422E-04 -.973E+00 -.206E+02   0.579E-11 0.105E+01 0.234E+02   0.000E+00 -.725E-01 -.292E+01
 -----------------------------------------------------------------------------------------------
   0.484E-04 -.179E+01 0.353E+02   -.209E-12 -.157E-12 -.583E-12   -.555E-16 0.188E+01 -.320E+02
 
 
 POSITION                                       TOTAL-FORCE (eV/Angst)
 -----------------------------------------------------------------------------------
      9.10956      7.66817     -1.74216        -0.091941      0.173679      0.022926
      9.14184      6.27888     -7.44111        -0.019410      0.077912      0.009083
      3.08071      7.66817     -1.74216         0.091941      0.173679      0.022926
      3.04843      6.27888     -7.44111         0.019410      0.077912      0.009083
      6.09513      7.64721     -1.76737         0.000000      0.042959      0.004319
      6.09513      6.26944     -7.44822         0.000000      0.073713      0.028042
      1.52378      9.06426     -4.20519         0.000000     -0.322854     -0.009561
      1.52378      8.00230     -9.59585         0.000000     -0.046756     -0.033153
      4.58188      9.38401     -3.85053         0.036181     -0.096376      0.091148
      4.56658      7.98903     -9.57000        -0.011587     -0.067597     -0.047440
      7.60839      9.38401     -3.85053        -0.036181     -0.096376      0.091148
      7.62369      7.98903     -9.57000         0.011587     -0.067597     -0.047440
      1.52378      6.07845     -4.51109         0.000000     -0.010040      0.022863
      1.52378      4.77721    -10.15418         0.000000     -0.029186      0.006362
      4.58231      6.17967     -4.51427         0.017040     -0.023914      0.041521
      4.57667      4.74077    -10.11920         0.006710     -0.004652     -0.032167
      7.60796      6.17967     -4.51427        -0.017040     -0.023914      0.041521
      7.61360      4.74077    -10.11920        -0.006710     -0.004652     -0.032167
      0.03276     10.92306     -1.22368        -0.116791     -0.006675      0.111239
      9.11551      9.48896     -6.85119        -0.050144     -0.037136     -0.000032
      3.01481     10.92306     -1.22368         0.116791     -0.006675      0.111239
      3.07476      9.48896     -6.85119         0.050144     -0.037136     -0.000032
      6.09513     10.91071     -1.19278         0.000000     -0.021825     -0.005690
      6.09513      9.47900     -6.79249         0.000000      0.021211     -0.002109
      1.52378      1.57424     -1.75159         0.000000      0.087696      0.117315
      1.52378      0.13862     -7.40387         0.000000      0.114214      0.003096
      4.57145      1.55826     -1.77307        -0.021950      0.063843     -0.013795
      4.57558      0.14348     -7.43737        -0.003926      0.084640      0.016167
      7.61882      1.55826     -1.77307         0.021950      0.063843     -0.013795
      7.61469      0.14348     -7.43737         0.003926      0.084640      0.016167
      9.13071      3.25020     -3.88119        -0.020693     -0.099935      0.013477
      0.00186      1.84706     -9.52630        -0.000640     -0.062934     -0.007785
      3.05956      3.25020     -3.88119         0.020693     -0.099935      0.013477
      3.04571      1.84706     -9.52630         0.000640     -0.062934     -0.007785
      6.09513      3.25812     -3.88624         0.000000     -0.053111      0.013675
      6.09513      1.84262     -9.54007         0.000000     -0.048576     -0.003401
      9.09332      0.05830     -4.51178        -0.258497      0.101038     -0.001760
      0.01245     -1.36502    -10.15766        -0.016309     -0.000459      0.046843
      3.09695      0.05830     -4.51178         0.258497      0.101038     -0.001760
      3.03512     -1.36502    -10.15766         0.016309     -0.000459      0.046843
      6.09513      0.05547     -4.52000         0.000000     -0.105251      0.004933
      6.09513     -1.37425    -10.15710         0.000000     -0.007695      0.013935
      1.52378      4.75088     -1.14599         0.000000      0.029675     -0.035085
      1.52378      3.35361     -6.81550         0.000000      0.027175     -0.018924
      4.56857      4.75210     -1.15651         0.024702      0.027729     -0.036384
      4.57176      3.35242     -6.81546         0.010256      0.024117     -0.005693
      7.62170      4.75210     -1.15651        -0.024702      0.027729     -0.036384
      7.61851      3.35242     -6.81546        -0.010256      0.024117     -0.005693
      1.52378     -0.21867     -0.98600         0.000000     -0.234934     -0.303801
      1.52378     10.50686     -6.93757         0.000000     -0.222463     -0.058384
      4.56701     -0.35188     -1.45102         0.007469     -0.136287      0.084268
      4.58466     10.50696     -7.10852        -0.032227     -0.178443      0.116187
      7.62326     -0.35188     -1.45102        -0.007469     -0.136287      0.084268
      7.60561     10.50696     -7.10852         0.032227     -0.178443      0.116187
      9.11870      5.14695     -4.22754         0.069333      0.147926     -0.119512
      0.01171      3.76236     -9.85296        -0.014755      0.159679     -0.111219
      3.07157      5.14695     -4.22754        -0.069333      0.147926     -0.119512
      3.03586      3.76236     -9.85296         0.014755      0.159679     -0.111219
      6.09513      5.15453     -4.24783         0.000000      0.167596     -0.104435
      6.09513      3.74666     -9.81254         0.000000      0.152840     -0.139086
      1.52378      7.44398     -3.20528         0.000000      0.069675     -0.344149
      1.52378      6.10612     -8.83796         0.000000     -0.065088     -0.107224
      4.59893      7.44746     -3.16292         0.016820     -0.088426     -0.131292
      4.57491      6.09963     -8.83921         0.002765     -0.061162     -0.103195
      7.59134      7.44746     -3.16292        -0.016820     -0.088426     -0.131292
      7.61536      6.09963     -8.83921        -0.002765     -0.061162     -0.103195
      8.92727      9.47623     -2.37189        -0.144718     -0.029375      0.171536
      9.14192      8.16303     -8.15956        -0.024823      0.051284      0.146027
      3.26300      9.47623     -2.37189         0.144718     -0.029375      0.171536
      3.04835      8.16303     -8.15956         0.024823      0.051284      0.146027
      6.09513      9.55116     -2.47203         0.000000      0.068486      0.079097
      6.09513      8.17372     -8.14595         0.000000      0.030520      0.128916
      9.01874      8.79832     -5.13397         0.236357      0.448222     -0.062647
      9.13601      7.60611    -10.72346         0.016113      0.394577      0.035537
      3.17153      8.79832     -5.13397        -0.236357      0.448222     -0.062647
      3.05426      7.60611    -10.72346        -0.016113      0.394577      0.035537
      6.09513      8.95240     -5.03134         0.000000      0.417271     -0.106385
      6.09513      7.62896    -10.71760         0.000000      0.388086     -0.037425
      1.52378      8.03478     -0.62645         0.000000     -0.399951      0.115140
      1.52378      6.64865     -6.26886         0.000000     -0.388327      0.074799
      4.60424      7.97584     -0.57495        -0.013686     -0.371458      0.094913
      4.57916      6.63136     -6.29574        -0.002955     -0.362315      0.057850
      7.58603      7.97584     -0.57495         0.013686     -0.371458      0.094913
      7.61111      6.63136     -6.29574         0.002955     -0.362315      0.057850
      0.00529      5.75035     -1.44345        -0.003050     -0.178225      0.140334
      0.00064      4.35858     -7.10435         0.007130     -0.176561      0.116676
      3.04228      5.75035     -1.44345         0.003050     -0.178225      0.140334
      3.04693      4.35858     -7.10435        -0.007130     -0.176561      0.116676
      6.09513      5.73292     -1.43156         0.000000     -0.197227      0.127869
      6.09513      4.35106     -7.10594         0.000000     -0.182632      0.111960
      1.52378     -2.32367     -9.68300         0.000000      0.144424     -0.321880
      4.62174     -0.99283     -4.27958         0.048689      0.230359     -0.075037
      4.56416     -2.36572     -9.87529         0.007175      0.178178     -0.121687
      7.56853     -0.99283     -4.27958        -0.048689      0.230359     -0.075037
      7.62611     -2.36572     -9.87529        -0.007175      0.178178     -0.121687
      9.10476      1.42050     -3.15485        -0.026297      0.087942     -0.060265
      0.00407     -0.04638     -8.81398        -0.008951     -0.012377     -0.081035
      3.08551      1.42050     -3.15485         0.026297      0.087942     -0.060265
      3.04349     -0.04638     -8.81398         0.008951     -0.012377     -0.081035
      6.09513      1.36920     -3.18361         0.000000     -0.021165     -0.129246
      6.09513     -0.04123     -8.83866         0.000000     -0.020041     -0.101548
      1.52378      3.45113     -2.48465         0.000000      0.021769      0.138083
      1.52378      2.02640     -8.13164         0.000000      0.043754      0.119131
      4.59139      3.45028     -2.48896        -0.003340      0.031247      0.115692
      4.56886      2.03414     -8.14586        -0.010350      0.024207      0.114696
      7.59888      3.45028     -2.48896         0.003340      0.031247      0.115692
      7.62141      2.03414     -8.14586         0.010350      0.024207      0.114696
      1.52378      2.87964     -5.03891         0.000000      0.371231     -0.091597
      1.52378      1.46645    -10.68190         0.000000      0.398561     -0.060817
      4.57537      2.84614     -5.04922        -0.002044      0.400137     -0.086570
      4.56601      1.47286    -10.68890         0.005916      0.391590     -0.057518
      7.61490      2.84614     -5.04922         0.002044      0.400137     -0.086570
      7.62426      1.47286    -10.68890        -0.005916      0.391590     -0.057518
      9.12836      2.00470     -0.59528         0.010051     -0.433511      0.099353
      9.12072      0.57532     -6.28609        -0.006308     -0.421615      0.074850
      3.06191      2.00470     -0.59528        -0.010051     -0.433511      0.099353
      3.06955      0.57532     -6.28609         0.006308     -0.421615      0.074850
      6.09513      1.94040     -0.61393         0.000000     -0.405593      0.070760
      6.09513      0.56857     -6.29408         0.000000     -0.416703      0.061441
      1.52378     11.15460     -3.57902         0.000000      0.030812     -0.358416
 -----------------------------------------------------------------------------------
    total drift:                                0.000048      0.077518     -0.103488


--------------------------------------------------------------------------------------------------------



  FREE ENERGIE OF THE ION-ELECTRON SYSTEM (eV)
  ---------------------------------------------------
  free  energy   TOTEN  =      -944.80475824 eV

  energy  without entropy=     -944.80475824  energy(sigma->0) =     -944.80475824
 


--------------------------------------------------------------------------------------------------------


    POTLOK:  cpu time      1.9656: real time      1.9731


--------------------------------------------------------------------------------------------------------


 writing wavefunctions
     LOOP+:  cpu time  17069.8157: real time  17069.0243
    4ORBIT:  cpu time      0.0000: real time      0.0000

 total amount of memory used by VASP MPI-rank0  7512548. kBytes
=======================================================================

   base      :      30000. kBytes
   nonlr-proj:      47173. kBytes
   fftplans  :      51012. kBytes
   grid      :     102973. kBytes
   one-center:       1866. kBytes
   HF        :        194. kBytes
   wavefun   :    7050060. kBytes
   fock_wrk  :     229270. kBytes
 
  
  
 General timing and accounting informations for this job:
 ========================================================
  
                  Total CPU time used (sec):    17102.105
                            User time (sec):    17087.696
                          System time (sec):       14.410
                         Elapsed time (sec):    17103.581
  
                   Maximum memory used (kb):    13313536.
                   Average memory used (kb):          N/A
  
                          Minor page faults:      8508034
                          Major page faults:            3
                 Voluntary context switches:       330606
