 running    4 mpi-ranks, on    1 nodes
 distrk:  each k-point on    1 cores,    4 groups
 distr:  one band on    1 cores,    1 groups
 OpenACC runtime initialized ...    4 GPUs detected
 vasp.6.4.2 20Jul23 (build Nov 12 2023 22:16:35) complex                         
 POSCAR found type information on POSCAR GaO N 
 POSCAR found :  3 types and     120 ions
 scaLAPACK will be used selectively (only on CPU)
 LDA part: xc-table for Pade appr. of Perdew
 POSCAR, INCAR and KPOINTS ok, starting setup
 FFT: planning ... GRIDC
 FFT: planning ... GRID_SOFT
 FFT: planning ... GRID
 WAVECAR not read
 initial charge from wavefunction
 entering main loop
       N       E                     dE             d eps       ncg     rms          ort
DAV:   1    -0.182950812291E+05   -0.18295E+05   -0.54200E+05  5064   0.746E+03
DAV:   2    -0.624002913757E+05   -0.44105E+05   -0.42804E+05  5064   0.120E+03
DAV:   3    -0.669422327853E+05   -0.45419E+04   -0.40525E+04  5064   0.350E+02
DAV:   4    -0.674742497096E+05   -0.53202E+03   -0.45437E+03  5064   0.103E+02
DAV:   5    -0.373706041688E+05    0.30104E+05   -0.72335E+02  5064   0.533E+01
 gam= 0.000 g(H,U,f)=  0.686E+05 0.316E+05 0.657E+04 ort(H,U,f) = 0.000E+00 0.000E+00 0.000E+00
SDA:   6     0.191748823814E+05    0.56545E+05   -0.72335E+02  5064   0.107E+06 0.000E+00
 gam= 0.000 trial= 0.400  step= 0.254 mean= 0.400
 gam= 0.323 g(H,U,f)=  0.174E+05 0.135E+05 0.360E+04 ort(H,U,f) = 0.162E+05-0.672E+04-0.370E+04
CGA:   7     0.538636424306E+04   -0.13789E+05   -0.13589E+05  5064   0.345E+05 0.582E+04
 gam= 0.323 trial= 0.393  step= 0.225 mean= 0.393
 gam= 0.180 g(H,U,f)=  0.447E+04 0.164E+04 0.114E+03 ort(H,U,f) = 0.210E+03-0.464E+03 0.654E+02
CGA:   8     0.105891684397E+04   -0.43274E+04   -0.40972E+04  5064   0.622E+04-0.189E+03
 gam= 0.180 trial= 0.384  step= 0.282 mean= 0.384
 gam= 0.766 g(H,U,f)=  0.178E+04 0.271E+04 0.266E+03 ort(H,U,f) = 0.100E+03-0.361E+03-0.512E+02
CGA:   9     0.167364445489E+03   -0.89155E+03   -0.87212E+03  5064   0.476E+04-0.312E+03
 gam= 0.766 trial= 0.379  step= 0.211 mean= 0.379
 gam= 0.740 g(H,U,f)=  0.194E+04 0.152E+04 0.701E+02 ort(H,U,f) =-0.767E+02 0.101E+03 0.195E+02
CGA:  10    -0.152590572722E+03   -0.31996E+03   -0.47654E+03  5064   0.352E+04 0.439E+02
 gam= 0.740 trial= 0.371  step= 0.258 mean= 0.371
 gam= 0.343 g(H,U,f)=  0.103E+04 0.174E+03 0.853E+00 ort(H,U,f) =-0.161E+03 0.270E+03 0.417E+00
CGA:  11    -0.560178521761E+03   -0.40759E+03   -0.45930E+03  5064   0.121E+04 0.109E+03
 gam= 0.343 trial= 0.365  step= 0.363 mean= 0.365
 gam= 0.284 g(H,U,f)=  0.305E+03 0.395E+02 0.146E+00 ort(H,U,f) =-0.508E+02 0.752E+02 0.209E+00
CGA:  12    -0.786570052750E+03   -0.22639E+03   -0.22645E+03  5064   0.344E+03 0.246E+02
 gam= 0.284 trial= 0.365  step= 0.506 mean= 0.365
 gam= 0.470 g(H,U,f)=  0.151E+03 0.104E+02 0.453E-02 ort(H,U,f) =-0.163E+02 0.144E+02 0.721E-03
CGA:  13    -0.874796693477E+03   -0.88227E+02   -0.88861E+02  5064   0.162E+03-0.193E+01
 gam= 0.470 trial= 0.372  step= 0.507 mean= 0.372
 gam= 0.397 g(H,U,f)=  0.578E+02 0.640E+01 0.106E-01 ort(H,U,f) =-0.666E+01 0.887E+01 0.478E-01
CGA:  14    -0.915834777965E+03   -0.41038E+02   -0.40806E+02  5064   0.642E+02 0.226E+01
 gam= 0.397 trial= 0.379  step= 0.713 mean= 0.379
 gam= 0.903 g(H,U,f)=  0.535E+02 0.443E+01 0.998E-02 ort(H,U,f) =-0.313E+02 0.129E+01-0.263E-01
CGA:  15    -0.933142959227E+03   -0.17308E+02   -0.23203E+02  5064   0.579E+02-0.300E+02
 gam= 0.903 trial= 0.396  step= 0.353 mean= 0.396
 gam= 0.630 g(H,U,f)=  0.341E+02 0.242E+01 0.470E-14 ort(H,U,f) =-0.189E+01 0.183E+01-0.756E-13
CGA:  16    -0.938590035384E+03   -0.54471E+01   -0.54388E+01  5064   0.365E+02-0.574E-01
 gam= 0.630 trial= 0.393  step= 0.329 mean= 0.393
 gam= 0.367 g(H,U,f)=  0.125E+02 0.840E+00 0.807E-18 ort(H,U,f) =-0.253E-01-0.726E-01 0.322E-18
CGA:  17    -0.944591924060E+03   -0.60019E+01   -0.59938E+01  5064   0.134E+02-0.979E-01
 gam= 0.367 trial= 0.390  step= 0.438 mean= 0.390
 gam= 0.606 g(H,U,f)=  0.738E+01 0.725E+00 0.266E-15 ort(H,U,f) = 0.173E+00-0.251E+00 0.510E-14
CGA:  18    -0.947512000002E+03   -0.29201E+01   -0.29223E+01  5064   0.810E+01-0.777E-01
 gam= 0.606 trial= 0.393  step= 0.471 mean= 0.393
 gam= 0.632 g(H,U,f)=  0.451E+01 0.608E+00 0.428E-14 ort(H,U,f) =-0.164E+00 0.142E+00 0.571E-14
CGA:  19    -0.949409457601E+03   -0.18975E+01   -0.18988E+01  5064   0.512E+01-0.221E-01
 gam= 0.632 trial= 0.397  step= 0.431 mean= 0.397
 gam= 0.562 g(H,U,f)=  0.262E+01 0.250E+00 0.288E-14 ort(H,U,f) =-0.313E+00 0.328E+00 0.126E-13
CGA:  20    -0.950511072824E+03   -0.11016E+01   -0.11012E+01  5064   0.287E+01 0.148E-01
 gam= 0.562 trial= 0.398  step= 0.403 mean= 0.398
 gam= 0.533 g(H,U,f)=  0.142E+01 0.113E+00 0.279E-20 ort(H,U,f) =-0.159E+00 0.163E+00-0.954E-19
CGA:  21    -0.951091969296E+03   -0.58090E+00   -0.58088E+00  5064   0.153E+01 0.405E-02
 gam= 0.533 trial= 0.399  step= 0.418 mean= 0.399
 gam= 0.556 g(H,U,f)=  0.770E+00 0.824E-01 0.966E-14 ort(H,U,f) =-0.885E-01 0.882E-01-0.342E-13
CGA:  22    -0.951412744950E+03   -0.32078E+00   -0.32078E+00  5064   0.852E+00-0.260E-03
 gam= 0.556 trial= 0.400  step= 0.435 mean= 0.400
 gam= 0.516 g(H,U,f)=  0.400E+00 0.399E-01 0.159E-13 ort(H,U,f) =-0.619E-01 0.616E-01-0.291E-13
CGA:  23    -0.951597834598E+03   -0.18509E+00   -0.18510E+00  5064   0.440E+00-0.342E-03
 gam= 0.516 trial= 0.401  step= 0.458 mean= 0.401
 gam= 0.550 g(H,U,f)=  0.222E+00 0.193E-01 0.128E-12 ort(H,U,f) =-0.227E-01 0.226E-01 0.113E-12
CGA:  24    -0.951698445404E+03   -0.10061E+00   -0.10061E+00  5064   0.242E+00-0.102E-03
 gam= 0.550 trial= 0.404  step= 0.480 mean= 0.404
 gam= 0.604 g(H,U,f)=  0.133E+00 0.127E-01 0.140E-19 ort(H,U,f) =-0.516E-02 0.531E-02 0.228E-19
CGA:  25    -0.951756502239E+03   -0.58057E-01   -0.58049E-01  5064   0.146E+00 0.142E-03
 gam= 0.604 trial= 0.408  step= 0.437 mean= 0.408
 gam= 0.551 g(H,U,f)=  0.732E-01 0.727E-02 0.324E-14 ort(H,U,f) =-0.151E-02 0.160E-02 0.375E-14
CGA:  26    -0.951788425629E+03   -0.31923E-01   -0.31921E-01  5064   0.804E-01 0.922E-04
 gam= 0.551 trial= 0.409  step= 0.421 mean= 0.409
 gam= 0.570 g(H,U,f)=  0.413E-01 0.454E-02 0.100E-14 ort(H,U,f) =-0.855E-03 0.776E-03 0.495E-14
CGA:  27    -0.951805351599E+03   -0.16926E-01   -0.16926E-01  5064   0.459E-01-0.791E-04
 gam= 0.570 trial= 0.410  step= 0.428 mean= 0.410
 gam= 0.545 g(H,U,f)=  0.219E-01 0.309E-02 0.229E-16 ort(H,U,f) =-0.151E-02 0.135E-02 0.541E-16
CGA:  28    -0.951815154311E+03   -0.98027E-02   -0.98043E-02  5064   0.250E-01-0.159E-03
 gam= 0.545 trial= 0.411  step= 0.443 mean= 0.411
 gam= 0.522 g(H,U,f)=  0.116E-01 0.144E-02 0.186E-15 ort(H,U,f) =-0.181E-02 0.169E-02-0.191E-15
CGA:  29    -0.951820671900E+03   -0.55176E-02   -0.55196E-02  5064   0.130E-01-0.120E-03
 gam= 0.522 trial= 0.412  step= 0.475 mean= 0.412
 gam= 0.561 g(H,U,f)=  0.673E-02 0.584E-03 0.135E-19 ort(H,U,f) =-0.928E-03 0.881E-03-0.127E-18
CGA:  30    -0.951823751009E+03   -0.30791E-02   -0.30806E-02  5064   0.732E-02-0.468E-04
 gam= 0.561 trial= 0.416  step= 0.502 mean= 0.416
 gam= 0.595 g(H,U,f)=  0.403E-02 0.323E-03 0.867E-16 ort(H,U,f) =-0.359E-03 0.364E-03-0.164E-15
CGA:  31    -0.951825583088E+03   -0.18321E-02   -0.18319E-02  5064   0.435E-02 0.547E-05
 gam= 0.595 trial= 0.420  step= 0.478 mean= 0.420
 gam= 0.585 g(H,U,f)=  0.242E-02 0.130E-03 0.425E-15 ort(H,U,f) =-0.127E-03 0.154E-03-0.672E-16
CGA:  32    -0.951826625710E+03   -0.10426E-02   -0.10418E-02  5064   0.255E-02 0.274E-04
 gam= 0.585 trial= 0.423  step= 0.453 mean= 0.423
 gam= 0.578 g(H,U,f)=  0.140E-02 0.728E-04 0.156E-15 ort(H,U,f) = 0.348E-04-0.739E-05 0.251E-15
CGA:  33    -0.951827206057E+03   -0.58035E-03   -0.57994E-03  5064   0.147E-02 0.274E-04
 gam= 0.578 trial= 0.424  step= 0.436 mean= 0.424
 gam= 0.569 g(H,U,f)=  0.757E-03 0.808E-04 0.575E-16 ort(H,U,f) = 0.369E-04-0.173E-04 0.216E-15
CGA:  34    -0.951827530779E+03   -0.32472E-03   -0.32460E-03  5064   0.838E-03 0.196E-04
 gam= 0.569 trial= 0.425  step= 0.449 mean= 0.425
 gam= 0.548 g(H,U,f)=  0.402E-03 0.574E-04 0.106E-15 ort(H,U,f) =-0.127E-04 0.254E-04 0.425E-15
CGA:  35    -0.951827721378E+03   -0.19060E-03   -0.19045E-03  5064   0.459E-03 0.128E-04
 gam= 0.548 trial= 0.426  step= 0.457 mean= 0.426
 gam= 0.531 g(H,U,f)=  0.212E-03 0.319E-04 0.522E-15 ort(H,U,f) =-0.198E-04 0.287E-04 0.171E-14
CGA:  36    -0.951827828104E+03   -0.10673E-03   -0.10659E-03  5064   0.244E-03 0.890E-05
 gam= 0.531 trial= 0.428  step= 0.489 mean= 0.428
 gam= 0.000 g(H,U,f)=  0.126E-03 0.181E-04 0.136E-14 ort(H,U,f) =-0.126E-04 0.189E-04 0.606E-14
SDA:  37    -0.951827888994E+03   -0.60890E-04   -0.60698E-04  5064   0.144E-03 0.630E-05
 gam= 0.000 trial= 0.431  step= 0.883 mean= 0.431
 gam= 0.282 g(H,U,f)=  0.345E-04 0.604E-05 0.222E-17 ort(H,U,f) =-0.722E-05 0.517E-05 0.347E-17
CGA:  38    -0.951827952079E+03   -0.63085E-04   -0.63544E-04  5064   0.406E-04-0.204E-05
 gam= 0.282 trial= 0.453  step= 0.921 mean= 0.453
 gam= 0.477 g(H,U,f)=  0.180E-04 0.139E-05 0.516E-18 ort(H,U,f) =-0.743E-05 0.364E-05 0.158E-17
CGA:  39    -0.951827969612E+03   -0.17533E-04   -0.18418E-04  5064   0.194E-04-0.379E-05
 gam= 0.477 trial= 0.477  step= 0.604 mean= 0.477
 gam= 0.293 g(H,U,f)=  0.535E-05 0.318E-06 0.137E-17 ort(H,U,f) =-0.250E-05 0.123E-05 0.821E-17
CGA:  40    -0.951827974830E+03   -0.52184E-05   -0.52984E-05  5064   0.567E-05-0.126E-05
 gam= 0.293 trial= 0.483  step= 0.681 mean= 0.483
 final diagonalization
   1 F= -.95182797E+03 E0= -.95182797E+03  d E =-.363667E-21
 writing wavefunctions
Warning: ieee_invalid is signaling
Warning: ieee_divide_by_zero is signaling
Warning: ieee_underflow is signaling
Warning: ieee_inexact is signaling
FORTRAN STOP
Warning: ieee_invalid is signaling
Warning: ieee_divide_by_zero is signaling
Warning: ieee_underflow is signaling
Warning: ieee_inexact is signaling
FORTRAN STOP
Warning: ieee_invalid is signaling
Warning: ieee_divide_by_zero is signaling
Warning: ieee_underflow is signaling
Warning: ieee_inexact is signaling
FORTRAN STOP
Warning: ieee_invalid is signaling
Warning: ieee_divide_by_zero is signaling
Warning: ieee_underflow is signaling
Warning: ieee_inexact is signaling
FORTRAN STOP
