       N       E                     dE             d eps       ncg     rms          ort
DAV:   1    -0.182950812291E+05   -0.18295E+05   -0.54200E+05  5064   0.746E+03
DAV:   2    -0.624002913757E+05   -0.44105E+05   -0.42804E+05  5064   0.120E+03
DAV:   3    -0.669422327853E+05   -0.45419E+04   -0.40525E+04  5064   0.350E+02
DAV:   4    -0.674742497096E+05   -0.53202E+03   -0.45437E+03  5064   0.103E+02
DAV:   5    -0.373706041688E+05    0.30104E+05   -0.72335E+02  5064   0.533E+01
SDA:   6     0.191748823814E+05    0.56545E+05   -0.72335E+02  5064   0.107E+06 0.000E+00
CGA:   7     0.538636424306E+04   -0.13789E+05   -0.13589E+05  5064   0.345E+05 0.582E+04
CGA:   8     0.105891684397E+04   -0.43274E+04   -0.40972E+04  5064   0.622E+04-0.189E+03
CGA:   9     0.167364445489E+03   -0.89155E+03   -0.87212E+03  5064   0.476E+04-0.312E+03
CGA:  10    -0.152590572722E+03   -0.31996E+03   -0.47654E+03  5064   0.352E+04 0.439E+02
CGA:  11    -0.560178521761E+03   -0.40759E+03   -0.45930E+03  5064   0.121E+04 0.109E+03
CGA:  12    -0.786570052750E+03   -0.22639E+03   -0.22645E+03  5064   0.344E+03 0.246E+02
CGA:  13    -0.874796693477E+03   -0.88227E+02   -0.88861E+02  5064   0.162E+03-0.193E+01
CGA:  14    -0.915834777965E+03   -0.41038E+02   -0.40806E+02  5064   0.642E+02 0.226E+01
CGA:  15    -0.933142959227E+03   -0.17308E+02   -0.23203E+02  5064   0.579E+02-0.300E+02
CGA:  16    -0.938590035384E+03   -0.54471E+01   -0.54388E+01  5064   0.365E+02-0.574E-01
CGA:  17    -0.944591924060E+03   -0.60019E+01   -0.59938E+01  5064   0.134E+02-0.979E-01
CGA:  18    -0.947512000002E+03   -0.29201E+01   -0.29223E+01  5064   0.810E+01-0.777E-01
CGA:  19    -0.949409457601E+03   -0.18975E+01   -0.18988E+01  5064   0.512E+01-0.221E-01
CGA:  20    -0.950511072824E+03   -0.11016E+01   -0.11012E+01  5064   0.287E+01 0.148E-01
CGA:  21    -0.951091969296E+03   -0.58090E+00   -0.58088E+00  5064   0.153E+01 0.405E-02
CGA:  22    -0.951412744950E+03   -0.32078E+00   -0.32078E+00  5064   0.852E+00-0.260E-03
CGA:  23    -0.951597834598E+03   -0.18509E+00   -0.18510E+00  5064   0.440E+00-0.342E-03
CGA:  24    -0.951698445404E+03   -0.10061E+00   -0.10061E+00  5064   0.242E+00-0.102E-03
CGA:  25    -0.951756502239E+03   -0.58057E-01   -0.58049E-01  5064   0.146E+00 0.142E-03
CGA:  26    -0.951788425629E+03   -0.31923E-01   -0.31921E-01  5064   0.804E-01 0.922E-04
CGA:  27    -0.951805351599E+03   -0.16926E-01   -0.16926E-01  5064   0.459E-01-0.791E-04
CGA:  28    -0.951815154311E+03   -0.98027E-02   -0.98043E-02  5064   0.250E-01-0.159E-03
CGA:  29    -0.951820671900E+03   -0.55176E-02   -0.55196E-02  5064   0.130E-01-0.120E-03
CGA:  30    -0.951823751009E+03   -0.30791E-02   -0.30806E-02  5064   0.732E-02-0.468E-04
CGA:  31    -0.951825583088E+03   -0.18321E-02   -0.18319E-02  5064   0.435E-02 0.547E-05
CGA:  32    -0.951826625710E+03   -0.10426E-02   -0.10418E-02  5064   0.255E-02 0.274E-04
CGA:  33    -0.951827206057E+03   -0.58035E-03   -0.57994E-03  5064   0.147E-02 0.274E-04
CGA:  34    -0.951827530779E+03   -0.32472E-03   -0.32460E-03  5064   0.838E-03 0.196E-04
CGA:  35    -0.951827721378E+03   -0.19060E-03   -0.19045E-03  5064   0.459E-03 0.128E-04
CGA:  36    -0.951827828104E+03   -0.10673E-03   -0.10659E-03  5064   0.244E-03 0.890E-05
SDA:  37    -0.951827888994E+03   -0.60890E-04   -0.60698E-04  5064   0.144E-03 0.630E-05
CGA:  38    -0.951827952079E+03   -0.63085E-04   -0.63544E-04  5064   0.406E-04-0.204E-05
CGA:  39    -0.951827969612E+03   -0.17533E-04   -0.18418E-04  5064   0.194E-04-0.379E-05
CGA:  40    -0.951827974830E+03   -0.52184E-05   -0.52984E-05  5064   0.567E-05-0.126E-05
   1 F= -.95182797E+03 E0= -.95182797E+03  d E =-.363667E-21
