<?xml version="1.0" encoding="ISO-8859-1"?>
<modeling>
 <generator>
  <i name="program" type="string">vasp </i>
  <i name="version" type="string">6.4.2  </i>
  <i name="subversion" type="string">20Jul23 (build Nov 12 2023 22:16:35) complex                          parallel </i>
  <i name="platform" type="string">LinuxNV </i>
  <i name="date" type="string">2025 03 21 </i>
  <i name="time" type="string">17:38:57 </i>
 </generator>
 <incar>
  <i type="int" name="ISTART">     0</i>
  <i type="string" name="PREC">Normal</i>
  <i type="string" name="ALGO">All</i>
  <i type="int" name="ISPIN">     1</i>
  <i type="int" name="ICHARG">     0</i>
  <i type="int" name="NELM">   500</i>
  <i type="int" name="IBRION">    -1</i>
  <i name="EDIFF">      0.00001000</i>
  <i name="EDIFFG">     -0.00500000</i>
  <i type="int" name="NSW">     0</i>
  <i type="int" name="ISIF">     2</i>
  <i name="ENCUT">    450.00000000</i>
  <i name="NELECT">   1056.00000000</i>
  <i type="string" name="LREAL">Auto</i>
  <i type="logical" name="LPLANE"> T  </i>
  <i name="TIME">      0.40000000</i>
  <i type="int" name="ISMEAR">     0</i>
  <i name="SIGMA">      0.05000000</i>
  <i type="logical" name="LWAVE"> T  </i>
  <i type="logical" name="LCHARG"> T  </i>
  <i name="HFSCREEN">      0.20000000</i>
  <i type="logical" name="LHFCALC"> T  </i>
  <i type="int" name="LMAXFOCK">     4</i>
  <i name="AEXX">      0.32000000</i>
  <i type="string" name="PRECFOCK">Fast</i>
 </incar>
 <primitive_cell>
  <structure name="primitive_cell" >
   <crystal>
    <varray name="basis" >
     <v>       0.00000000      12.28047342       0.00000000 </v>
     <v>       9.14270205       0.00000000       0.00000000 </v>
     <v>       0.00000000      -2.76826177     -11.30069772 </v>
    </varray>
    <i name="volume">   1268.80515525 </i>
    <varray name="rec_basis" >
     <v>       0.00000000       0.08143009      -0.01994742 </v>
     <v>       0.10937686      -0.00000000       0.00000000 </v>
     <v>       0.00000000       0.00000000      -0.08849011 </v>
    </varray>
   </crystal>
   <varray name="positions" >
    <v>       0.65966986       0.99965793       0.15652540 </v>
    <v>       0.65947135       0.99994231       0.65695185 </v>
    <v>       0.65966986       0.33367541       0.15652540 </v>
    <v>       0.65947135       0.33339102       0.65695185 </v>
    <v>       0.65885139       0.66666667       0.15649641 </v>
    <v>       0.65888488       0.66666667       0.65725114 </v>
    <v>       0.84469705       0.16666667       0.34651624 </v>
    <v>       0.84172716       0.16666667       0.84421369 </v>
    <v>       0.84111341       0.49986379       0.34310889 </v>
    <v>       0.84150970       0.49970353       0.84377932 </v>
    <v>       0.84111341       0.83346955       0.34310889 </v>
    <v>       0.84150970       0.83362980       0.84377932 </v>
    <v>       0.59294382       0.16666667       0.39714238 </v>
    <v>       0.59084495       0.16666667       0.89756138 </v>
    <v>       0.59186707       0.49971957       0.39771793 </v>
    <v>       0.59014056       0.50000049       0.89704278 </v>
    <v>       0.59186707       0.83361376       0.39771793 </v>
    <v>       0.59014056       0.83333285       0.89704278 </v>
    <v>       0.90953937       0.00008695       0.10397696 </v>
    <v>       0.90810845       0.99999735       0.60041610 </v>
    <v>       0.90953937       0.33324639       0.10397696 </v>
    <v>       0.90810845       0.33333598       0.60041610 </v>
    <v>       0.90964917       0.66666667       0.10315864 </v>
    <v>       0.90856808       0.66666667       0.60151854 </v>
    <v>       0.15912355       0.16666667       0.15919826 </v>
    <v>       0.15817751       0.16666667       0.65218156 </v>
    <v>       0.16006257       0.49933097       0.15790456 </v>
    <v>       0.15899385       0.49941284       0.65578680 </v>
    <v>       0.16006257       0.83400237       0.15790456 </v>
    <v>       0.15899385       0.83392049       0.65578680 </v>
    <v>       0.34114102       0.99982311       0.34391490 </v>
    <v>       0.34002123       0.00024854       0.84273670 </v>
    <v>       0.34114102       0.33351023       0.34391490 </v>
    <v>       0.34002123       0.33308479       0.84273670 </v>
    <v>       0.34232030       0.66666667       0.34329393 </v>
    <v>       0.34038685       0.66666667       0.84322049 </v>
    <v>       0.08589534       0.00461576       0.39623162 </v>
    <v>       0.09167034       0.00038715       0.89812388 </v>
    <v>       0.08589534       0.32871757       0.39623162 </v>
    <v>       0.09167034       0.33294618       0.89812388 </v>
    <v>       0.09179779       0.66666667       0.39804030 </v>
    <v>       0.09157614       0.66666667       0.89834576 </v>
    <v>       0.40873966       0.16666667       0.10246954 </v>
    <v>       0.40919631       0.16666667       0.60274234 </v>
    <v>       0.40945451       0.49974186       0.10227216 </v>
    <v>       0.40906521       0.49991829       0.60292105 </v>
    <v>       0.40945451       0.83359147       0.10227216 </v>
    <v>       0.40906521       0.83341504       0.60292105 </v>
    <v>       0.99647756       0.16666667       0.12014493 </v>
    <v>       0.99563613       0.16666667       0.62991903 </v>
    <v>       0.99720220       0.50014101       0.12716020 </v>
    <v>       0.99612914       0.49996172       0.62718848 </v>
    <v>       0.99720220       0.83319232       0.12716020 </v>
    <v>       0.99612914       0.83337161       0.62718848 </v>
    <v>       0.50449613       0.00045897       0.37282473 </v>
    <v>       0.50305687       0.00030056       0.87239070 </v>
    <v>       0.50449613       0.33287436       0.37282473 </v>
    <v>       0.50305687       0.33303277       0.87239070 </v>
    <v>       0.50466493       0.66666667       0.37314377 </v>
    <v>       0.50287256       0.66666667       0.87195978 </v>
    <v>       0.67452915       0.16666667       0.28030889 </v>
    <v>       0.67293331       0.16666667       0.78099022 </v>
    <v>       0.67129814       0.50127366       0.27942104 </v>
    <v>       0.67271232       0.50014284       0.78097955 </v>
    <v>       0.67129814       0.83205967       0.27942104 </v>
    <v>       0.67271232       0.83319050       0.78097955 </v>
    <v>       0.82484952       0.99457355       0.21701350 </v>
    <v>       0.82756983       0.99963185       0.71956657 </v>
    <v>       0.82484952       0.33875979       0.21701350 </v>
    <v>       0.82756983       0.33370149       0.71956657 </v>
    <v>       0.82689440       0.66666667       0.21886107 </v>
    <v>       0.82757010       0.66666667       0.71958544 </v>
    <v>       0.82461258       0.99613296       0.44658061 </v>
    <v>       0.83262691       0.99965705       0.94628100 </v>
    <v>       0.82461258       0.33720037       0.44658061 </v>
    <v>       0.83262691       0.33367628       0.94628100 </v>
    <v>       0.83015472       0.66666667       0.44554510 </v>
    <v>       0.83309737       0.66666667       0.94611764 </v>
    <v>       0.66768525       0.16666667       0.05373473 </v>
    <v>       0.66698847       0.16666667       0.55482048 </v>
    <v>       0.66616681       0.50064743       0.05314186 </v>
    <v>       0.66648518       0.50049918       0.55499492 </v>
    <v>       0.66616681       0.83268590       0.05314186 </v>
    <v>       0.66648518       0.83283416       0.55499492 </v>
    <v>       0.49668067       0.00042861       0.12689283 </v>
    <v>       0.49667089       0.99999942       0.62843033 </v>
    <v>       0.49668067       0.33290472       0.12689283 </v>
    <v>       0.49667089       0.33333392       0.62843033 </v>
    <v>       0.49612460       0.66666667       0.12633598 </v>
    <v>       0.49636781       0.66666667       0.62866777 </v>
    <v>       0.00390749       0.16666667       0.87223904 </v>
    <v>       0.00339818       0.50215896       0.37368828 </v>
    <v>       0.00416937       0.49993292       0.87307044 </v>
    <v>       0.00339818       0.83117437       0.37368828 </v>
    <v>       0.00416937       0.83340041       0.87307044 </v>
    <v>       0.17441018       0.99762295       0.28085179 </v>
    <v>       0.17245188       0.00004744       0.78030698 </v>
    <v>       0.17441018       0.33571038       0.28085179 </v>
    <v>       0.17245188       0.33328590       0.78030698 </v>
    <v>       0.17394229       0.66666667       0.28117686 </v>
    <v>       0.17242158       0.66666667       0.78053069 </v>
    <v>       0.32832678       0.16666667       0.22005698 </v>
    <v>       0.32729745       0.16666667       0.71941223 </v>
    <v>       0.32907498       0.50064153       0.21982069 </v>
    <v>       0.32802588       0.50030584       0.72030684 </v>
    <v>       0.32907498       0.83269180       0.21982069 </v>
    <v>       0.32802588       0.83302749       0.72030684 </v>
    <v>       0.33386118       0.16666667       0.44617638 </v>
    <v>       0.33220465       0.16666667       0.94576399 </v>
    <v>       0.33447199       0.50057613       0.44614619 </v>
    <v>       0.33219228       0.49981417       0.94584838 </v>
    <v>       0.33447199       0.83275720       0.44614619 </v>
    <v>       0.33219228       0.83351916       0.94584838 </v>
    <v>       0.16904370       0.00028269       0.05452935 </v>
    <v>       0.17029736       0.99762766       0.55400962 </v>
    <v>       0.16904370       0.33305064       0.05452935 </v>
    <v>       0.17029736       0.33570567       0.55400962 </v>
    <v>       0.16849507       0.66666667       0.05493625 </v>
    <v>       0.16922284       0.66666667       0.55479615 </v>
    <v>       0.99920600       0.16666667       0.36971450 </v>
   </varray>
  </structure>
  <varray name="primitive_index" >
   <v type="int" >        1 </v>
   <v type="int" >        2 </v>
   <v type="int" >        3 </v>
   <v type="int" >        4 </v>
   <v type="int" >        5 </v>
   <v type="int" >        6 </v>
   <v type="int" >        7 </v>
   <v type="int" >        8 </v>
   <v type="int" >        9 </v>
   <v type="int" >       10 </v>
   <v type="int" >       11 </v>
   <v type="int" >       12 </v>
   <v type="int" >       13 </v>
   <v type="int" >       14 </v>
   <v type="int" >       15 </v>
   <v type="int" >       16 </v>
   <v type="int" >       17 </v>
   <v type="int" >       18 </v>
   <v type="int" >       19 </v>
   <v type="int" >       20 </v>
   <v type="int" >       21 </v>
   <v type="int" >       22 </v>
   <v type="int" >       23 </v>
   <v type="int" >       24 </v>
   <v type="int" >       25 </v>
   <v type="int" >       26 </v>
   <v type="int" >       27 </v>
   <v type="int" >       28 </v>
   <v type="int" >       29 </v>
   <v type="int" >       30 </v>
   <v type="int" >       31 </v>
   <v type="int" >       32 </v>
   <v type="int" >       33 </v>
   <v type="int" >       34 </v>
   <v type="int" >       35 </v>
   <v type="int" >       36 </v>
   <v type="int" >       37 </v>
   <v type="int" >       38 </v>
   <v type="int" >       39 </v>
   <v type="int" >       40 </v>
   <v type="int" >       41 </v>
   <v type="int" >       42 </v>
   <v type="int" >       43 </v>
   <v type="int" >       44 </v>
   <v type="int" >       45 </v>
   <v type="int" >       46 </v>
   <v type="int" >       47 </v>
   <v type="int" >       48 </v>
   <v type="int" >       49 </v>
   <v type="int" >       50 </v>
   <v type="int" >       51 </v>
   <v type="int" >       52 </v>
   <v type="int" >       53 </v>
   <v type="int" >       54 </v>
   <v type="int" >       55 </v>
   <v type="int" >       56 </v>
   <v type="int" >       57 </v>
   <v type="int" >       58 </v>
   <v type="int" >       59 </v>
   <v type="int" >       60 </v>
   <v type="int" >       61 </v>
   <v type="int" >       62 </v>
   <v type="int" >       63 </v>
   <v type="int" >       64 </v>
   <v type="int" >       65 </v>
   <v type="int" >       66 </v>
   <v type="int" >       67 </v>
   <v type="int" >       68 </v>
   <v type="int" >       69 </v>
   <v type="int" >       70 </v>
   <v type="int" >       71 </v>
   <v type="int" >       72 </v>
   <v type="int" >       73 </v>
   <v type="int" >       74 </v>
   <v type="int" >       75 </v>
   <v type="int" >       76 </v>
   <v type="int" >       77 </v>
   <v type="int" >       78 </v>
   <v type="int" >       79 </v>
   <v type="int" >       80 </v>
   <v type="int" >       81 </v>
   <v type="int" >       82 </v>
   <v type="int" >       83 </v>
   <v type="int" >       84 </v>
   <v type="int" >       85 </v>
   <v type="int" >       86 </v>
   <v type="int" >       87 </v>
   <v type="int" >       88 </v>
   <v type="int" >       89 </v>
   <v type="int" >       90 </v>
   <v type="int" >       91 </v>
   <v type="int" >       92 </v>
   <v type="int" >       93 </v>
   <v type="int" >       94 </v>
   <v type="int" >       95 </v>
   <v type="int" >       96 </v>
   <v type="int" >       97 </v>
   <v type="int" >       98 </v>
   <v type="int" >       99 </v>
   <v type="int" >      100 </v>
   <v type="int" >      101 </v>
   <v type="int" >      102 </v>
   <v type="int" >      103 </v>
   <v type="int" >      104 </v>
   <v type="int" >      105 </v>
   <v type="int" >      106 </v>
   <v type="int" >      107 </v>
   <v type="int" >      108 </v>
   <v type="int" >      109 </v>
   <v type="int" >      110 </v>
   <v type="int" >      111 </v>
   <v type="int" >      112 </v>
   <v type="int" >      113 </v>
   <v type="int" >      114 </v>
   <v type="int" >      115 </v>
   <v type="int" >      116 </v>
   <v type="int" >      117 </v>
   <v type="int" >      118 </v>
   <v type="int" >      119 </v>
   <v type="int" >      120 </v>
  </varray>
 </primitive_cell>
 <kpoints>
  <generation param="Gamma">
   <v type="int" name="divisions">       2        2        2 </v>
   <v name="usershift">      0.00000000       0.00000000       0.00000000 </v>
   <v name="genvec1">      0.50000000       0.00000000       0.00000000 </v>
   <v name="genvec2">      0.00000000       0.50000000       0.00000000 </v>
   <v name="genvec3">      0.00000000       0.00000000       0.50000000 </v>
   <v name="shift">      0.00000000       0.00000000       0.00000000 </v>
  </generation>
  <varray name="kpointlist" >
   <v>       0.00000000       0.00000000       0.00000000 </v>
   <v>       0.50000000       0.00000000       0.00000000 </v>
   <v>       0.00000000       0.50000000       0.00000000 </v>
   <v>       0.50000000       0.50000000       0.00000000 </v>
   <v>       0.00000000       0.00000000       0.50000000 </v>
   <v>       0.50000000       0.00000000       0.50000000 </v>
   <v>       0.00000000       0.50000000       0.50000000 </v>
   <v>       0.50000000       0.50000000       0.50000000 </v>
  </varray>
  <varray name="weights" >
   <v>       0.12500000 </v>
   <v>       0.12500000 </v>
   <v>       0.12500000 </v>
   <v>       0.12500000 </v>
   <v>       0.12500000 </v>
   <v>       0.12500000 </v>
   <v>       0.12500000 </v>
   <v>       0.12500000 </v>
  </varray>
 </kpoints>
 <parameters>
  <separator name="general" >
   <i type="string" name="SYSTEM">unknown system</i>
   <i type="logical" name="LCOMPAT"> F  </i>
  </separator>
  <separator name="electronic" >
   <i type="string" name="PREC">normal</i>
   <i name="ENMAX">    450.00000000</i>
   <i name="ENAUG">    627.11200000</i>
   <i name="EDIFF">      0.00001000</i>
   <i type="int" name="IALGO">    58</i>
   <i type="int" name="IWAVPR">    10</i>
   <i type="int" name="NBANDS">   633</i>
   <i type="int" name="NBANDSLOW">    -1</i>
   <i type="int" name="NBANDSHIGH">    -1</i>
   <i name="NELECT">   1056.00000000</i>
   <i type="int" name="TURBO">     0</i>
   <i type="int" name="IRESTART">     0</i>
   <i type="int" name="NREBOOT">     0</i>
   <i type="int" name="NMIN">     0</i>
   <i name="EREF">      0.00000000</i>
   <separator name="electronic smearing" >
    <i type="int" name="ISMEAR">     0</i>
    <i name="SIGMA">      0.05000000</i>
    <i name="KSPACING">      0.50000000</i>
    <i type="logical" name="KGAMMA"> T  </i>
    <i type="logical" name="KBLOWUP"> T  </i>
   </separator>
   <separator name="electronic projectors" >
    <i type="logical" name="LREAL"> T  </i>
    <v name="ROPT">     -0.00050000     -0.00050000     -0.00050000</v>
    <i type="int" name="LMAXPAW">  -100</i>
    <i type="int" name="LMAXMIX">     2</i>
    <i type="logical" name="NLSPLINE"> F  </i>
   </separator>
   <separator name="electronic startup" >
    <i type="int" name="ISTART">     0</i>
    <i type="int" name="ICHARG">     0</i>
    <i type="int" name="INIWAV">     1</i>
   </separator>
   <separator name="electronic spin" >
    <i type="int" name="ISPIN">     1</i>
    <i type="logical" name="LNONCOLLINEAR"> F  </i>
    <v name="MAGMOM">      1.00000000      1.00000000      1.00000000      1.00000000      1.00000000      1.00000000      1.00000000      1.00000000      1.00000000      1.00000000      1.00000000      1.00000000      1.00000000      1.00000000      1.00000000      1.00000000      1.00000000      1.00000000      1.00000000      1.00000000
      1.00000000      1.00000000      1.00000000      1.00000000      1.00000000      1.00000000      1.00000000      1.00000000      1.00000000      1.00000000      1.00000000      1.00000000      1.00000000      1.00000000      1.00000000      1.00000000      1.00000000      1.00000000      1.00000000      1.00000000
      1.00000000      1.00000000      1.00000000      1.00000000      1.00000000      1.00000000      1.00000000      1.00000000      1.00000000      1.00000000      1.00000000      1.00000000      1.00000000      1.00000000      1.00000000      1.00000000      1.00000000      1.00000000      1.00000000      1.00000000
      1.00000000      1.00000000      1.00000000      1.00000000      1.00000000      1.00000000      1.00000000      1.00000000      1.00000000      1.00000000      1.00000000      1.00000000      1.00000000      1.00000000      1.00000000      1.00000000      1.00000000      1.00000000      1.00000000      1.00000000
      1.00000000      1.00000000      1.00000000      1.00000000      1.00000000      1.00000000      1.00000000      1.00000000      1.00000000      1.00000000      1.00000000      1.00000000      1.00000000      1.00000000      1.00000000      1.00000000      1.00000000      1.00000000      1.00000000      1.00000000
      1.00000000      1.00000000      1.00000000      1.00000000      1.00000000      1.00000000      1.00000000      1.00000000      1.00000000      1.00000000      1.00000000      1.00000000      1.00000000      1.00000000      1.00000000      1.00000000      1.00000000      1.00000000      1.00000000      1.00000000
</v>
    <i name="NUPDOWN">     -1.00000000</i>
    <i type="logical" name="LSORBIT"> F  </i>
    <v name="SAXIS">      0.00000000      0.00000000      1.00000000</v>
    <i type="logical" name="LSPIRAL"> F  </i>
    <v name="QSPIRAL">      0.00000000      0.00000000      0.00000000</v>
    <i type="logical" name="LZEROZ"> F  </i>
   </separator>
   <separator name="electronic exchange-correlation" >
    <i type="logical" name="LASPH"> F  </i>
    <i type="logical" name="LMETAGGA"> F  </i>
   </separator>
   <separator name="electronic convergence" >
    <i type="int" name="NELM">   500</i>
    <i type="int" name="NELMDL">    -5</i>
    <i type="int" name="NELMIN">     2</i>
    <i name="ENINI">    450.00000000</i>
    <separator name="electronic convergence detail" >
     <i type="logical" name="LDIAG"> T  </i>
     <i type="logical" name="LSUBROT"> F  </i>
     <i name="WEIMIN">      0.00000000</i>
     <i name="EBREAK">      0.00000000</i>
     <i name="DEPER">      0.30000000</i>
     <i type="int" name="NRMM">     4</i>
     <i name="TIME">      0.40000000</i>
    </separator>
   </separator>
   <separator name="electronic mixer" >
    <i name="AMIX">      0.40000000</i>
    <i name="BMIX">      1.00000000</i>
    <i name="AMIN">      0.10000000</i>
    <i name="AMIX_MAG">      1.60000000</i>
    <i name="BMIX_MAG">      1.00000000</i>
    <separator name="electronic mixer details" >
     <i type="int" name="IMIX">     4</i>
     <i type="logical" name="MIXFIRST"> F  </i>
     <i type="int" name="MAXMIX">   -45</i>
     <i name="WC">    100.00000000</i>
     <i type="int" name="INIMIX">     1</i>
     <i type="int" name="MIXPRE">     1</i>
     <i type="int" name="MREMOVE">     5</i>
    </separator>
   </separator>
   <separator name="electronic dipolcorrection" >
    <i type="logical" name="LDIPOL"> F  </i>
    <i type="logical" name="LMONO"> F  </i>
    <i type="int" name="IDIPOL">     0</i>
    <i name="EPSILON">      1.00000000</i>
    <v name="DIPOL">   -100.00000000   -100.00000000   -100.00000000</v>
    <i name="EFIELD">      0.00000000</i>
   </separator>
  </separator>
  <separator name="grids" >
   <i type="int" name="NGX">    64</i>
   <i type="int" name="NGY">    48</i>
   <i type="int" name="NGZ">    60</i>
   <i type="int" name="NGXF">   128</i>
   <i type="int" name="NGYF">    96</i>
   <i type="int" name="NGZF">   120</i>
   <i type="logical" name="ADDGRID"> F  </i>
  </separator>
  <separator name="ionic" >
   <i type="int" name="NSW">     0</i>
   <i type="int" name="IBRION">    -1</i>
   <i type="int" name="MDALGO">     0</i>
   <i type="int" name="ISIF">     2</i>
   <i name="PSTRESS">      0.00000000</i>
   <i name="EDIFFG">     -0.00500000</i>
   <i type="int" name="NFREE">     0</i>
   <i name="POTIM">      0.50000000</i>
   <i name="SMASS">     -3.00000000</i>
   <i name="SCALEE">      1.00000000</i>
  </separator>
  <separator name="ionic md" >
   <i name="TEBEG">      0.00010000</i>
   <i name="TEEND">      0.00010000</i>
   <i type="int" name="NBLOCK">     1</i>
   <i type="int" name="KBLOCK">     1</i>
   <i type="int" name="NPACO">   256</i>
   <i name="APACO">     10.00000000</i>
  </separator>
  <separator name="symmetry" >
   <i type="int" name="ISYM">     3</i>
   <i name="SYMPREC">      0.00001000</i>
  </separator>
  <separator name="dos" >
   <i type="int" name="LORBIT">     0</i>
   <v name="RWIGS">     -1.00000000     -1.00000000     -1.00000000</v>
   <i type="int" name="NEDOS">   301</i>
   <i name="EMIN">     10.00000000</i>
   <i name="EMAX">    -10.00000000</i>
   <i name="EFERMI">      0.00000000</i>
  </separator>
  <separator name="writing" >
   <i type="int" name="NWRITE">     2</i>
   <i type="logical" name="LWAVE"> T  </i>
   <i type="logical" name="LDOWNSAMPLE"> F  </i>
   <i type="logical" name="LCHARG"> T  </i>
   <i type="logical" name="LPARD"> F  </i>
   <i type="logical" name="LVTOT"> F  </i>
   <i type="logical" name="LVHAR"> F  </i>
   <i type="logical" name="LELF"> F  </i>
   <i type="logical" name="LOPTICS"> F  </i>
   <v name="STM">      0.00000000      0.00000000      0.00000000      0.00000000      0.00000000      0.00000000      0.00000000</v>
  </separator>
  <separator name="performance" >
   <i type="int" name="NPAR">     1</i>
   <i type="int" name="NSIM">     4</i>
   <i type="int" name="NBLK">    -1</i>
   <i type="logical" name="LPLANE"> T  </i>
   <i type="logical" name="LSCALAPACK"> T  </i>
   <i type="logical" name="LSCAAWARE"> F  </i>
   <i type="logical" name="LSCALU"> F  </i>
   <i type="logical" name="LASYNC"> F  </i>
   <i type="logical" name="LORBITALREAL"> F  </i>
  </separator>
  <separator name="miscellaneous" >
   <i type="int" name="IDIOT">     3</i>
   <i type="int" name="PHON_NSTRUCT">    -1</i>
   <i type="logical" name="LMUSIC"> F  </i>
   <v name="POMASS">     69.72300000     16.00000000     14.00100000</v>
   <v name="DARWINR">      0.00000000      0.00000000      0.00000000</v>
   <v name="DARWINV">      1.00000000      1.00000000      1.00000000</v>
   <i type="logical" name="LCORR"> T  </i>
  </separator>
  <i type="logical" name="GGA_COMPAT"> T  </i>
  <i type="logical" name="LBERRY"> F  </i>
  <i type="int" name="ICORELEVEL">     0</i>
  <i type="logical" name="LDAU"> F  </i>
  <i type="int" name="I_CONSTRAINED_M">     0</i>
  <separator name="electronic exchange-correlation" >
   <i type="string" name="GGA">--</i>
   <i type="int" name="VOSKOWN">     0</i>
   <i type="logical" name="LHFCALC"> T  </i>
   <i type="string" name="PRECFOCK">fast</i>
   <i type="logical" name="LSYMGRAD"> F  </i>
   <i type="logical" name="LHFONE"> F  </i>
   <i type="logical" name="LRHFCALC"> F  </i>
   <i type="logical" name="LTHOMAS"> F  </i>
   <i type="logical" name="LMODELHF"> F  </i>
   <i type="logical" name="LFOCKACE"> T  </i>
   <i name="ENCUT4O">     -1.00000000</i>
   <i type="int" name="EXXOEP">     0</i>
   <i type="int" name="FOURORBIT">     0</i>
   <i name="AEXX">      0.32000000</i>
   <i name="HFALPHA">     -1.00000000</i>
   <i name="MCALPHA">      0.00000000</i>
   <i name="ALDAX">      0.68000000</i>
   <i name="AGGAX">      0.68000000</i>
   <i name="ALDAC">      1.00000000</i>
   <i name="AGGAC">      1.00000000</i>
   <i type="int" name="NKREDX">     1</i>
   <i type="int" name="NKREDY">     1</i>
   <i type="int" name="NKREDZ">     1</i>
   <i type="logical" name="SHIFTRED"> F  </i>
   <i type="logical" name="ODDONLY"> F  </i>
   <i type="logical" name="EVENONLY"> F  </i>
   <i type="int" name="LMAXFOCK">     4</i>
   <i type="int" name="NMAXFOCKAE">     1</i>
   <i type="logical" name="LFOCKAEDFT"> F  </i>
   <i name="HFSCREEN">      0.20000000</i>
   <i name="HFSCREENC">      0.20000000</i>
   <i type="int" name="NBANDSGWLOW">     1</i>
  </separator>
  <separator name="vdW DFT" >
   <i type="logical" name="LUSE_VDW"> F  </i>
   <i type="int" name="IVDW_NL">     1</i>
   <i type="logical" name="LSPIN_VDW"> F  </i>
   <i name="Zab_VDW">     -0.84910000</i>
   <i name="PARAM1">      0.12340000</i>
   <i name="PARAM2">      1.00000000</i>
   <i name="PARAM3">      0.00000000</i>
  </separator>
  <separator name="model GW" >
   <i type="int" name="MODEL_GW">     0</i>
   <i name="MODEL_EPS0">      6.34402578</i>
   <i name="MODEL_ALPHA">      1.00000000</i>
  </separator>
  <separator name="linear response parameters" >
   <i type="logical" name="LEPSILON"> F  </i>
   <i type="logical" name="LRPA"> F  </i>
   <i type="logical" name="LNABLA"> F  </i>
   <i type="logical" name="LVEL"> F  </i>
   <i name="CSHIFT">      0.10000000</i>
   <i name="OMEGAMAX">     -1.00000000</i>
   <i name="DEG_THRESHOLD">      0.00200000</i>
   <i name="RTIME">     -0.10000000</i>
   <i name="WPLASMAI">      0.00000000</i>
   <v name="DFIELD">      0.00000000      0.00000000      0.00000000</v>
   <v name="WPLASMA">      0.00000000      0.00000000      0.00000000      0.00000000      0.00000000      0.00000000      0.00000000      0.00000000      0.00000000</v>
  </separator>
  <separator name="orbital magnetization" >
   <i type="logical" name="NUCIND"> F  </i>
   <v name="MAGPOS">      0.00000000      0.00000000      0.00000000</v>
   <i type="logical" name="LNICSALL"> T  </i>
   <i type="logical" name="ORBITALMAG"> F  </i>
   <i type="logical" name="LMAGBLOCH"> F  </i>
   <i type="logical" name="LCHIMAG"> F  </i>
   <i type="logical" name="LGAUGE"> T  </i>
   <i type="int" name="MAGATOM">     0</i>
   <v name="MAGDIPOL">      0.00000000      0.00000000      0.00000000</v>
   <v name="AVECCONST">      0.00000000      0.00000000      0.00000000</v>
  </separator>
  <separator name="response functions" >
   <i type="logical" name="LALL_IN_ONE"> F  </i>
   <i type="int" name="IALL_IN_ONE">    -1</i>
   <i type="int" name="NBANDS_WAVE">    -1</i>
   <i type="logical" name="LFINITE_TEMPERATURE"> F  </i>
   <i type="logical" name="LADDER"> F  </i>
   <i type="logical" name="LRPAFORCE"> F  </i>
   <i type="logical" name="LFXC"> F  </i>
   <i type="logical" name="LHARTREE"> T  </i>
   <i type="int" name="IBSE">     0</i>
   <v type="int" name="KPOINT">    -1     0     0     0</v>
   <i type="logical" name="LTCTC"> F  </i>
   <i type="logical" name="LTCTE"> F  </i>
   <i type="logical" name="LTETE"> F  </i>
   <i type="logical" name="LTRIPLET"> F  </i>
   <i type="logical" name="LFXCEPS"> F  </i>
   <i type="logical" name="LFXHEG"> F  </i>
   <i type="int" name="NATURALO">     2</i>
   <i type="logical" name="LHOLEGF"> F  </i>
   <i type="logical" name="L2ORDER"> F  </i>
   <i type="logical" name="LDMP1"> F  </i>
   <i type="logical" name="LMP2LT"> F  </i>
   <i type="logical" name="LSMP2LT"> F  </i>
   <i type="logical" name="LGWLF"> F  </i>
   <i name="ENCUTGW">     -1.60000002</i>
   <i name="ENCUTGWSOFT">     -1.60000002</i>
   <i name="ENCUTLF">     -1.00000000</i>
   <i type="logical" name="LESF_SPLINES"> F  </i>
   <i type="int" name="LMAXMP2">    -1</i>
   <i name="SCISSOR">      0.00000000</i>
   <i type="int" name="NOMEGA">     0</i>
   <i type="int" name="NOMEGAR">     0</i>
   <i type="int" name="NBANDSGW">    -1</i>
   <i type="int" name="NBANDSO">    -1</i>
   <i type="int" name="NBANDSV">    -1</i>
   <i type="int" name="NELMGW">     1</i>
   <i type="int" name="NELMHF">     1</i>
   <i type="int" name="DIM">     3</i>
   <i type="int" name="IESPILON">     4</i>
   <i type="int" name="ANTIRES">     0</i>
   <i name="OMEGAMAX">    -30.00000000</i>
   <i name="OMEGAMIN">    -30.00000000</i>
   <i name="OMEGATL">   -200.00000000</i>
   <i type="int" name="OMEGAGRID">     0</i>
   <i name="CSHIFT">     -0.10000000</i>
   <i type="logical" name="LSELFENERGY"> F  </i>
   <i type="logical" name="LSPECTRAL"> F  </i>
   <i type="logical" name="LSPECTRALGW"> F  </i>
   <i type="logical" name="LSINGLES"> F  </i>
   <i type="logical" name="LFERMIGW"> F  </i>
   <i type="logical" name="ODDONLYGW"> F  </i>
   <i type="logical" name="EVENONLYGW"> F  </i>
   <i type="int" name="NKREDLFX">     1</i>
   <i type="int" name="NKREDLFY">     1</i>
   <i type="int" name="NKREDLFZ">     1</i>
   <i type="int" name="MAXMEM">  2800</i>
   <i type="int" name="TELESCOPE">     0</i>
   <i type="int" name="NTAUPAR">    -1</i>
   <i type="int" name="NOMEGAPAR">    -1</i>
   <i name="DAMP_NEWTON">      0.80000001</i>
   <i name="LAMBDA">      1.00000000</i>
  </separator>
  <separator name="External order field" >
   <i name="OFIELD_KAPPA">      0.00000000</i>
   <v name="OFIELD_K">      0.00000000      0.00000000      0.00000000</v>
   <i name="OFIELD_Q6_NEAR">      0.00000000</i>
   <i name="OFIELD_Q6_FAR">      0.00000000</i>
   <i name="OFIELD_A">      0.00000000</i>
  </separator>
  <separator name="optional k-points parameters" >
   <i type="int" name="KPOINTS_OPT_MODE">     1</i>
   <i type="logical" name="LKPOINTS_OPT"> F  </i>
  </separator>
 </parameters>
 <atominfo>
  <atoms>     120 </atoms>
  <types>       3 </types>
  <array name="atoms" >
   <dimension dim="1">ion</dimension>
   <field type="string">element</field>
   <field type="int">atomtype</field>
   <set>
    <rc><c>Ga</c><c>   1</c></rc>
    <rc><c>Ga</c><c>   1</c></rc>
    <rc><c>Ga</c><c>   1</c></rc>
    <rc><c>Ga</c><c>   1</c></rc>
    <rc><c>Ga</c><c>   1</c></rc>
    <rc><c>Ga</c><c>   1</c></rc>
    <rc><c>Ga</c><c>   1</c></rc>
    <rc><c>Ga</c><c>   1</c></rc>
    <rc><c>Ga</c><c>   1</c></rc>
    <rc><c>Ga</c><c>   1</c></rc>
    <rc><c>Ga</c><c>   1</c></rc>
    <rc><c>Ga</c><c>   1</c></rc>
    <rc><c>Ga</c><c>   1</c></rc>
    <rc><c>Ga</c><c>   1</c></rc>
    <rc><c>Ga</c><c>   1</c></rc>
    <rc><c>Ga</c><c>   1</c></rc>
    <rc><c>Ga</c><c>   1</c></rc>
    <rc><c>Ga</c><c>   1</c></rc>
    <rc><c>Ga</c><c>   1</c></rc>
    <rc><c>Ga</c><c>   1</c></rc>
    <rc><c>Ga</c><c>   1</c></rc>
    <rc><c>Ga</c><c>   1</c></rc>
    <rc><c>Ga</c><c>   1</c></rc>
    <rc><c>Ga</c><c>   1</c></rc>
    <rc><c>Ga</c><c>   1</c></rc>
    <rc><c>Ga</c><c>   1</c></rc>
    <rc><c>Ga</c><c>   1</c></rc>
    <rc><c>Ga</c><c>   1</c></rc>
    <rc><c>Ga</c><c>   1</c></rc>
    <rc><c>Ga</c><c>   1</c></rc>
    <rc><c>Ga</c><c>   1</c></rc>
    <rc><c>Ga</c><c>   1</c></rc>
    <rc><c>Ga</c><c>   1</c></rc>
    <rc><c>Ga</c><c>   1</c></rc>
    <rc><c>Ga</c><c>   1</c></rc>
    <rc><c>Ga</c><c>   1</c></rc>
    <rc><c>Ga</c><c>   1</c></rc>
    <rc><c>Ga</c><c>   1</c></rc>
    <rc><c>Ga</c><c>   1</c></rc>
    <rc><c>Ga</c><c>   1</c></rc>
    <rc><c>Ga</c><c>   1</c></rc>
    <rc><c>Ga</c><c>   1</c></rc>
    <rc><c>Ga</c><c>   1</c></rc>
    <rc><c>Ga</c><c>   1</c></rc>
    <rc><c>Ga</c><c>   1</c></rc>
    <rc><c>Ga</c><c>   1</c></rc>
    <rc><c>Ga</c><c>   1</c></rc>
    <rc><c>Ga</c><c>   1</c></rc>
    <rc><c>O </c><c>   2</c></rc>
    <rc><c>O </c><c>   2</c></rc>
    <rc><c>O </c><c>   2</c></rc>
    <rc><c>O </c><c>   2</c></rc>
    <rc><c>O </c><c>   2</c></rc>
    <rc><c>O </c><c>   2</c></rc>
    <rc><c>O </c><c>   2</c></rc>
    <rc><c>O </c><c>   2</c></rc>
    <rc><c>O </c><c>   2</c></rc>
    <rc><c>O </c><c>   2</c></rc>
    <rc><c>O </c><c>   2</c></rc>
    <rc><c>O </c><c>   2</c></rc>
    <rc><c>O </c><c>   2</c></rc>
    <rc><c>O </c><c>   2</c></rc>
    <rc><c>O </c><c>   2</c></rc>
    <rc><c>O </c><c>   2</c></rc>
    <rc><c>O </c><c>   2</c></rc>
    <rc><c>O </c><c>   2</c></rc>
    <rc><c>O </c><c>   2</c></rc>
    <rc><c>O </c><c>   2</c></rc>
    <rc><c>O </c><c>   2</c></rc>
    <rc><c>O </c><c>   2</c></rc>
    <rc><c>O </c><c>   2</c></rc>
    <rc><c>O </c><c>   2</c></rc>
    <rc><c>O </c><c>   2</c></rc>
    <rc><c>O </c><c>   2</c></rc>
    <rc><c>O </c><c>   2</c></rc>
    <rc><c>O </c><c>   2</c></rc>
    <rc><c>O </c><c>   2</c></rc>
    <rc><c>O </c><c>   2</c></rc>
    <rc><c>O </c><c>   2</c></rc>
    <rc><c>O </c><c>   2</c></rc>
    <rc><c>O </c><c>   2</c></rc>
    <rc><c>O </c><c>   2</c></rc>
    <rc><c>O </c><c>   2</c></rc>
    <rc><c>O </c><c>   2</c></rc>
    <rc><c>O </c><c>   2</c></rc>
    <rc><c>O </c><c>   2</c></rc>
    <rc><c>O </c><c>   2</c></rc>
    <rc><c>O </c><c>   2</c></rc>
    <rc><c>O </c><c>   2</c></rc>
    <rc><c>O </c><c>   2</c></rc>
    <rc><c>O </c><c>   2</c></rc>
    <rc><c>O </c><c>   2</c></rc>
    <rc><c>O </c><c>   2</c></rc>
    <rc><c>O </c><c>   2</c></rc>
    <rc><c>O </c><c>   2</c></rc>
    <rc><c>O </c><c>   2</c></rc>
    <rc><c>O </c><c>   2</c></rc>
    <rc><c>O </c><c>   2</c></rc>
    <rc><c>O </c><c>   2</c></rc>
    <rc><c>O </c><c>   2</c></rc>
    <rc><c>O </c><c>   2</c></rc>
    <rc><c>O </c><c>   2</c></rc>
    <rc><c>O </c><c>   2</c></rc>
    <rc><c>O </c><c>   2</c></rc>
    <rc><c>O </c><c>   2</c></rc>
    <rc><c>O </c><c>   2</c></rc>
    <rc><c>O </c><c>   2</c></rc>
    <rc><c>O </c><c>   2</c></rc>
    <rc><c>O </c><c>   2</c></rc>
    <rc><c>O </c><c>   2</c></rc>
    <rc><c>O </c><c>   2</c></rc>
    <rc><c>O </c><c>   2</c></rc>
    <rc><c>O </c><c>   2</c></rc>
    <rc><c>O </c><c>   2</c></rc>
    <rc><c>O </c><c>   2</c></rc>
    <rc><c>O </c><c>   2</c></rc>
    <rc><c>O </c><c>   2</c></rc>
    <rc><c>O </c><c>   2</c></rc>
    <rc><c>O </c><c>   2</c></rc>
    <rc><c>N </c><c>   3</c></rc>
   </set>
  </array>
  <array name="atomtypes" >
   <dimension dim="1">type</dimension>
   <field type="int">atomspertype</field>
   <field type="string">element</field>
   <field>mass</field>
   <field>valence</field>
   <field type="string">pseudopotential</field>
   <set>
    <rc><c>  48</c><c>Ga</c><c>     69.72300000</c><c>     13.00000000</c><c>  PAW_PBE Ga_d 06Jul2010                </c></rc>
    <rc><c>  71</c><c>O </c><c>     16.00000000</c><c>      6.00000000</c><c>  PAW_PBE O 08Apr2002                   </c></rc>
    <rc><c>   1</c><c>N </c><c>     14.00100000</c><c>      5.00000000</c><c>  PAW_PBE N 08Apr2002                   </c></rc>
   </set>
  </array>
 </atominfo>
 <structure name="initialpos" >
  <crystal>
   <varray name="basis" >
    <v>       0.00000000      12.28047342       0.00000000 </v>
    <v>       9.14270205       0.00000000       0.00000000 </v>
    <v>       0.00000000      -2.76826177     -11.30069772 </v>
   </varray>
   <i name="volume">   1268.80515525 </i>
   <varray name="rec_basis" >
    <v>       0.00000000       0.08143009      -0.01994742 </v>
    <v>       0.10937686      -0.00000000       0.00000000 </v>
    <v>       0.00000000       0.00000000      -0.08849011 </v>
   </varray>
  </crystal>
  <varray name="positions" >
   <v>       0.65966986       0.99965793       0.15652540 </v>
   <v>       0.65947135       0.99994231       0.65695185 </v>
   <v>       0.65966986       0.33367541       0.15652540 </v>
   <v>       0.65947135       0.33339102       0.65695185 </v>
   <v>       0.65885139       0.66666667       0.15649641 </v>
   <v>       0.65888488       0.66666667       0.65725114 </v>
   <v>       0.84469705       0.16666667       0.34651624 </v>
   <v>       0.84172716       0.16666667       0.84421369 </v>
   <v>       0.84111341       0.49986379       0.34310889 </v>
   <v>       0.84150970       0.49970353       0.84377932 </v>
   <v>       0.84111341       0.83346955       0.34310889 </v>
   <v>       0.84150970       0.83362980       0.84377932 </v>
   <v>       0.59294382       0.16666667       0.39714238 </v>
   <v>       0.59084495       0.16666667       0.89756138 </v>
   <v>       0.59186707       0.49971957       0.39771793 </v>
   <v>       0.59014056       0.50000049       0.89704278 </v>
   <v>       0.59186707       0.83361376       0.39771793 </v>
   <v>       0.59014056       0.83333285       0.89704278 </v>
   <v>       0.90953937       0.00008695       0.10397696 </v>
   <v>       0.90810845       0.99999735       0.60041610 </v>
   <v>       0.90953937       0.33324639       0.10397696 </v>
   <v>       0.90810845       0.33333598       0.60041610 </v>
   <v>       0.90964917       0.66666667       0.10315864 </v>
   <v>       0.90856808       0.66666667       0.60151854 </v>
   <v>       0.15912355       0.16666667       0.15919826 </v>
   <v>       0.15817751       0.16666667       0.65218156 </v>
   <v>       0.16006257       0.49933097       0.15790456 </v>
   <v>       0.15899385       0.49941284       0.65578680 </v>
   <v>       0.16006257       0.83400237       0.15790456 </v>
   <v>       0.15899385       0.83392049       0.65578680 </v>
   <v>       0.34114102       0.99982311       0.34391490 </v>
   <v>       0.34002123       0.00024854       0.84273670 </v>
   <v>       0.34114102       0.33351023       0.34391490 </v>
   <v>       0.34002123       0.33308479       0.84273670 </v>
   <v>       0.34232030       0.66666667       0.34329393 </v>
   <v>       0.34038685       0.66666667       0.84322049 </v>
   <v>       0.08589534       0.00461576       0.39623162 </v>
   <v>       0.09167034       0.00038715       0.89812388 </v>
   <v>       0.08589534       0.32871757       0.39623162 </v>
   <v>       0.09167034       0.33294618       0.89812388 </v>
   <v>       0.09179779       0.66666667       0.39804030 </v>
   <v>       0.09157614       0.66666667       0.89834576 </v>
   <v>       0.40873966       0.16666667       0.10246954 </v>
   <v>       0.40919631       0.16666667       0.60274234 </v>
   <v>       0.40945451       0.49974186       0.10227216 </v>
   <v>       0.40906521       0.49991829       0.60292105 </v>
   <v>       0.40945451       0.83359147       0.10227216 </v>
   <v>       0.40906521       0.83341504       0.60292105 </v>
   <v>       0.99647756       0.16666667       0.12014493 </v>
   <v>       0.99563613       0.16666667       0.62991903 </v>
   <v>       0.99720220       0.50014101       0.12716020 </v>
   <v>       0.99612914       0.49996172       0.62718848 </v>
   <v>       0.99720220       0.83319232       0.12716020 </v>
   <v>       0.99612914       0.83337161       0.62718848 </v>
   <v>       0.50449613       0.00045897       0.37282473 </v>
   <v>       0.50305687       0.00030056       0.87239070 </v>
   <v>       0.50449613       0.33287436       0.37282473 </v>
   <v>       0.50305687       0.33303277       0.87239070 </v>
   <v>       0.50466493       0.66666667       0.37314377 </v>
   <v>       0.50287256       0.66666667       0.87195978 </v>
   <v>       0.67452915       0.16666667       0.28030889 </v>
   <v>       0.67293331       0.16666667       0.78099022 </v>
   <v>       0.67129814       0.50127366       0.27942104 </v>
   <v>       0.67271232       0.50014284       0.78097955 </v>
   <v>       0.67129814       0.83205967       0.27942104 </v>
   <v>       0.67271232       0.83319050       0.78097955 </v>
   <v>       0.82484952       0.99457355       0.21701350 </v>
   <v>       0.82756983       0.99963185       0.71956657 </v>
   <v>       0.82484952       0.33875979       0.21701350 </v>
   <v>       0.82756983       0.33370149       0.71956657 </v>
   <v>       0.82689440       0.66666667       0.21886107 </v>
   <v>       0.82757010       0.66666667       0.71958544 </v>
   <v>       0.82461258       0.99613296       0.44658061 </v>
   <v>       0.83262691       0.99965705       0.94628100 </v>
   <v>       0.82461258       0.33720037       0.44658061 </v>
   <v>       0.83262691       0.33367628       0.94628100 </v>
   <v>       0.83015472       0.66666667       0.44554510 </v>
   <v>       0.83309737       0.66666667       0.94611764 </v>
   <v>       0.66768525       0.16666667       0.05373473 </v>
   <v>       0.66698847       0.16666667       0.55482048 </v>
   <v>       0.66616681       0.50064743       0.05314186 </v>
   <v>       0.66648518       0.50049918       0.55499492 </v>
   <v>       0.66616681       0.83268590       0.05314186 </v>
   <v>       0.66648518       0.83283416       0.55499492 </v>
   <v>       0.49668067       0.00042861       0.12689283 </v>
   <v>       0.49667089       0.99999942       0.62843033 </v>
   <v>       0.49668067       0.33290472       0.12689283 </v>
   <v>       0.49667089       0.33333392       0.62843033 </v>
   <v>       0.49612460       0.66666667       0.12633598 </v>
   <v>       0.49636781       0.66666667       0.62866777 </v>
   <v>       0.00390749       0.16666667       0.87223904 </v>
   <v>       0.00339818       0.50215896       0.37368828 </v>
   <v>       0.00416937       0.49993292       0.87307044 </v>
   <v>       0.00339818       0.83117437       0.37368828 </v>
   <v>       0.00416937       0.83340041       0.87307044 </v>
   <v>       0.17441018       0.99762295       0.28085179 </v>
   <v>       0.17245188       0.00004744       0.78030698 </v>
   <v>       0.17441018       0.33571038       0.28085179 </v>
   <v>       0.17245188       0.33328590       0.78030698 </v>
   <v>       0.17394229       0.66666667       0.28117686 </v>
   <v>       0.17242158       0.66666667       0.78053069 </v>
   <v>       0.32832678       0.16666667       0.22005698 </v>
   <v>       0.32729745       0.16666667       0.71941223 </v>
   <v>       0.32907498       0.50064153       0.21982069 </v>
   <v>       0.32802588       0.50030584       0.72030684 </v>
   <v>       0.32907498       0.83269180       0.21982069 </v>
   <v>       0.32802588       0.83302749       0.72030684 </v>
   <v>       0.33386118       0.16666667       0.44617638 </v>
   <v>       0.33220465       0.16666667       0.94576399 </v>
   <v>       0.33447199       0.50057613       0.44614619 </v>
   <v>       0.33219228       0.49981417       0.94584838 </v>
   <v>       0.33447199       0.83275720       0.44614619 </v>
   <v>       0.33219228       0.83351916       0.94584838 </v>
   <v>       0.16904370       0.00028269       0.05452935 </v>
   <v>       0.17029736       0.99762766       0.55400962 </v>
   <v>       0.16904370       0.33305064       0.05452935 </v>
   <v>       0.17029736       0.33570567       0.55400962 </v>
   <v>       0.16849507       0.66666667       0.05493625 </v>
   <v>       0.16922284       0.66666667       0.55479615 </v>
   <v>       0.99920600       0.16666667       0.36971450 </v>
  </varray>
 </structure>
 <calculation>
  <scstep>
   <time name="total">    4.02    4.03</time>
   <energy>
    <i name="alphaZ">   5530.94812622 </i>
    <i name="ewald"> -88787.70406013 </i>
    <i name="hartreedc">  -2114.85245411 </i>
    <i name="XCdc">   2806.62735595 </i>
    <i name="pawpsdc">  59982.11220946 </i>
    <i name="pawaedc"> -89189.82340638 </i>
    <i name="eentropy">     -0.00978743 </i>
    <i name="bandstr"> -40256.37200526 </i>
    <i name="atom"> 133733.99279260 </i>
    <i name="e_fr_energy"> -18295.08122906 </i>
    <i name="e_wo_entrp"> -18295.07144164 </i>
    <i name="e_0_energy"> -18295.07633535 </i>
   </energy>
  </scstep>
  <scstep>
   <time name="total">    3.25    3.25</time>
   <energy>
    <i name="e_fr_energy"> -62400.29137571 </i>
    <i name="e_wo_entrp"> -62400.26898786 </i>
    <i name="e_0_energy"> -62400.28018178 </i>
   </energy>
  </scstep>
  <scstep>
   <time name="total">    3.39    3.39</time>
   <energy>
    <i name="e_fr_energy"> -66942.23278529 </i>
    <i name="e_wo_entrp"> -66942.18928107 </i>
    <i name="e_0_energy"> -66942.21103318 </i>
   </energy>
  </scstep>
  <scstep>
   <time name="total">    3.73    3.73</time>
   <energy>
    <i name="e_fr_energy"> -67474.24970958 </i>
    <i name="e_wo_entrp"> -67474.20211035 </i>
    <i name="e_0_energy"> -67474.22590996 </i>
   </energy>
  </scstep>
  <scstep>
   <time name="total">  236.66  236.63</time>
   <energy>
    <i name="e_fr_energy"> -37370.60416885 </i>
    <i name="e_wo_entrp"> -37370.57512695 </i>
    <i name="e_0_energy"> -37370.58964790 </i>
   </energy>
  </scstep>
  <scstep>
   <time name="total">  470.80  470.73</time>
   <energy>
    <i name="e_fr_energy">  19174.88238135 </i>
    <i name="e_wo_entrp">  19174.90067972 </i>
    <i name="e_0_energy">  19174.89153053 </i>
   </energy>
  </scstep>
  <scstep>
   <time name="total">  471.83  471.77</time>
   <energy>
    <i name="e_fr_energy">   5386.36424306 </i>
    <i name="e_wo_entrp">   5386.39821847 </i>
    <i name="e_0_energy">   5386.38123077 </i>
   </energy>
  </scstep>
  <scstep>
   <time name="total">  472.54  472.48</time>
   <energy>
    <i name="e_fr_energy">   1058.91684397 </i>
    <i name="e_wo_entrp">   1058.98522923 </i>
    <i name="e_0_energy">   1058.95103660 </i>
   </energy>
  </scstep>
  <scstep>
   <time name="total">  471.86  471.80</time>
   <energy>
    <i name="e_fr_energy">    167.36444549 </i>
    <i name="e_wo_entrp">    167.38597301 </i>
    <i name="e_0_energy">    167.37520925 </i>
   </energy>
  </scstep>
  <scstep>
   <time name="total">  470.34  470.29</time>
   <energy>
    <i name="e_fr_energy">   -152.59057272 </i>
    <i name="e_wo_entrp">   -152.58200917 </i>
    <i name="e_0_energy">   -152.58629095 </i>
   </energy>
  </scstep>
  <scstep>
   <time name="total">  469.41  469.36</time>
   <energy>
    <i name="e_fr_energy">   -560.17852176 </i>
    <i name="e_wo_entrp">   -560.17064520 </i>
    <i name="e_0_energy">   -560.17458348 </i>
   </energy>
  </scstep>
  <scstep>
   <time name="total">  469.11  469.05</time>
   <energy>
    <i name="e_fr_energy">   -786.57005275 </i>
    <i name="e_wo_entrp">   -786.56907654 </i>
    <i name="e_0_energy">   -786.56956465 </i>
   </energy>
  </scstep>
  <scstep>
   <time name="total">  469.24  469.19</time>
   <energy>
    <i name="e_fr_energy">   -874.79669348 </i>
    <i name="e_wo_entrp">   -874.79447669 </i>
    <i name="e_0_energy">   -874.79558508 </i>
   </energy>
  </scstep>
  <scstep>
   <time name="total">  469.18  469.13</time>
   <energy>
    <i name="e_fr_energy">   -915.83477797 </i>
    <i name="e_wo_entrp">   -915.82789776 </i>
    <i name="e_0_energy">   -915.83133786 </i>
   </energy>
  </scstep>
  <scstep>
   <time name="total">  468.82  468.77</time>
   <energy>
    <i name="e_fr_energy">   -933.14295923 </i>
    <i name="e_wo_entrp">   -933.14295923 </i>
    <i name="e_0_energy">   -933.14295923 </i>
   </energy>
  </scstep>
  <scstep>
   <time name="total">  468.48  468.43</time>
   <energy>
    <i name="e_fr_energy">   -938.59003538 </i>
    <i name="e_wo_entrp">   -938.59003538 </i>
    <i name="e_0_energy">   -938.59003538 </i>
   </energy>
  </scstep>
  <scstep>
   <time name="total">  468.63  468.57</time>
   <energy>
    <i name="e_fr_energy">   -944.59192406 </i>
    <i name="e_wo_entrp">   -944.59192406 </i>
    <i name="e_0_energy">   -944.59192406 </i>
   </energy>
  </scstep>
  <scstep>
   <time name="total">  468.54  468.49</time>
   <energy>
    <i name="e_fr_energy">   -947.51200000 </i>
    <i name="e_wo_entrp">   -947.51200000 </i>
    <i name="e_0_energy">   -947.51200000 </i>
   </energy>
  </scstep>
  <scstep>
   <time name="total">  468.66  468.59</time>
   <energy>
    <i name="e_fr_energy">   -949.40945760 </i>
    <i name="e_wo_entrp">   -949.40945760 </i>
    <i name="e_0_energy">   -949.40945760 </i>
   </energy>
  </scstep>
  <scstep>
   <time name="total">  468.72  468.67</time>
   <energy>
    <i name="e_fr_energy">   -950.51107282 </i>
    <i name="e_wo_entrp">   -950.51107282 </i>
    <i name="e_0_energy">   -950.51107282 </i>
   </energy>
  </scstep>
  <scstep>
   <time name="total">  468.93  468.88</time>
   <energy>
    <i name="e_fr_energy">   -951.09196930 </i>
    <i name="e_wo_entrp">   -951.09196930 </i>
    <i name="e_0_energy">   -951.09196930 </i>
   </energy>
  </scstep>
  <scstep>
   <time name="total">  468.92  468.87</time>
   <energy>
    <i name="e_fr_energy">   -951.41274495 </i>
    <i name="e_wo_entrp">   -951.41274495 </i>
    <i name="e_0_energy">   -951.41274495 </i>
   </energy>
  </scstep>
  <scstep>
   <time name="total">  468.78  468.73</time>
   <energy>
    <i name="e_fr_energy">   -951.59783460 </i>
    <i name="e_wo_entrp">   -951.59783460 </i>
    <i name="e_0_energy">   -951.59783460 </i>
   </energy>
  </scstep>
  <scstep>
   <time name="total">  468.72  468.67</time>
   <energy>
    <i name="e_fr_energy">   -951.69844540 </i>
    <i name="e_wo_entrp">   -951.69844540 </i>
    <i name="e_0_energy">   -951.69844540 </i>
   </energy>
  </scstep>
  <scstep>
   <time name="total">  468.65  468.61</time>
   <energy>
    <i name="e_fr_energy">   -951.75650224 </i>
    <i name="e_wo_entrp">   -951.75650224 </i>
    <i name="e_0_energy">   -951.75650224 </i>
   </energy>
  </scstep>
  <scstep>
   <time name="total">  468.66  468.59</time>
   <energy>
    <i name="e_fr_energy">   -951.78842563 </i>
    <i name="e_wo_entrp">   -951.78842563 </i>
    <i name="e_0_energy">   -951.78842563 </i>
   </energy>
  </scstep>
  <scstep>
   <time name="total">  468.52  468.46</time>
   <energy>
    <i name="e_fr_energy">   -951.80535160 </i>
    <i name="e_wo_entrp">   -951.80535160 </i>
    <i name="e_0_energy">   -951.80535160 </i>
   </energy>
  </scstep>
  <scstep>
   <time name="total">  468.76  468.72</time>
   <energy>
    <i name="e_fr_energy">   -951.81515431 </i>
    <i name="e_wo_entrp">   -951.81515431 </i>
    <i name="e_0_energy">   -951.81515431 </i>
   </energy>
  </scstep>
  <scstep>
   <time name="total">  468.82  468.75</time>
   <energy>
    <i name="e_fr_energy">   -951.82067190 </i>
    <i name="e_wo_entrp">   -951.82067190 </i>
    <i name="e_0_energy">   -951.82067190 </i>
   </energy>
  </scstep>
  <scstep>
   <time name="total">  468.77  468.71</time>
   <energy>
    <i name="e_fr_energy">   -951.82375101 </i>
    <i name="e_wo_entrp">   -951.82375101 </i>
    <i name="e_0_energy">   -951.82375101 </i>
   </energy>
  </scstep>
  <scstep>
   <time name="total">  469.02  468.96</time>
   <energy>
    <i name="e_fr_energy">   -951.82558309 </i>
    <i name="e_wo_entrp">   -951.82558309 </i>
    <i name="e_0_energy">   -951.82558309 </i>
   </energy>
  </scstep>
  <scstep>
   <time name="total">  468.99  468.93</time>
   <energy>
    <i name="e_fr_energy">   -951.82662571 </i>
    <i name="e_wo_entrp">   -951.82662571 </i>
    <i name="e_0_energy">   -951.82662571 </i>
   </energy>
  </scstep>
  <scstep>
   <time name="total">  468.44  468.39</time>
   <energy>
    <i name="e_fr_energy">   -951.82720606 </i>
    <i name="e_wo_entrp">   -951.82720606 </i>
    <i name="e_0_energy">   -951.82720606 </i>
   </energy>
  </scstep>
  <scstep>
   <time name="total">  468.84  468.77</time>
   <energy>
    <i name="e_fr_energy">   -951.82753078 </i>
    <i name="e_wo_entrp">   -951.82753078 </i>
    <i name="e_0_energy">   -951.82753078 </i>
   </energy>
  </scstep>
  <scstep>
   <time name="total">  468.76  468.70</time>
   <energy>
    <i name="e_fr_energy">   -951.82772138 </i>
    <i name="e_wo_entrp">   -951.82772138 </i>
    <i name="e_0_energy">   -951.82772138 </i>
   </energy>
  </scstep>
  <scstep>
   <time name="total">  468.63  468.58</time>
   <energy>
    <i name="e_fr_energy">   -951.82782810 </i>
    <i name="e_wo_entrp">   -951.82782810 </i>
    <i name="e_0_energy">   -951.82782810 </i>
   </energy>
  </scstep>
  <scstep>
   <time name="total">  468.69  468.64</time>
   <energy>
    <i name="e_fr_energy">   -951.82788899 </i>
    <i name="e_wo_entrp">   -951.82788899 </i>
    <i name="e_0_energy">   -951.82788899 </i>
   </energy>
  </scstep>
  <scstep>
   <time name="total">  468.88  468.83</time>
   <energy>
    <i name="e_fr_energy">   -951.82795208 </i>
    <i name="e_wo_entrp">   -951.82795208 </i>
    <i name="e_0_energy">   -951.82795208 </i>
   </energy>
  </scstep>
  <scstep>
   <time name="total">  468.73  468.68</time>
   <energy>
    <i name="e_fr_energy">   -951.82796961 </i>
    <i name="e_wo_entrp">   -951.82796961 </i>
    <i name="e_0_energy">   -951.82796961 </i>
   </energy>
  </scstep>
  <scstep>
   <time name="total">  698.89  698.81</time>
   <energy>
    <i name="alphaZ">   5530.94812622 </i>
    <i name="ewald"> -88787.70406013 </i>
    <i name="hartreedc"> -33811.53084642 </i>
    <i name="XCdc">   2914.98587316 </i>
    <i name="pawpsdc"> 121546.70660862 </i>
    <i name="pawaedc">-137121.71906182 </i>
    <i name="eentropy">     -0.00000000 </i>
    <i name="bandstr">  -8846.89995995 </i>
    <i name="atom"> 133733.99279260 </i>
    <i name="e_fr_energy">   -951.82797483 </i>
    <i name="e_wo_entrp">   -951.82797483 </i>
    <i name="e_0_energy">   -951.82797483 </i>
   </energy>
  </scstep>
  <structure>
   <crystal>
    <varray name="basis" >
     <v>       0.00000000      12.28047342       0.00000000 </v>
     <v>       9.14270205       0.00000000       0.00000000 </v>
     <v>       0.00000000      -2.76826177     -11.30069772 </v>
    </varray>
    <i name="volume">   1268.80515525 </i>
    <varray name="rec_basis" >
     <v>       0.00000000       0.08143009      -0.01994742 </v>
     <v>       0.10937686      -0.00000000       0.00000000 </v>
     <v>       0.00000000       0.00000000      -0.08849011 </v>
    </varray>
   </crystal>
   <varray name="positions" >
    <v>       0.65966986       0.99965793       0.15652540 </v>
    <v>       0.65947135       0.99994231       0.65695185 </v>
    <v>       0.65966986       0.33367541       0.15652540 </v>
    <v>       0.65947135       0.33339102       0.65695185 </v>
    <v>       0.65885139       0.66666667       0.15649641 </v>
    <v>       0.65888488       0.66666667       0.65725114 </v>
    <v>       0.84469705       0.16666667       0.34651624 </v>
    <v>       0.84172716       0.16666667       0.84421369 </v>
    <v>       0.84111341       0.49986379       0.34310889 </v>
    <v>       0.84150970       0.49970353       0.84377932 </v>
    <v>       0.84111341       0.83346955       0.34310889 </v>
    <v>       0.84150970       0.83362980       0.84377932 </v>
    <v>       0.59294382       0.16666667       0.39714238 </v>
    <v>       0.59084495       0.16666667       0.89756138 </v>
    <v>       0.59186707       0.49971957       0.39771793 </v>
    <v>       0.59014056       0.50000049       0.89704278 </v>
    <v>       0.59186707       0.83361376       0.39771793 </v>
    <v>       0.59014056       0.83333285       0.89704278 </v>
    <v>       0.90953937       0.00008695       0.10397696 </v>
    <v>       0.90810845       0.99999735       0.60041610 </v>
    <v>       0.90953937       0.33324639       0.10397696 </v>
    <v>       0.90810845       0.33333598       0.60041610 </v>
    <v>       0.90964917       0.66666667       0.10315864 </v>
    <v>       0.90856808       0.66666667       0.60151854 </v>
    <v>       0.15912355       0.16666667       0.15919826 </v>
    <v>       0.15817751       0.16666667       0.65218156 </v>
    <v>       0.16006257       0.49933097       0.15790456 </v>
    <v>       0.15899385       0.49941284       0.65578680 </v>
    <v>       0.16006257       0.83400237       0.15790456 </v>
    <v>       0.15899385       0.83392049       0.65578680 </v>
    <v>       0.34114102       0.99982311       0.34391490 </v>
    <v>       0.34002123       0.00024854       0.84273670 </v>
    <v>       0.34114102       0.33351023       0.34391490 </v>
    <v>       0.34002123       0.33308479       0.84273670 </v>
    <v>       0.34232030       0.66666667       0.34329393 </v>
    <v>       0.34038685       0.66666667       0.84322049 </v>
    <v>       0.08589534       0.00461576       0.39623162 </v>
    <v>       0.09167034       0.00038715       0.89812388 </v>
    <v>       0.08589534       0.32871757       0.39623162 </v>
    <v>       0.09167034       0.33294618       0.89812388 </v>
    <v>       0.09179779       0.66666667       0.39804030 </v>
    <v>       0.09157614       0.66666667       0.89834576 </v>
    <v>       0.40873966       0.16666667       0.10246954 </v>
    <v>       0.40919631       0.16666667       0.60274234 </v>
    <v>       0.40945451       0.49974186       0.10227216 </v>
    <v>       0.40906521       0.49991829       0.60292105 </v>
    <v>       0.40945451       0.83359147       0.10227216 </v>
    <v>       0.40906521       0.83341504       0.60292105 </v>
    <v>       0.99647756       0.16666667       0.12014493 </v>
    <v>       0.99563613       0.16666667       0.62991903 </v>
    <v>       0.99720220       0.50014101       0.12716020 </v>
    <v>       0.99612914       0.49996172       0.62718848 </v>
    <v>       0.99720220       0.83319232       0.12716020 </v>
    <v>       0.99612914       0.83337161       0.62718848 </v>
    <v>       0.50449613       0.00045897       0.37282473 </v>
    <v>       0.50305687       0.00030056       0.87239070 </v>
    <v>       0.50449613       0.33287436       0.37282473 </v>
    <v>       0.50305687       0.33303277       0.87239070 </v>
    <v>       0.50466493       0.66666667       0.37314377 </v>
    <v>       0.50287256       0.66666667       0.87195978 </v>
    <v>       0.67452915       0.16666667       0.28030889 </v>
    <v>       0.67293331       0.16666667       0.78099022 </v>
    <v>       0.67129814       0.50127366       0.27942104 </v>
    <v>       0.67271232       0.50014284       0.78097955 </v>
    <v>       0.67129814       0.83205967       0.27942104 </v>
    <v>       0.67271232       0.83319050       0.78097955 </v>
    <v>       0.82484952       0.99457355       0.21701350 </v>
    <v>       0.82756983       0.99963185       0.71956657 </v>
    <v>       0.82484952       0.33875979       0.21701350 </v>
    <v>       0.82756983       0.33370149       0.71956657 </v>
    <v>       0.82689440       0.66666667       0.21886107 </v>
    <v>       0.82757010       0.66666667       0.71958544 </v>
    <v>       0.82461258       0.99613296       0.44658061 </v>
    <v>       0.83262691       0.99965705       0.94628100 </v>
    <v>       0.82461258       0.33720037       0.44658061 </v>
    <v>       0.83262691       0.33367628       0.94628100 </v>
    <v>       0.83015472       0.66666667       0.44554510 </v>
    <v>       0.83309737       0.66666667       0.94611764 </v>
    <v>       0.66768525       0.16666667       0.05373473 </v>
    <v>       0.66698847       0.16666667       0.55482048 </v>
    <v>       0.66616681       0.50064743       0.05314186 </v>
    <v>       0.66648518       0.50049918       0.55499492 </v>
    <v>       0.66616681       0.83268590       0.05314186 </v>
    <v>       0.66648518       0.83283416       0.55499492 </v>
    <v>       0.49668067       0.00042861       0.12689283 </v>
    <v>       0.49667089       0.99999942       0.62843033 </v>
    <v>       0.49668067       0.33290472       0.12689283 </v>
    <v>       0.49667089       0.33333392       0.62843033 </v>
    <v>       0.49612460       0.66666667       0.12633598 </v>
    <v>       0.49636781       0.66666667       0.62866777 </v>
    <v>       0.00390749       0.16666667       0.87223904 </v>
    <v>       0.00339818       0.50215896       0.37368828 </v>
    <v>       0.00416937       0.49993292       0.87307044 </v>
    <v>       0.00339818       0.83117437       0.37368828 </v>
    <v>       0.00416937       0.83340041       0.87307044 </v>
    <v>       0.17441018       0.99762295       0.28085179 </v>
    <v>       0.17245188       0.00004744       0.78030698 </v>
    <v>       0.17441018       0.33571038       0.28085179 </v>
    <v>       0.17245188       0.33328590       0.78030698 </v>
    <v>       0.17394229       0.66666667       0.28117686 </v>
    <v>       0.17242158       0.66666667       0.78053069 </v>
    <v>       0.32832678       0.16666667       0.22005698 </v>
    <v>       0.32729745       0.16666667       0.71941223 </v>
    <v>       0.32907498       0.50064153       0.21982069 </v>
    <v>       0.32802588       0.50030584       0.72030684 </v>
    <v>       0.32907498       0.83269180       0.21982069 </v>
    <v>       0.32802588       0.83302749       0.72030684 </v>
    <v>       0.33386118       0.16666667       0.44617638 </v>
    <v>       0.33220465       0.16666667       0.94576399 </v>
    <v>       0.33447199       0.50057613       0.44614619 </v>
    <v>       0.33219228       0.49981417       0.94584838 </v>
    <v>       0.33447199       0.83275720       0.44614619 </v>
    <v>       0.33219228       0.83351916       0.94584838 </v>
    <v>       0.16904370       0.00028269       0.05452935 </v>
    <v>       0.17029736       0.99762766       0.55400962 </v>
    <v>       0.16904370       0.33305064       0.05452935 </v>
    <v>       0.17029736       0.33570567       0.55400962 </v>
    <v>       0.16849507       0.66666667       0.05493625 </v>
    <v>       0.16922284       0.66666667       0.55479615 </v>
    <v>       0.99920600       0.16666667       0.36971450 </v>
   </varray>
  </structure>
  <varray name="forces" >
   <v>      -0.00178129       0.11493682      -0.01619855 </v>
   <v>       0.00265019       0.07501737       0.01798787 </v>
   <v>       0.00178129       0.11493682      -0.01619855 </v>
   <v>      -0.00265019       0.07501737       0.01798787 </v>
   <v>       0.00000000       0.06363733      -0.01310292 </v>
   <v>       0.00000000       0.06694198       0.01748466 </v>
   <v>       0.00000000      -0.01070694      -0.02993754 </v>
   <v>       0.00000000      -0.05528788      -0.02533107 </v>
   <v>      -0.02519279      -0.07090948       0.00523526 </v>
   <v>      -0.01145152      -0.06410563      -0.01682863 </v>
   <v>       0.02519279      -0.07090948       0.00523526 </v>
   <v>       0.01145152      -0.06410563      -0.01682863 </v>
   <v>       0.00000000      -0.01990232       0.00996281 </v>
   <v>       0.00000000      -0.01684594       0.00364464 </v>
   <v>       0.00416139      -0.01814965       0.02270718 </v>
   <v>       0.00257304      -0.01377897      -0.00275230 </v>
   <v>      -0.00416139      -0.01814965       0.02270718 </v>
   <v>      -0.00257304      -0.01377897      -0.00275230 </v>
   <v>       0.00460894       0.02094494      -0.00914691 </v>
   <v>       0.00155989       0.00173592      -0.01759553 </v>
   <v>      -0.00460894       0.02094494      -0.00914691 </v>
   <v>      -0.00155989       0.00173592      -0.01759553 </v>
   <v>       0.00000000       0.02158625      -0.02066167 </v>
   <v>       0.00000000       0.01826433      -0.00683012 </v>
   <v>       0.00000000       0.04838118       0.01370683 </v>
   <v>       0.00000000       0.05493650       0.04857374 </v>
   <v>      -0.02351976       0.06040940      -0.02045637 </v>
   <v>      -0.02225765       0.07451909       0.04166720 </v>
   <v>       0.02351976       0.06040940      -0.02045637 </v>
   <v>       0.02225765       0.07451909       0.04166720 </v>
   <v>       0.00486282      -0.09871353      -0.00987126 </v>
   <v>       0.00094316      -0.08063751       0.00148997 </v>
   <v>      -0.00486282      -0.09871353      -0.00987126 </v>
   <v>      -0.00094316      -0.08063751       0.00148997 </v>
   <v>       0.00000000      -0.06833354      -0.01312599 </v>
   <v>       0.00000000      -0.06636961       0.00536669 </v>
   <v>      -0.00176697      -0.01026466       0.00573498 </v>
   <v>       0.00732438      -0.02377957       0.01649484 </v>
   <v>       0.00176697      -0.01026466       0.00573498 </v>
   <v>      -0.00732438      -0.02377957       0.01649484 </v>
   <v>       0.00000000      -0.04226806       0.01309299 </v>
   <v>       0.00000000      -0.02211394       0.01492940 </v>
   <v>       0.00000000       0.02229927      -0.01799058 </v>
   <v>       0.00000000       0.02129139      -0.00281101 </v>
   <v>       0.00684567       0.01599379      -0.02189240 </v>
   <v>       0.00477219       0.02322023      -0.00558672 </v>
   <v>      -0.00684567       0.01599379      -0.02189240 </v>
   <v>      -0.00477219       0.02322023      -0.00558672 </v>
   <v>       0.00000000      -0.17909412       0.03622508 </v>
   <v>       0.00000000      -0.16532922       0.16407280 </v>
   <v>       0.00354060      -0.17426540       0.10560704 </v>
   <v>       0.00473031      -0.17128960       0.13107168 </v>
   <v>      -0.00354060      -0.17426540       0.10560704 </v>
   <v>      -0.00473031      -0.17128960       0.13107168 </v>
   <v>      -0.00821081       0.18405348      -0.11800773 </v>
   <v>      -0.00253116       0.17281325      -0.11121861 </v>
   <v>       0.00821081       0.18405348      -0.11800773 </v>
   <v>       0.00253116       0.17281325      -0.11121861 </v>
   <v>       0.00000000       0.16754551      -0.11421528 </v>
   <v>       0.00000000       0.16353296      -0.11678128 </v>
   <v>       0.00000000      -0.07776448      -0.11133907 </v>
   <v>       0.00000000      -0.04632868      -0.11540199 </v>
   <v>       0.00552846      -0.05602662      -0.10930374 </v>
   <v>       0.00280926      -0.04944304      -0.11128093 </v>
   <v>      -0.00552846      -0.05602662      -0.10930374 </v>
   <v>      -0.00280926      -0.04944304      -0.11128093 </v>
   <v>      -0.04970837       0.02003830       0.16946815 </v>
   <v>      -0.00225950       0.00999442       0.10274543 </v>
   <v>       0.04970837       0.02003830       0.16946815 </v>
   <v>       0.00225950       0.00999442       0.10274543 </v>
   <v>       0.00000000       0.04388601       0.12433316 </v>
   <v>       0.00000000       0.03123055       0.10684951 </v>
   <v>      -0.01672927       0.45704454      -0.11698613 </v>
   <v>      -0.00421273       0.39154767      -0.04628293 </v>
   <v>       0.01672927       0.45704454      -0.11698613 </v>
   <v>       0.00421273       0.39154767      -0.04628293 </v>
   <v>       0.00000000       0.41479628      -0.08663162 </v>
   <v>       0.00000000       0.39573334      -0.06484396 </v>
   <v>       0.00000000      -0.40456329       0.09982791 </v>
   <v>       0.00000000      -0.38119245       0.05726792 </v>
   <v>       0.00242083      -0.39139965       0.09075872 </v>
   <v>      -0.00374063      -0.38219086       0.05988547 </v>
   <v>      -0.00242083      -0.39139965       0.09075872 </v>
   <v>       0.00374063      -0.38219086       0.05988547 </v>
   <v>      -0.00318369      -0.18167128       0.11466220 </v>
   <v>      -0.00030293      -0.16975875       0.11867214 </v>
   <v>       0.00318369      -0.18167128       0.11466220 </v>
   <v>       0.00030293      -0.16975875       0.11867214 </v>
   <v>       0.00000000      -0.18081228       0.11640796 </v>
   <v>       0.00000000      -0.16259463       0.11291833 </v>
   <v>       0.00000000       0.17033830      -0.12769247 </v>
   <v>       0.04172975       0.12343607      -0.09643884 </v>
   <v>       0.00324077       0.16976552      -0.11793017 </v>
   <v>      -0.04172975       0.12343607      -0.09643884 </v>
   <v>      -0.00324077       0.16976552      -0.11793017 </v>
   <v>      -0.00151432       0.04306677      -0.01395677 </v>
   <v>      -0.02353894      -0.01792801      -0.13702563 </v>
   <v>       0.00151432       0.04306677      -0.01395677 </v>
   <v>       0.02353894      -0.01792801      -0.13702563 </v>
   <v>       0.00000000      -0.02444438      -0.10044252 </v>
   <v>       0.00000000      -0.02590685      -0.13194869 </v>
   <v>       0.00000000       0.04544168       0.12082770 </v>
   <v>       0.00000000       0.05091741       0.10962274 </v>
   <v>       0.00221079       0.04262714       0.12037084 </v>
   <v>      -0.00456781       0.04064121       0.10933812 </v>
   <v>      -0.00221079       0.04262714       0.12037084 </v>
   <v>       0.00456781       0.04064121       0.10933812 </v>
   <v>       0.00000000       0.39749612      -0.08218335 </v>
   <v>       0.00000000       0.39142667      -0.06980974 </v>
   <v>      -0.00362515       0.39185218      -0.08037269 </v>
   <v>       0.00251553       0.39358941      -0.07104497 </v>
   <v>       0.00362515       0.39185218      -0.08037269 </v>
   <v>      -0.00251553       0.39358941      -0.07104497 </v>
   <v>      -0.01951490      -0.38809447       0.08938943 </v>
   <v>       0.01024680      -0.42442857      -0.03972125 </v>
   <v>       0.01951490      -0.38809447       0.08938943 </v>
   <v>      -0.01024680      -0.42442857      -0.03972125 </v>
   <v>       0.00000000      -0.38769596       0.08723773 </v>
   <v>       0.00000000      -0.40789576       0.05284847 </v>
   <v>       0.00000000       0.07494273      -0.13089504 </v>
  </varray>
  <varray name="stress" >
   <v>     -34.33540599       0.00000000       0.00000000 </v>
   <v>       0.00000000     -33.30325347       1.64427862 </v>
   <v>       0.00000000       1.64427956     -31.36310929 </v>
  </varray>
  <energy>
   <i name="e_fr_energy">   -951.82797483 </i>
   <i name="e_wo_entrp">   -951.82797483 </i>
   <i name="e_0_energy">   -951.82797483 </i>
  </energy>
  <time name="totalsc">17487.3617485.43</time>
  <eigenvalues>
   <array>
    <dimension dim="1">band</dimension>
    <dimension dim="2">kpoint</dimension>
    <dimension dim="3">spin</dimension>
    <field>eigene</field>
    <field>occ</field>
    <set>
     <set comment="spin 1">
      <set comment="kpoint 1">
       <r>  -18.6745    1.0000 </r>
       <r>  -18.3856    1.0000 </r>
       <r>  -18.3353    1.0000 </r>
       <r>  -18.2470    1.0000 </r>
       <r>  -18.1281    1.0000 </r>
       <r>  -17.9877    1.0000 </r>
       <r>  -17.9872    1.0000 </r>
       <r>  -17.9115    1.0000 </r>
       <r>  -17.8296    1.0000 </r>
       <r>  -17.7964    1.0000 </r>
       <r>  -17.7832    1.0000 </r>
       <r>  -17.7386    1.0000 </r>
       <r>  -17.7343    1.0000 </r>
       <r>  -17.6996    1.0000 </r>
       <r>  -17.6985    1.0000 </r>
       <r>  -17.6577    1.0000 </r>
       <r>  -17.6539    1.0000 </r>
       <r>  -17.6407    1.0000 </r>
       <r>  -17.5590    1.0000 </r>
       <r>  -17.5484    1.0000 </r>
       <r>  -17.5397    1.0000 </r>
       <r>  -17.5316    1.0000 </r>
       <r>  -17.4977    1.0000 </r>
       <r>  -17.4973    1.0000 </r>
       <r>  -17.4716    1.0000 </r>
       <r>  -17.3896    1.0000 </r>
       <r>  -17.3855    1.0000 </r>
       <r>  -17.3789    1.0000 </r>
       <r>  -17.3653    1.0000 </r>
       <r>  -17.3581    1.0000 </r>
       <r>  -17.3485    1.0000 </r>
       <r>  -17.3430    1.0000 </r>
       <r>  -17.3174    1.0000 </r>
       <r>  -17.3077    1.0000 </r>
       <r>  -17.2847    1.0000 </r>
       <r>  -17.2755    1.0000 </r>
       <r>  -17.2359    1.0000 </r>
       <r>  -17.2022    1.0000 </r>
       <r>  -17.1899    1.0000 </r>
       <r>  -17.1763    1.0000 </r>
       <r>  -17.1721    1.0000 </r>
       <r>  -17.1603    1.0000 </r>
       <r>  -17.1571    1.0000 </r>
       <r>  -17.1351    1.0000 </r>
       <r>  -17.1052    1.0000 </r>
       <r>  -17.0977    1.0000 </r>
       <r>  -17.0539    1.0000 </r>
       <r>  -17.0442    1.0000 </r>
       <r>  -17.0245    1.0000 </r>
       <r>  -17.0153    1.0000 </r>
       <r>  -17.0090    1.0000 </r>
       <r>  -17.0062    1.0000 </r>
       <r>  -17.0034    1.0000 </r>
       <r>  -16.9548    1.0000 </r>
       <r>  -16.9540    1.0000 </r>
       <r>  -16.9526    1.0000 </r>
       <r>  -16.9425    1.0000 </r>
       <r>  -16.9176    1.0000 </r>
       <r>  -16.9140    1.0000 </r>
       <r>  -16.9010    1.0000 </r>
       <r>  -16.8919    1.0000 </r>
       <r>  -16.8870    1.0000 </r>
       <r>  -16.8822    1.0000 </r>
       <r>  -16.8595    1.0000 </r>
       <r>  -16.8393    1.0000 </r>
       <r>  -16.8291    1.0000 </r>
       <r>  -16.7629    1.0000 </r>
       <r>  -16.7409    1.0000 </r>
       <r>  -16.7246    1.0000 </r>
       <r>  -16.6934    1.0000 </r>
       <r>  -16.6811    1.0000 </r>
       <r>  -13.2531    1.0000 </r>
       <r>  -13.0942    1.0000 </r>
       <r>  -13.0762    1.0000 </r>
       <r>  -13.0719    1.0000 </r>
       <r>  -13.0643    1.0000 </r>
       <r>  -13.0559    1.0000 </r>
       <r>  -13.0436    1.0000 </r>
       <r>  -13.0420    1.0000 </r>
       <r>  -13.0260    1.0000 </r>
       <r>  -13.0254    1.0000 </r>
       <r>  -13.0146    1.0000 </r>
       <r>  -12.9990    1.0000 </r>
       <r>  -12.9980    1.0000 </r>
       <r>  -12.9922    1.0000 </r>
       <r>  -12.9911    1.0000 </r>
       <r>  -12.9886    1.0000 </r>
       <r>  -12.9866    1.0000 </r>
       <r>  -12.9825    1.0000 </r>
       <r>  -12.9785    1.0000 </r>
       <r>  -12.9759    1.0000 </r>
       <r>  -12.9745    1.0000 </r>
       <r>  -12.9717    1.0000 </r>
       <r>  -12.9664    1.0000 </r>
       <r>  -12.9651    1.0000 </r>
       <r>  -12.9609    1.0000 </r>
       <r>  -12.9562    1.0000 </r>
       <r>  -12.9537    1.0000 </r>
       <r>  -12.9533    1.0000 </r>
       <r>  -12.9462    1.0000 </r>
       <r>  -12.9448    1.0000 </r>
       <r>  -12.9419    1.0000 </r>
       <r>  -12.9408    1.0000 </r>
       <r>  -12.9384    1.0000 </r>
       <r>  -12.9376    1.0000 </r>
       <r>  -12.9343    1.0000 </r>
       <r>  -12.9325    1.0000 </r>
       <r>  -12.9300    1.0000 </r>
       <r>  -12.9277    1.0000 </r>
       <r>  -12.9268    1.0000 </r>
       <r>  -12.9262    1.0000 </r>
       <r>  -12.9184    1.0000 </r>
       <r>  -12.9162    1.0000 </r>
       <r>  -12.9131    1.0000 </r>
       <r>  -12.9093    1.0000 </r>
       <r>  -12.9061    1.0000 </r>
       <r>  -12.9027    1.0000 </r>
       <r>  -12.9011    1.0000 </r>
       <r>  -12.8968    1.0000 </r>
       <r>  -12.8896    1.0000 </r>
       <r>  -12.8828    1.0000 </r>
       <r>  -12.8795    1.0000 </r>
       <r>  -12.8768    1.0000 </r>
       <r>  -12.8708    1.0000 </r>
       <r>  -12.8632    1.0000 </r>
       <r>  -12.8615    1.0000 </r>
       <r>  -12.8579    1.0000 </r>
       <r>  -12.8564    1.0000 </r>
       <r>  -12.8517    1.0000 </r>
       <r>  -12.8498    1.0000 </r>
       <r>  -12.8455    1.0000 </r>
       <r>  -12.8431    1.0000 </r>
       <r>  -12.8425    1.0000 </r>
       <r>  -12.8415    1.0000 </r>
       <r>  -12.8363    1.0000 </r>
       <r>  -12.8303    1.0000 </r>
       <r>  -12.8283    1.0000 </r>
       <r>  -12.8279    1.0000 </r>
       <r>  -12.8235    1.0000 </r>
       <r>  -12.8227    1.0000 </r>
       <r>  -12.8221    1.0000 </r>
       <r>  -12.8179    1.0000 </r>
       <r>  -12.8156    1.0000 </r>
       <r>  -12.8129    1.0000 </r>
       <r>  -12.8106    1.0000 </r>
       <r>  -12.8073    1.0000 </r>
       <r>  -12.8072    1.0000 </r>
       <r>  -12.8044    1.0000 </r>
       <r>  -12.8039    1.0000 </r>
       <r>  -12.8010    1.0000 </r>
       <r>  -12.7997    1.0000 </r>
       <r>  -12.7966    1.0000 </r>
       <r>  -12.7947    1.0000 </r>
       <r>  -12.7935    1.0000 </r>
       <r>  -12.7927    1.0000 </r>
       <r>  -12.7914    1.0000 </r>
       <r>  -12.7880    1.0000 </r>
       <r>  -12.7839    1.0000 </r>
       <r>  -12.7820    1.0000 </r>
       <r>  -12.7798    1.0000 </r>
       <r>  -12.7769    1.0000 </r>
       <r>  -12.7713    1.0000 </r>
       <r>  -12.7658    1.0000 </r>
       <r>  -12.7657    1.0000 </r>
       <r>  -12.7619    1.0000 </r>
       <r>  -12.7607    1.0000 </r>
       <r>  -12.7558    1.0000 </r>
       <r>  -12.7556    1.0000 </r>
       <r>  -12.7526    1.0000 </r>
       <r>  -12.7488    1.0000 </r>
       <r>  -12.7487    1.0000 </r>
       <r>  -12.7460    1.0000 </r>
       <r>  -12.7436    1.0000 </r>
       <r>  -12.7371    1.0000 </r>
       <r>  -12.7280    1.0000 </r>
       <r>  -12.7276    1.0000 </r>
       <r>  -12.7232    1.0000 </r>
       <r>  -12.7206    1.0000 </r>
       <r>  -12.7190    1.0000 </r>
       <r>  -12.7148    1.0000 </r>
       <r>  -12.7102    1.0000 </r>
       <r>  -12.7082    1.0000 </r>
       <r>  -12.7065    1.0000 </r>
       <r>  -12.7002    1.0000 </r>
       <r>  -12.6973    1.0000 </r>
       <r>  -12.6930    1.0000 </r>
       <r>  -12.6919    1.0000 </r>
       <r>  -12.6879    1.0000 </r>
       <r>  -12.6865    1.0000 </r>
       <r>  -12.6820    1.0000 </r>
       <r>  -12.6779    1.0000 </r>
       <r>  -12.6764    1.0000 </r>
       <r>  -12.6755    1.0000 </r>
       <r>  -12.6716    1.0000 </r>
       <r>  -12.6708    1.0000 </r>
       <r>  -12.6693    1.0000 </r>
       <r>  -12.6684    1.0000 </r>
       <r>  -12.6672    1.0000 </r>
       <r>  -12.6669    1.0000 </r>
       <r>  -12.6643    1.0000 </r>
       <r>  -12.6606    1.0000 </r>
       <r>  -12.6571    1.0000 </r>
       <r>  -12.6541    1.0000 </r>
       <r>  -12.6526    1.0000 </r>
       <r>  -12.6495    1.0000 </r>
       <r>  -12.6430    1.0000 </r>
       <r>  -12.6427    1.0000 </r>
       <r>  -12.6410    1.0000 </r>
       <r>  -12.6371    1.0000 </r>
       <r>  -12.6364    1.0000 </r>
       <r>  -12.6329    1.0000 </r>
       <r>  -12.6317    1.0000 </r>
       <r>  -12.6291    1.0000 </r>
       <r>  -12.6248    1.0000 </r>
       <r>  -12.6228    1.0000 </r>
       <r>  -12.6191    1.0000 </r>
       <r>  -12.6165    1.0000 </r>
       <r>  -12.6157    1.0000 </r>
       <r>  -12.6090    1.0000 </r>
       <r>  -12.6048    1.0000 </r>
       <r>  -12.6031    1.0000 </r>
       <r>  -12.5993    1.0000 </r>
       <r>  -12.5943    1.0000 </r>
       <r>  -12.5926    1.0000 </r>
       <r>  -12.5910    1.0000 </r>
       <r>  -12.5887    1.0000 </r>
       <r>  -12.5881    1.0000 </r>
       <r>  -12.5835    1.0000 </r>
       <r>  -12.5821    1.0000 </r>
       <r>  -12.5798    1.0000 </r>
       <r>  -12.5771    1.0000 </r>
       <r>  -12.5713    1.0000 </r>
       <r>  -12.5713    1.0000 </r>
       <r>  -12.5696    1.0000 </r>
       <r>  -12.5659    1.0000 </r>
       <r>  -12.5630    1.0000 </r>
       <r>  -12.5622    1.0000 </r>
       <r>  -12.5557    1.0000 </r>
       <r>  -12.5549    1.0000 </r>
       <r>  -12.5488    1.0000 </r>
       <r>  -12.5486    1.0000 </r>
       <r>  -12.5437    1.0000 </r>
       <r>  -12.5430    1.0000 </r>
       <r>  -12.5414    1.0000 </r>
       <r>  -12.5407    1.0000 </r>
       <r>  -12.5344    1.0000 </r>
       <r>  -12.5276    1.0000 </r>
       <r>  -12.5237    1.0000 </r>
       <r>  -12.5217    1.0000 </r>
       <r>  -12.5194    1.0000 </r>
       <r>  -12.5130    1.0000 </r>
       <r>  -12.5122    1.0000 </r>
       <r>  -12.4951    1.0000 </r>
       <r>  -12.4871    1.0000 </r>
       <r>  -12.4863    1.0000 </r>
       <r>  -12.4693    1.0000 </r>
       <r>  -12.4599    1.0000 </r>
       <r>  -12.4446    1.0000 </r>
[...]
       <r>   -12.0675   146.3209   565.0102 </r>
       <r>   -11.9309   158.4707   586.6592 </r>
       <r>   -11.7942   124.8467   603.7148 </r>
       <r>   -11.6576    80.0675   614.6530 </r>
       <r>   -11.5210    46.3961   620.9913 </r>
       <r>   -11.3844     7.3834   621.9999 </r>
       <r>   -11.2478     0.0006   622.0000 </r>
       <r>   -11.1112     0.0000   622.0000 </r>
       <r>   -10.9746     0.0000   622.0000 </r>
       <r>   -10.8380     0.0000   622.0000 </r>
       <r>   -10.7013     0.0000   622.0000 </r>
       <r>   -10.5647     0.0000   622.0000 </r>
       <r>   -10.4281     0.0000   622.0000 </r>
       <r>   -10.2915     0.0000   622.0000 </r>
       <r>   -10.1549     0.0000   622.0000 </r>
       <r>   -10.0183     0.0000   622.0000 </r>
       <r>    -9.8817     0.0000   622.0000 </r>
       <r>    -9.7451     0.0000   622.0000 </r>
       <r>    -9.6084     0.0960   622.0131 </r>
       <r>    -9.4718    13.3010   623.8302 </r>
       <r>    -9.3352     1.2430   624.0000 </r>
       <r>    -9.1986     0.0000   624.0000 </r>
       <r>    -9.0620     0.0000   624.0000 </r>
       <r>    -8.9254     0.0000   624.0000 </r>
       <r>    -8.7888     0.0000   624.0000 </r>
       <r>    -8.6522     0.0000   624.0000 </r>
       <r>    -8.5155     0.0000   624.0000 </r>
       <r>    -8.3789     0.0000   624.0000 </r>
       <r>    -8.2423     0.0000   624.0000 </r>
       <r>    -8.1057     0.0000   624.0000 </r>
       <r>    -7.9691     0.0000   624.0000 </r>
       <r>    -7.8325     0.0000   624.0000 </r>
       <r>    -7.6959     0.0000   624.0000 </r>
       <r>    -7.5593     0.0000   624.0000 </r>
       <r>    -7.4227     0.0000   624.0000 </r>
       <r>    -7.2860     0.0000   624.0000 </r>
       <r>    -7.1494     0.0000   624.0000 </r>
       <r>    -7.0128     0.0000   624.0000 </r>
       <r>    -6.8762     0.0000   624.0000 </r>
       <r>    -6.7396     0.0000   624.0000 </r>
       <r>    -6.6030     0.0000   624.0000 </r>
       <r>    -6.4664     0.0000   624.0000 </r>
       <r>    -6.3298     0.0000   624.0000 </r>
       <r>    -6.1931     0.0000   624.0000 </r>
       <r>    -6.0565     0.0000   624.0000 </r>
       <r>    -5.9199     0.0000   624.0000 </r>
       <r>    -5.7833     0.0000   624.0000 </r>
       <r>    -5.6467     0.0000   624.0000 </r>
       <r>    -5.5101     0.0000   624.0000 </r>
       <r>    -5.3735     0.0000   624.0000 </r>
       <r>    -5.2369     0.3991   624.0545 </r>
       <r>    -5.1002     4.2054   624.6290 </r>
       <r>    -4.9636    14.7535   626.6446 </r>
       <r>    -4.8270    18.7568   629.2070 </r>
       <r>    -4.6904    34.9734   633.9848 </r>
       <r>    -4.5538    22.4052   637.0456 </r>
       <r>    -4.4172    46.2809   643.3681 </r>
       <r>    -4.2806    38.5753   648.6380 </r>
       <r>    -4.1440    58.2571   656.5966 </r>
       <r>    -4.0073    51.8762   663.6835 </r>
       <r>    -3.8707    44.2036   669.7223 </r>
       <r>    -3.7341    47.0199   676.1457 </r>
       <r>    -3.5975    42.3784   681.9351 </r>
       <r>    -3.4609    35.2287   686.7478 </r>
       <r>    -3.3243    32.4252   691.1775 </r>
       <r>    -3.1877    28.1207   695.0191 </r>
       <r>    -3.0511    37.3836   700.1262 </r>
       <r>    -2.9144    34.6182   704.8555 </r>
       <r>    -2.7778    42.2616   710.6289 </r>
       <r>    -2.6412    29.1208   714.6072 </r>
       <r>    -2.5046    34.4302   719.3107 </r>
       <r>    -2.3680    42.7437   725.1500 </r>
       <r>    -2.2314    36.2580   730.1033 </r>
       <r>    -2.0948    52.6651   737.2980 </r>
       <r>    -1.9582    32.0124   741.6713 </r>
       <r>    -1.8216    44.9302   747.8093 </r>
       <r>    -1.6849    76.2546   758.2266 </r>
       <r>    -1.5483    64.8687   767.0884 </r>
       <r>    -1.4117    53.3213   774.3728 </r>
       <r>    -1.2751    69.0258   783.8026 </r>
       <r>    -1.1385    58.6023   791.8083 </r>
       <r>    -1.0019    46.4300   798.1512 </r>
       <r>    -0.8653    61.9413   806.6132 </r>
       <r>    -0.7287    77.2541   817.1670 </r>
       <r>    -0.5920    64.6033   825.9926 </r>
       <r>    -0.4554    77.9549   836.6422 </r>
       <r>    -0.3188    51.9118   843.7340 </r>
       <r>    -0.1822    71.3908   853.4868 </r>
       <r>    -0.0456    72.7108   863.4200 </r>
       <r>     0.0910    79.1678   874.2353 </r>
       <r>     0.2276    78.5651   884.9683 </r>
       <r>     0.3642    65.7241   893.9470 </r>
       <r>     0.5009    64.2187   902.7200 </r>
       <r>     0.6375    89.6007   914.9606 </r>
       <r>     0.7741    91.1802   927.4169 </r>
       <r>     0.9107    93.9282   940.2486 </r>
       <r>     1.0473    88.2774   952.3084 </r>
       <r>     1.1839    98.3969   965.7506 </r>
       <r>     1.3205   124.1758   982.7145 </r>
       <r>     1.4571   124.3747   999.7056 </r>
       <r>     1.5938   131.3623  1017.6513 </r>
       <r>     1.7304    97.5063  1030.9719 </r>
       <r>     1.8670    61.1104  1039.3203 </r>
       <r>     2.0036    53.0581  1046.5687 </r>
       <r>     2.1402    24.7137  1049.9448 </r>
       <r>     2.2768     1.1837  1050.1065 </r>
       <r>     2.4134     8.2645  1051.2356 </r>
       <r>     2.5500    18.8229  1053.8070 </r>
       <r>     2.6866     1.4126  1054.0000 </r>
       <r>     2.8233     0.0000  1054.0000 </r>
       <r>     2.9599     0.0000  1054.0000 </r>
       <r>     3.0965     0.0000  1054.0000 </r>
       <r>     3.2331     0.0000  1054.0000 </r>
       <r>     3.3697     0.0000  1054.0000 </r>
       <r>     3.5063     0.0000  1054.0000 </r>
       <r>     3.6429     0.0000  1054.0000 </r>
       <r>     3.7795     0.0000  1054.0000 </r>
       <r>     3.9162     0.0000  1054.0000 </r>
       <r>     4.0528     0.0347  1054.0047 </r>
       <r>     4.1894    10.9757  1055.5042 </r>
       <r>     4.3260     3.6295  1056.0000 </r>
       <r>     4.4626     0.0001  1056.0000 </r>
       <r>     4.5992     0.0000  1056.0000 </r>
       <r>     4.7358     0.0000  1056.0000 </r>
       <r>     4.8724     0.0000  1056.0000 </r>
       <r>     5.0091     0.0000  1056.0000 </r>
       <r>     5.1457     0.0000  1056.0000 </r>
       <r>     5.2823     0.0000  1056.0000 </r>
       <r>     5.4189     0.0000  1056.0000 </r>
       <r>     5.5555     0.0000  1056.0000 </r>
       <r>     5.6921     0.0000  1056.0000 </r>
       <r>     5.8287     0.0000  1056.0000 </r>
       <r>     5.9653     0.0000  1056.0000 </r>
       <r>     6.1020     0.0000  1056.0000 </r>
       <r>     6.2386     0.0000  1056.0000 </r>
       <r>     6.3752     0.0000  1056.0000 </r>
       <r>     6.5118     0.0000  1056.0000 </r>
       <r>     6.6484     0.0006  1056.0001 </r>
       <r>     6.7850     1.2298  1056.1681 </r>
       <r>     6.9216     0.5996  1056.2500 </r>
       <r>     7.0582     0.0000  1056.2500 </r>
       <r>     7.1949     0.0000  1056.2500 </r>
       <r>     7.3315     0.0000  1056.2500 </r>
       <r>     7.4681     0.0041  1056.2506 </r>
       <r>     7.6047     2.5182  1056.5946 </r>
       <r>     7.7413     4.2386  1057.1736 </r>
       <r>     7.8779     0.6103  1057.2570 </r>
       <r>     8.0145     3.4104  1057.7229 </r>
       <r>     8.1511     3.8427  1058.2479 </r>
       <r>     8.2877     0.0156  1058.2500 </r>
       <r>     8.4244     0.1343  1058.2683 </r>
       <r>     8.5610     7.9637  1059.3563 </r>
       <r>     8.6976     6.0260  1060.1795 </r>
       <r>     8.8342     4.4020  1060.7809 </r>
       <r>     8.9708     6.6587  1061.6905 </r>
       <r>     9.1074     2.7872  1062.0713 </r>
       <r>     9.2440     4.6439  1062.7057 </r>
       <r>     9.3806    12.7078  1064.4418 </r>
       <r>     9.5173     3.8912  1064.9733 </r>
       <r>     9.6539     2.3175  1065.2899 </r>
       <r>     9.7905    10.8279  1066.7692 </r>
       <r>     9.9271    15.1561  1068.8397 </r>
       <r>    10.0637    10.6626  1070.2963 </r>
       <r>    10.2003     6.8224  1071.2283 </r>
       <r>    10.3369    18.7094  1073.7843 </r>
       <r>    10.4735    26.8618  1077.4539 </r>
       <r>    10.6102    34.0542  1082.1061 </r>
       <r>    10.7468    40.9383  1087.6988 </r>
       <r>    10.8834    46.3449  1094.0301 </r>
       <r>    11.0200    29.6537  1098.0812 </r>
       <r>    11.1566    21.0191  1100.9526 </r>
       <r>    11.2932    34.8696  1105.7162 </r>
       <r>    11.4298    28.8678  1109.6599 </r>
       <r>    11.5664    30.5696  1113.8361 </r>
       <r>    11.7031    39.1872  1119.1896 </r>
       <r>    11.8397    37.4518  1124.3059 </r>
       <r>    11.9763    40.5669  1129.8479 </r>
       <r>    12.1129    22.8782  1132.9733 </r>
       <r>    12.2495    25.1856  1136.4140 </r>
       <r>    12.3861    42.7013  1142.2475 </r>
       <r>    12.5227    48.1610  1148.8268 </r>
       <r>    12.6593    44.1242  1154.8547 </r>
       <r>    12.7959    24.7853  1158.2407 </r>
       <r>    12.9326    14.6364  1160.2402 </r>
       <r>    13.0692    13.2226  1162.0466 </r>
       <r>    13.2058    21.6542  1165.0048 </r>
       <r>    13.3424    26.1745  1168.5806 </r>
       <r>    13.4790    23.2620  1171.7584 </r>
       <r>    13.6156    27.7469  1175.5490 </r>
       <r>    13.7522    26.1354  1179.1194 </r>
       <r>    13.8888    28.3550  1182.9930 </r>
       <r>    14.0255    31.7078  1187.3247 </r>
       <r>    14.1621    33.2027  1191.8606 </r>
       <r>    14.2987    14.8578  1193.8904 </r>
       <r>    14.4353     6.9833  1194.8444 </r>
       <r>    14.5719    21.9437  1197.8421 </r>
       <r>    14.7085    16.8998  1200.1509 </r>
       <r>    14.8451    21.8000  1203.1290 </r>
       <r>    14.9817    19.4770  1205.7898 </r>
       <r>    15.1184    21.8598  1208.7761 </r>
       <r>    15.2550    28.2058  1212.6294 </r>
       <r>    15.3916    29.5641  1216.6682 </r>
       <r>    15.5282    30.0425  1220.7724 </r>
       <r>    15.6648    28.4295  1224.6562 </r>
       <r>    15.8014    24.5682  1228.0125 </r>
       <r>    15.9380    25.0194  1231.4304 </r>
       <r>    16.0746    24.8636  1234.8271 </r>
       <r>    16.2113    18.3021  1237.3274 </r>
       <r>    16.3479    25.7415  1240.8440 </r>
       <r>    16.4845    21.1624  1243.7351 </r>
       <r>    16.6211    22.0293  1246.7445 </r>
       <r>    16.7577    19.7495  1249.4425 </r>
       <r>    16.8943    20.6452  1252.2629 </r>
       <r>    17.0309    16.4224  1254.5064 </r>
       <r>    17.1675    18.6470  1257.0538 </r>
       <r>    17.3041    16.4362  1259.2992 </r>
       <r>    17.4408    10.0296  1260.6694 </r>
       <r>    17.5774    10.4008  1262.0903 </r>
       <r>    17.7140     6.7335  1263.0101 </r>
       <r>    17.8506     5.0550  1263.7007 </r>
       <r>    17.9872     1.0230  1263.8405 </r>
       <r>    18.1238     2.8496  1264.2298 </r>
       <r>    18.2604     3.3858  1264.6923 </r>
       <r>    18.3970     1.3969  1264.8831 </r>
       <r>    18.5337     4.1226  1265.4463 </r>
       <r>    18.6703     4.0369  1265.9978 </r>
       <r>    18.8069     0.0160  1266.0000 </r>
       <r>    18.9435     0.0000  1266.0000 </r>
       <r>    19.0801     0.0000  1266.0000 </r>
       <r>    19.2167     0.0000  1266.0000 </r>
       <r>    19.3533     0.0000  1266.0000 </r>
       <r>    19.4899     0.0000  1266.0000 </r>
       <r>    19.6266     0.0000  1266.0000 </r>
       <r>    19.7632     0.0000  1266.0000 </r>
       <r>    19.8998     0.0000  1266.0000 </r>
       <r>    20.0364     0.0000  1266.0000 </r>
       <r>    20.1730     0.0000  1266.0000 </r>
       <r>    20.3096     0.0000  1266.0000 </r>
       <r>    20.4462     0.0000  1266.0000 </r>
      </set>
     </set>
    </array>
   </total>
  </dos>
 </calculation>
 <structure name="finalpos" >
  <crystal>
   <varray name="basis" >
    <v>       0.00000000      12.28047342       0.00000000 </v>
    <v>       9.14270205       0.00000000       0.00000000 </v>
    <v>       0.00000000      -2.76826177     -11.30069772 </v>
   </varray>
   <i name="volume">   1268.80515525 </i>
   <varray name="rec_basis" >
    <v>       0.00000000       0.08143009      -0.01994742 </v>
    <v>       0.10937686      -0.00000000       0.00000000 </v>
    <v>       0.00000000       0.00000000      -0.08849011 </v>
   </varray>
  </crystal>
  <varray name="positions" >
   <v>       0.65966986       0.99965793       0.15652540 </v>
   <v>       0.65947135       0.99994231       0.65695185 </v>
   <v>       0.65966986       0.33367541       0.15652540 </v>
   <v>       0.65947135       0.33339102       0.65695185 </v>
   <v>       0.65885139       0.66666667       0.15649641 </v>
   <v>       0.65888488       0.66666667       0.65725114 </v>
   <v>       0.84469705       0.16666667       0.34651624 </v>
   <v>       0.84172716       0.16666667       0.84421369 </v>
   <v>       0.84111341       0.49986379       0.34310889 </v>
   <v>       0.84150970       0.49970353       0.84377932 </v>
   <v>       0.84111341       0.83346955       0.34310889 </v>
   <v>       0.84150970       0.83362980       0.84377932 </v>
   <v>       0.59294382       0.16666667       0.39714238 </v>
   <v>       0.59084495       0.16666667       0.89756138 </v>
   <v>       0.59186707       0.49971957       0.39771793 </v>
   <v>       0.59014056       0.50000049       0.89704278 </v>
   <v>       0.59186707       0.83361376       0.39771793 </v>
   <v>       0.59014056       0.83333285       0.89704278 </v>
   <v>       0.90953937       0.00008695       0.10397696 </v>
   <v>       0.90810845       0.99999735       0.60041610 </v>
   <v>       0.90953937       0.33324639       0.10397696 </v>
   <v>       0.90810845       0.33333598       0.60041610 </v>
   <v>       0.90964917       0.66666667       0.10315864 </v>
   <v>       0.90856808       0.66666667       0.60151854 </v>
   <v>       0.15912355       0.16666667       0.15919826 </v>
   <v>       0.15817751       0.16666667       0.65218156 </v>
   <v>       0.16006257       0.49933097       0.15790456 </v>
   <v>       0.15899385       0.49941284       0.65578680 </v>
   <v>       0.16006257       0.83400237       0.15790456 </v>
   <v>       0.15899385       0.83392049       0.65578680 </v>
   <v>       0.34114102       0.99982311       0.34391490 </v>
   <v>       0.34002123       0.00024854       0.84273670 </v>
   <v>       0.34114102       0.33351023       0.34391490 </v>
   <v>       0.34002123       0.33308479       0.84273670 </v>
   <v>       0.34232030       0.66666667       0.34329393 </v>
   <v>       0.34038685       0.66666667       0.84322049 </v>
   <v>       0.08589534       0.00461576       0.39623162 </v>
   <v>       0.09167034       0.00038715       0.89812388 </v>
   <v>       0.08589534       0.32871757       0.39623162 </v>
   <v>       0.09167034       0.33294618       0.89812388 </v>
   <v>       0.09179779       0.66666667       0.39804030 </v>
   <v>       0.09157614       0.66666667       0.89834576 </v>
   <v>       0.40873966       0.16666667       0.10246954 </v>
   <v>       0.40919631       0.16666667       0.60274234 </v>
   <v>       0.40945451       0.49974186       0.10227216 </v>
   <v>       0.40906521       0.49991829       0.60292105 </v>
   <v>       0.40945451       0.83359147       0.10227216 </v>
   <v>       0.40906521       0.83341504       0.60292105 </v>
   <v>       0.99647756       0.16666667       0.12014493 </v>
   <v>       0.99563613       0.16666667       0.62991903 </v>
   <v>       0.99720220       0.50014101       0.12716020 </v>
   <v>       0.99612914       0.49996172       0.62718848 </v>
   <v>       0.99720220       0.83319232       0.12716020 </v>
   <v>       0.99612914       0.83337161       0.62718848 </v>
   <v>       0.50449613       0.00045897       0.37282473 </v>
   <v>       0.50305687       0.00030056       0.87239070 </v>
   <v>       0.50449613       0.33287436       0.37282473 </v>
   <v>       0.50305687       0.33303277       0.87239070 </v>
   <v>       0.50466493       0.66666667       0.37314377 </v>
   <v>       0.50287256       0.66666667       0.87195978 </v>
   <v>       0.67452915       0.16666667       0.28030889 </v>
   <v>       0.67293331       0.16666667       0.78099022 </v>
   <v>       0.67129814       0.50127366       0.27942104 </v>
   <v>       0.67271232       0.50014284       0.78097955 </v>
   <v>       0.67129814       0.83205967       0.27942104 </v>
   <v>       0.67271232       0.83319050       0.78097955 </v>
   <v>       0.82484952       0.99457355       0.21701350 </v>
   <v>       0.82756983       0.99963185       0.71956657 </v>
   <v>       0.82484952       0.33875979       0.21701350 </v>
   <v>       0.82756983       0.33370149       0.71956657 </v>
   <v>       0.82689440       0.66666667       0.21886107 </v>
   <v>       0.82757010       0.66666667       0.71958544 </v>
   <v>       0.82461258       0.99613296       0.44658061 </v>
   <v>       0.83262691       0.99965705       0.94628100 </v>
   <v>       0.82461258       0.33720037       0.44658061 </v>
   <v>       0.83262691       0.33367628       0.94628100 </v>
   <v>       0.83015472       0.66666667       0.44554510 </v>
   <v>       0.83309737       0.66666667       0.94611764 </v>
   <v>       0.66768525       0.16666667       0.05373473 </v>
   <v>       0.66698847       0.16666667       0.55482048 </v>
   <v>       0.66616681       0.50064743       0.05314186 </v>
   <v>       0.66648518       0.50049918       0.55499492 </v>
   <v>       0.66616681       0.83268590       0.05314186 </v>
   <v>       0.66648518       0.83283416       0.55499492 </v>
   <v>       0.49668067       0.00042861       0.12689283 </v>
   <v>       0.49667089       0.99999942       0.62843033 </v>
   <v>       0.49668067       0.33290472       0.12689283 </v>
   <v>       0.49667089       0.33333392       0.62843033 </v>
   <v>       0.49612460       0.66666667       0.12633598 </v>
   <v>       0.49636781       0.66666667       0.62866777 </v>
   <v>       0.00390749       0.16666667       0.87223904 </v>
   <v>       0.00339818       0.50215896       0.37368828 </v>
   <v>       0.00416937       0.49993292       0.87307044 </v>
   <v>       0.00339818       0.83117437       0.37368828 </v>
   <v>       0.00416937       0.83340041       0.87307044 </v>
   <v>       0.17441018       0.99762295       0.28085179 </v>
   <v>       0.17245188       0.00004744       0.78030698 </v>
   <v>       0.17441018       0.33571038       0.28085179 </v>
   <v>       0.17245188       0.33328590       0.78030698 </v>
   <v>       0.17394229       0.66666667       0.28117686 </v>
   <v>       0.17242158       0.66666667       0.78053069 </v>
   <v>       0.32832678       0.16666667       0.22005698 </v>
   <v>       0.32729745       0.16666667       0.71941223 </v>
   <v>       0.32907498       0.50064153       0.21982069 </v>
   <v>       0.32802588       0.50030584       0.72030684 </v>
   <v>       0.32907498       0.83269180       0.21982069 </v>
   <v>       0.32802588       0.83302749       0.72030684 </v>
   <v>       0.33386118       0.16666667       0.44617638 </v>
   <v>       0.33220465       0.16666667       0.94576399 </v>
   <v>       0.33447199       0.50057613       0.44614619 </v>
   <v>       0.33219228       0.49981417       0.94584838 </v>
   <v>       0.33447199       0.83275720       0.44614619 </v>
   <v>       0.33219228       0.83351916       0.94584838 </v>
   <v>       0.16904370       0.00028269       0.05452935 </v>
   <v>       0.17029736       0.99762766       0.55400962 </v>
   <v>       0.16904370       0.33305064       0.05452935 </v>
   <v>       0.17029736       0.33570567       0.55400962 </v>
   <v>       0.16849507       0.66666667       0.05493625 </v>
   <v>       0.16922284       0.66666667       0.55479615 </v>
   <v>       0.99920600       0.16666667       0.36971450 </v>
  </varray>
 </structure>
</modeling>
