 running    4 mpi-ranks, on    1 nodes
 distrk:  each k-point on    1 cores,    4 groups
 distr:  one band on    1 cores,    1 groups
 OpenACC runtime initialized ...    4 GPUs detected
 vasp.6.4.2 20Jul23 (build Nov 12 2023 22:16:35) complex                         
 POSCAR found type information on POSCAR GaO P 
 POSCAR found :  3 types and     119 ions
 scaLAPACK will be used selectively (only on CPU)
 LDA part: xc-table for Pade appr. of Perdew
 POSCAR, INCAR and KPOINTS ok, starting setup
 FFT: planning ... GRIDC
 FFT: planning ... GRID_SOFT
 FFT: planning ... GRID
 WAVECAR not read
 initial charge from wavefunction
 entering main loop
       N       E                     dE             d eps       ncg     rms          ort
DAV:   1    -0.184438769445E+05   -0.18444E+05   -0.54247E+05  5000   0.749E+03
DAV:   2    -0.627500881337E+05   -0.44306E+05   -0.42871E+05  5000   0.122E+03
DAV:   3    -0.676428807494E+05   -0.48928E+04   -0.44263E+04  5000   0.368E+02
DAV:   4    -0.682938140493E+05   -0.65093E+03   -0.57521E+03  5000   0.114E+02
DAV:   5    -0.386877134358E+05    0.29606E+05   -0.74094E+02  5000   0.571E+01
 gam= 0.000 g(H,U,f)=  0.764E+05 0.157E+05 0.129E+02 ort(H,U,f) = 0.000E+00 0.000E+00 0.000E+00
SDA:   6     0.270973725655E+05    0.65785E+05   -0.74094E+02  5000   0.921E+05 0.000E+00
 gam= 0.000 trial= 0.400  step= 0.423 mean= 0.400
 gam= 0.530 g(H,U,f)=  0.284E+05 0.147E+05 0.569E+04 ort(H,U,f) =-0.771E+04-0.100E+05-0.388E+04
CGA:   7     0.817088724178E+04   -0.18926E+05   -0.19487E+05  5000   0.488E+05-0.216E+05
 gam= 0.530 trial= 0.401  step= 0.234 mean= 0.401
 gam= 0.315 g(H,U,f)=  0.119E+05 0.335E+04 0.758E+02 ort(H,U,f) = 0.160E+04 0.276E+04 0.996E+02
CGA:   8     0.392490745709E+04   -0.42460E+04   -0.43726E+04  5000   0.154E+05 0.446E+04
 gam= 0.315 trial= 0.393  step= 0.244 mean= 0.393
 gam= 0.650 g(H,U,f)=  0.716E+04 0.277E+04 0.572E+02 ort(H,U,f) = 0.188E+04 0.170E+03 0.418E+02
CGA:   9     0.219577182929E+04   -0.17291E+04   -0.20414E+04  5000   0.998E+04 0.209E+04
 gam= 0.650 trial= 0.385  step= 0.260 mean= 0.385
 gam= 0.485 g(H,U,f)=  0.377E+04 0.101E+04 0.597E+02 ort(H,U,f) = 0.681E+03 0.777E+03 0.125E+03
CGA:  10     0.106850383357E+04   -0.11273E+04   -0.14748E+04  5000   0.484E+04 0.158E+04
 gam= 0.485 trial= 0.379  step= 0.363 mean= 0.379
 gam= 0.387 g(H,U,f)=  0.173E+04 0.145E+03 0.448E+00 ort(H,U,f) = 0.450E+03 0.222E+03 0.413E+00
CGA:  11     0.626033754091E+02   -0.10059E+04   -0.10178E+04  5000   0.187E+04 0.673E+03
 gam= 0.387 trial= 0.378  step= 0.467 mean= 0.378
 gam= 0.439 g(H,U,f)=  0.724E+03 0.983E+02 0.749E+00 ort(H,U,f) =-0.811E+01 0.138E+03-0.225E+01
CGA:  12    -0.447273684317E+03   -0.50988E+03   -0.49902E+03  5000   0.823E+03 0.128E+03
 gam= 0.439 trial= 0.383  step= 0.617 mean= 0.383
 gam= 0.527 g(H,U,f)=  0.376E+03 0.574E+02 0.975E+00 ort(H,U,f) =-0.132E+03 0.113E+03 0.523E+01
CGA:  13    -0.718586253163E+03   -0.27131E+03   -0.27136E+03  5000   0.434E+03-0.141E+02
 gam= 0.527 trial= 0.394  step= 0.546 mean= 0.394
 gam= 0.515 g(H,U,f)=  0.202E+03 0.218E+02 0.235E-01 ort(H,U,f) =-0.508E+02 0.465E+02 0.162E+00
CGA:  14    -0.836029156678E+03   -0.11744E+03   -0.11650E+03  5000   0.224E+03-0.410E+01
 gam= 0.515 trial= 0.402  step= 0.507 mean= 0.402
 gam= 0.435 g(H,U,f)=  0.866E+02 0.104E+02 0.330E+00 ort(H,U,f) =-0.174E+00 0.231E+01 0.300E+00
CGA:  15    -0.892507142276E+03   -0.56478E+02   -0.56166E+02  5000   0.973E+02 0.244E+01
 gam= 0.435 trial= 0.407  step= 0.522 mean= 0.407
 gam= 0.485 g(H,U,f)=  0.404E+02 0.679E+01 0.570E-01 ort(H,U,f) =-0.420E+01 0.249E+01 0.267E+00
CGA:  16    -0.918122636725E+03   -0.25615E+02   -0.25655E+02  5000   0.472E+02-0.144E+01
 gam= 0.485 trial= 0.413  step= 0.584 mean= 0.413
 gam= 0.532 g(H,U,f)=  0.206E+02 0.454E+01 0.578E-03 ort(H,U,f) =-0.393E+01 0.359E+01 0.582E-02
CGA:  17    -0.931699689169E+03   -0.13577E+02   -0.13586E+02  5000   0.251E+02-0.333E+00
 gam= 0.532 trial= 0.422  step= 0.551 mean= 0.422
 gam= 0.533 g(H,U,f)=  0.111E+02 0.227E+01 0.347E-03 ort(H,U,f) =-0.340E+01 0.315E+01 0.651E-03
CGA:  18    -0.938553025852E+03   -0.68533E+01   -0.68709E+01  5000   0.134E+02-0.253E+00
 gam= 0.533 trial= 0.428  step= 0.589 mean= 0.428
 gam= 0.547 g(H,U,f)=  0.585E+01 0.146E+01 0.144E-01 ort(H,U,f) =-0.172E+01 0.218E+01 0.189E-01
CGA:  19    -0.942513602223E+03   -0.39606E+01   -0.39036E+01  5000   0.733E+01 0.483E+00
 gam= 0.547 trial= 0.436  step= 0.502 mean= 0.436
 gam= 0.469 g(H,U,f)=  0.296E+01 0.477E+00 0.249E-09 ort(H,U,f) =-0.626E-01 0.703E+00 0.278E-08
CGA:  20    -0.944455266154E+03   -0.19417E+01   -0.19062E+01  5000   0.344E+01 0.640E+00
 gam= 0.469 trial= 0.439  step= 0.597 mean= 0.439
 gam= 0.476 g(H,U,f)=  0.145E+01 0.188E+00 0.913E-12 ort(H,U,f) =-0.174E+00 0.185E+00-0.318E-11
CGA:  21    -0.945571376500E+03   -0.11161E+01   -0.11152E+01  5000   0.163E+01 0.116E-01
 gam= 0.476 trial= 0.447  step= 0.583 mean= 0.447
 gam= 0.560 g(H,U,f)=  0.805E+00 0.111E+00 0.309E-14 ort(H,U,f) =-0.563E-01 0.597E-01-0.734E-15
CGA:  22    -0.946049174171E+03   -0.47780E+00   -0.47759E+00  5000   0.915E+00 0.345E-02
 gam= 0.560 trial= 0.454  step= 0.526 mean= 0.454
 gam= 0.444 g(H,U,f)=  0.343E+00 0.632E-01 0.143E-13 ort(H,U,f) =-0.399E-01 0.399E-01-0.186E-13
CGA:  23    -0.946290371879E+03   -0.24120E+00   -0.24123E+00  5000   0.406E+00-0.361E-04
 gam= 0.444 trial= 0.458  step= 0.535 mean= 0.458
 gam= 0.525 g(H,U,f)=  0.174E+00 0.398E-01 0.974E-12 ort(H,U,f) =-0.392E-01 0.390E-01 0.241E-11
CGA:  24    -0.946399092284E+03   -0.10872E+00   -0.10874E+00  5000   0.213E+00-0.204E-03
 gam= 0.525 trial= 0.462  step= 0.602 mean= 0.462
 gam= 0.500 g(H,U,f)=  0.891E-01 0.175E-01 0.807E-16 ort(H,U,f) =-0.271E-01 0.272E-01 0.317E-15
CGA:  25    -0.946463288719E+03   -0.64196E-01   -0.64203E-01  5000   0.107E+00 0.306E-04
 gam= 0.500 trial= 0.469  step= 0.602 mean= 0.469
 gam= 0.542 g(H,U,f)=  0.501E-01 0.764E-02 0.361E-13 ort(H,U,f) =-0.108E-01 0.109E-01 0.125E-12
CGA:  26    -0.946495401792E+03   -0.32113E-01   -0.32107E-01  5000   0.578E-01 0.112E-03
 gam= 0.542 trial= 0.475  step= 0.618 mean= 0.475
 gam= 0.552 g(H,U,f)=  0.279E-01 0.396E-02 0.553E-16 ort(H,U,f) =-0.316E-02 0.312E-02 0.231E-14
CGA:  27    -0.946513261627E+03   -0.17860E-01   -0.17863E-01  5000   0.319E-01-0.352E-04
 gam= 0.552 trial= 0.482  step= 0.536 mean= 0.482
 gam= 0.471 g(H,U,f)=  0.130E-01 0.205E-02 0.207E-14 ort(H,U,f) =-0.894E-03 0.876E-03-0.285E-13
CGA:  28    -0.946521802772E+03   -0.85411E-02   -0.85418E-02  5000   0.150E-01-0.176E-04
 gam= 0.471 trial= 0.485  step= 0.544 mean= 0.485
 gam= 0.513 g(H,U,f)=  0.636E-02 0.135E-02 0.123E-18 ort(H,U,f) =-0.524E-03 0.571E-03-0.739E-20
CGA:  29    -0.946525885298E+03   -0.40825E-02   -0.40811E-02  5000   0.771E-02 0.471E-04
 gam= 0.513 trial= 0.488  step= 0.572 mean= 0.488
 gam= 0.492 g(H,U,f)=  0.301E-02 0.779E-03 0.278E-17 ort(H,U,f) =-0.686E-03 0.728E-03 0.264E-17
CGA:  30    -0.946528098118E+03   -0.22128E-02   -0.22110E-02  5000   0.379E-02 0.426E-04
 gam= 0.492 trial= 0.492  step= 0.600 mean= 0.492
 gam= 0.545 g(H,U,f)=  0.171E-02 0.356E-03 0.707E-17 ort(H,U,f) =-0.522E-03 0.531E-03 0.216E-16
CGA:  31    -0.946529242231E+03   -0.11441E-02   -0.11436E-02  5000   0.207E-02 0.975E-05
 gam= 0.545 trial= 0.498  step= 0.641 mean= 0.498
 gam= 0.576 g(H,U,f)=  0.105E-02 0.141E-03 0.616E-17 ort(H,U,f) =-0.223E-03 0.218E-03 0.751E-16
CGA:  32    -0.946529905256E+03   -0.66303E-03   -0.66346E-03  5000   0.119E-02-0.598E-05
 gam= 0.576 trial= 0.505  step= 0.574 mean= 0.505
 gam= 0.517 g(H,U,f)=  0.552E-03 0.632E-04 0.212E-17 ort(H,U,f) =-0.412E-04 0.417E-04-0.104E-15
CGA:  33    -0.946530245923E+03   -0.34067E-03   -0.34066E-03  5000   0.615E-03 0.544E-06
 gam= 0.517 trial= 0.508  step= 0.549 mean= 0.508
 gam= 0.514 g(H,U,f)=  0.269E-03 0.472E-04 0.303E-18 ort(H,U,f) = 0.413E-07 0.320E-05 0.794E-17
CGA:  34    -0.946530414794E+03   -0.16887E-03   -0.16881E-03  5000   0.316E-03 0.324E-05
 gam= 0.514 trial= 0.510  step= 0.563 mean= 0.510
 gam= 0.492 g(H,U,f)=  0.125E-03 0.303E-04 0.507E-17 ort(H,U,f) =-0.147E-04 0.145E-04-0.256E-16
CGA:  35    -0.946530504200E+03   -0.89407E-04   -0.89414E-04  5000   0.156E-03-0.261E-06
 gam= 0.492 trial= 0.513  step= 0.609 mean= 0.513
 gam= 0.560 g(H,U,f)=  0.712E-04 0.160E-04 0.328E-15 ort(H,U,f) =-0.176E-04 0.150E-04-0.369E-15
CGA:  36    -0.946530551454E+03   -0.47254E-04   -0.47379E-04  5000   0.872E-04-0.262E-05
 gam= 0.560 trial= 0.518  step= 0.623 mean= 0.518
 gam= 0.000 g(H,U,f)=  0.458E-04 0.774E-05 0.185E-21 ort(H,U,f) =-0.108E-04 0.959E-05 0.217E-21
SDA:  37    -0.946530578112E+03   -0.26658E-04   -0.26720E-04  5000   0.535E-04-0.118E-05
 gam= 0.000 trial= 0.523  step= 0.722 mean= 0.523
 gam= 0.439 g(H,U,f)=  0.197E-04 0.379E-05 0.918E-21 ort(H,U,f) =-0.293E-05 0.464E-05 0.216E-20
CGA:  38    -0.946530597604E+03   -0.19492E-04   -0.19322E-04  5000   0.235E-04 0.171E-05
 gam= 0.439 trial= 0.533  step= 0.554 mean= 0.533
 gam= 0.485 g(H,U,f)=  0.969E-05 0.171E-05 0.734E-20 ort(H,U,f) =-0.385E-05 0.382E-05 0.277E-19
CGA:  39    -0.946530604320E+03   -0.67167E-05   -0.67170E-05  5000   0.114E-04-0.313E-07
 gam= 0.485 trial= 0.534  step= 0.498 mean= 0.534
 final diagonalization
   1 F= -.94653060E+03 E0= -.94653060E+03  d E =-.412207E-15
 writing wavefunctions
Warning: ieee_invalid is signaling
Warning: ieee_divide_by_zero is signaling
Warning: ieee_underflow is signaling
Warning: ieee_inexact is signaling
FORTRAN STOP
Warning: ieee_invalid is signaling
Warning: ieee_divide_by_zero is signaling
Warning: ieee_underflow is signaling
Warning: ieee_inexact is signaling
FORTRAN STOP
Warning: ieee_invalid is signaling
Warning: ieee_divide_by_zero is signaling
Warning: ieee_invalid is signaling
Warning: ieee_divide_by_zero is signaling
Warning: ieee_underflow is signaling
Warning: ieee_inexact is signaling
FORTRAN STOP
Warning: ieee_underflow is signaling
Warning: ieee_inexact is signaling
FORTRAN STOP
