       N       E                     dE             d eps       ncg     rms          ort
DAV:   1    -0.184438769445E+05   -0.18444E+05   -0.54247E+05  5000   0.749E+03
DAV:   2    -0.627500881337E+05   -0.44306E+05   -0.42871E+05  5000   0.122E+03
DAV:   3    -0.676428807494E+05   -0.48928E+04   -0.44263E+04  5000   0.368E+02
DAV:   4    -0.682938140493E+05   -0.65093E+03   -0.57521E+03  5000   0.114E+02
DAV:   5    -0.386877134358E+05    0.29606E+05   -0.74094E+02  5000   0.571E+01
SDA:   6     0.270973725655E+05    0.65785E+05   -0.74094E+02  5000   0.921E+05 0.000E+00
CGA:   7     0.817088724178E+04   -0.18926E+05   -0.19487E+05  5000   0.488E+05-0.216E+05
CGA:   8     0.392490745709E+04   -0.42460E+04   -0.43726E+04  5000   0.154E+05 0.446E+04
CGA:   9     0.219577182929E+04   -0.17291E+04   -0.20414E+04  5000   0.998E+04 0.209E+04
CGA:  10     0.106850383357E+04   -0.11273E+04   -0.14748E+04  5000   0.484E+04 0.158E+04
CGA:  11     0.626033754091E+02   -0.10059E+04   -0.10178E+04  5000   0.187E+04 0.673E+03
CGA:  12    -0.447273684317E+03   -0.50988E+03   -0.49902E+03  5000   0.823E+03 0.128E+03
CGA:  13    -0.718586253163E+03   -0.27131E+03   -0.27136E+03  5000   0.434E+03-0.141E+02
CGA:  14    -0.836029156678E+03   -0.11744E+03   -0.11650E+03  5000   0.224E+03-0.410E+01
CGA:  15    -0.892507142276E+03   -0.56478E+02   -0.56166E+02  5000   0.973E+02 0.244E+01
CGA:  16    -0.918122636725E+03   -0.25615E+02   -0.25655E+02  5000   0.472E+02-0.144E+01
CGA:  17    -0.931699689169E+03   -0.13577E+02   -0.13586E+02  5000   0.251E+02-0.333E+00
CGA:  18    -0.938553025852E+03   -0.68533E+01   -0.68709E+01  5000   0.134E+02-0.253E+00
CGA:  19    -0.942513602223E+03   -0.39606E+01   -0.39036E+01  5000   0.733E+01 0.483E+00
CGA:  20    -0.944455266154E+03   -0.19417E+01   -0.19062E+01  5000   0.344E+01 0.640E+00
CGA:  21    -0.945571376500E+03   -0.11161E+01   -0.11152E+01  5000   0.163E+01 0.116E-01
CGA:  22    -0.946049174171E+03   -0.47780E+00   -0.47759E+00  5000   0.915E+00 0.345E-02
CGA:  23    -0.946290371879E+03   -0.24120E+00   -0.24123E+00  5000   0.406E+00-0.361E-04
CGA:  24    -0.946399092284E+03   -0.10872E+00   -0.10874E+00  5000   0.213E+00-0.204E-03
CGA:  25    -0.946463288719E+03   -0.64196E-01   -0.64203E-01  5000   0.107E+00 0.306E-04
CGA:  26    -0.946495401792E+03   -0.32113E-01   -0.32107E-01  5000   0.578E-01 0.112E-03
CGA:  27    -0.946513261627E+03   -0.17860E-01   -0.17863E-01  5000   0.319E-01-0.352E-04
CGA:  28    -0.946521802772E+03   -0.85411E-02   -0.85418E-02  5000   0.150E-01-0.176E-04
CGA:  29    -0.946525885298E+03   -0.40825E-02   -0.40811E-02  5000   0.771E-02 0.471E-04
CGA:  30    -0.946528098118E+03   -0.22128E-02   -0.22110E-02  5000   0.379E-02 0.426E-04
CGA:  31    -0.946529242231E+03   -0.11441E-02   -0.11436E-02  5000   0.207E-02 0.975E-05
CGA:  32    -0.946529905256E+03   -0.66303E-03   -0.66346E-03  5000   0.119E-02-0.598E-05
CGA:  33    -0.946530245923E+03   -0.34067E-03   -0.34066E-03  5000   0.615E-03 0.544E-06
CGA:  34    -0.946530414794E+03   -0.16887E-03   -0.16881E-03  5000   0.316E-03 0.324E-05
CGA:  35    -0.946530504200E+03   -0.89407E-04   -0.89414E-04  5000   0.156E-03-0.261E-06
CGA:  36    -0.946530551454E+03   -0.47254E-04   -0.47379E-04  5000   0.872E-04-0.262E-05
SDA:  37    -0.946530578112E+03   -0.26658E-04   -0.26720E-04  5000   0.535E-04-0.118E-05
CGA:  38    -0.946530597604E+03   -0.19492E-04   -0.19322E-04  5000   0.235E-04 0.171E-05
CGA:  39    -0.946530604320E+03   -0.67167E-05   -0.67170E-05  5000   0.114E-04-0.313E-07
   1 F= -.94653060E+03 E0= -.94653060E+03  d E =-.412207E-15
