 vasp.6.4.2 20Jul23 (build Nov 12 2023 22:16:35) complex                         
 executed on              LinuxNV date 2025.03.28  19:43:20
 running    4 mpi-ranks, on    1 nodes
 distrk:  each k-point on    1 cores,    4 groups
 distr:  one band on NCORE=   1 cores,    1 groups
 OpenACC runtime initialized ...    4 GPUs detected


--------------------------------------------------------------------------------------------------------


 INCAR:
   PREC = Normal
   ENCUT = 450
   NELM = 500
   IBRION = -1
   ISPIN = 1
   NSW = 0
   ISIF = 2
   EDIFF = 1E-5
   EDIFFG = -5E-3
   ISTART = 0
   ICHARG = 0
   ISMEAR = 0
   SIGMA = 0.05
   LWAVE = .T.
   LCHARG = .T.
   LREAL = Auto
   LPLANE = .TRUE.
   NPAR = 1
   KPAR = 4
   NCORE = 1
   ALGO = All
   LHFCALC = .TRUE.
   HSE06 = .TRUE.
   HFSCREEN = 0.2
   TIME = 0.4
   AEXX = 0.32
   LMAXFOCK = 4
   PRECFOCK = Fast

 POTCAR:    PAW_PBE Ga_d 06Jul2010                
 POTCAR:     PAW_PBE O 08Apr2002                  
 POTCAR:    PAW_PBE P 06Sep2000                   
 POTCAR:    PAW_PBE Ga_d 06Jul2010                
   SHA256 =  a60ddf36e14f00ea098d9e3914b3745f1b7105e68786148f49ae384e44b4226c Ga_d/POTCAR           
   COPYR  = (c) Copyright 06Jul2010 Georg Kresse                                                    
   COPYR  = This file is part of the software VASP. Any use, copying, and all other rights are regul
   COPYR  = If you do not have a valid VASP license, you may not use, copy or distribute this file. 
   VRHFIN =Ga: s2p1                                                                                 
   LEXCH  = PE                                                                                      
   EATOM  =  2148.8298 eV,  157.9345 Ry                                                             
                                                                                                    
   TITEL  = PAW_PBE Ga_d 06Jul2010                                                                  
   LULTRA =        F    use ultrasoft PP ?                                                          
   IUNSCR =        1    unscreen: 0-lin 1-nonlin 2-no                                               
   RPACOR =    1.700    partial core radius                                                         
   POMASS =   69.723; ZVAL   =   13.000    mass and valenz                                          
   RCORE  =    2.300    outmost cutoff radius                                                       
   RWIGS  =    2.300; RWIGS  =    1.217    wigner-seitz radius (au A)                               
   ENMAX  =  282.691; ENMIN  =  212.018 eV                                                          
   ICORE  =        3    local potential                                                             
   LCOR   =        T    correct aug charges                                                         
   LPAW   =        T    paw PP                                                                      
   EAUG   =  490.690                                                                                
   DEXC   =    0.000                                                                                
   RMAX   =    2.341    core radius for proj-oper                                                   
   RAUG   =    1.300    factor for augmentation sphere                                              
   RDEP   =    2.413    radius for radial grids                                                     
   RDEPT  =    1.856    core radius for aug-charge                                                  
                                                                                                    
   Atomic configuration                                                                             
    9 entries                                                                                       
     n  l   j            E        occ.                                                              
     1  0  0.50    -10228.7831   2.0000                                                             
     2  0  0.50     -1262.1604   2.0000                                                             
     2  1  1.50     -1098.6333   6.0000                                                             
     3  0  0.50      -148.1110   2.0000                                                             
     3  1  1.50       -98.8436   6.0000                                                             
     3  2  2.50       -19.1549  10.0000                                                             
     4  0  0.50        -8.9483   2.0000                                                             
     4  1  0.50        -2.5791   1.0000                                                             
     4  3  2.50        -2.7416   0.0000                                                             
   Description                                                                                      
     l       E           TYP  RCUT    TYP  RCUT                                                     
     2    -19.1549037     23  2.300                                                                 
     2     -5.4423304     23  2.300                                                                 
     0     -8.9483111     23  2.300                                                                 
     0     68.0291300     23  2.300                                                                 
     1     -2.5790802     23  2.100                                                                 
     1     81.6349560     23  2.300                                                                 
     3      6.8029130     23  2.300                                                                 
  local pseudopotential read in
  partial core-charges read in
  partial kinetic energy density read in
  atomic valenz-charges read in
  non local Contribution for L=            2  read in
    real space projection operators read in
  non local Contribution for L=            2  read in
    real space projection operators read in
  non local Contribution for L=            0  read in
    real space projection operators read in
  non local Contribution for L=            0  read in
    real space projection operators read in
  non local Contribution for L=            1  read in
    real space projection operators read in
  non local Contribution for L=            1  read in
    real space projection operators read in
    PAW grid and wavefunctions read in
 
   number of l-projection  operators is LMAX  =            6
   number of lm-projection operators is LMMAX =           18
 
 POTCAR:     PAW_PBE O 08Apr2002                  
   SHA256 =  818f92134a0a090dccd8ba1447fa70422a3b330e708bb4f08108d8ae51209ddf O/POTCAR              
   COPYR  = (c) Copyright 08Apr2002 Georg Kresse                                                    
   COPYR  = This file is part of the software VASP. Any use, copying, and all other rights are regul
   COPYR  = If you do not have a valid VASP license, you may not use, copy or distribute this file. 
   VRHFIN =O: s2p4                                                                                  
   LEXCH  = PE                                                                                      
   EATOM  =   432.3788 eV,   31.7789 Ry                                                             
                                                                                                    
   TITEL  = PAW_PBE O 08Apr2002                                                                     
   LULTRA =        F    use ultrasoft PP ?                                                          
   IUNSCR =        1    unscreen: 0-lin 1-nonlin 2-no                                               
   RPACOR =    1.200    partial core radius                                                         
   POMASS =   16.000; ZVAL   =    6.000    mass and valenz                                          
   RCORE  =    1.520    outmost cutoff radius                                                       
   RWIGS  =    1.550; RWIGS  =    0.820    wigner-seitz radius (au A)                               
   ENMAX  =  400.000; ENMIN  =  300.000 eV                                                          
   ICORE  =        2    local potential                                                             
   LCOR   =        T    correct aug charges                                                         
   LPAW   =        T    paw PP                                                                      
   EAUG   =  605.392                                                                                
   DEXC   =    0.000                                                                                
   RMAX   =    1.553    core radius for proj-oper                                                   
   RAUG   =    1.300    factor for augmentation sphere                                              
   RDEP   =    1.550    radius for radial grids                                                     
   RDEPT  =    1.329    core radius for aug-charge                                                  
                                                                                                    
   Atomic configuration                                                                             
    4 entries                                                                                       
     n  l   j            E        occ.                                                              
     1  0  0.50      -514.6923   2.0000                                                             
     2  0  0.50       -23.9615   2.0000                                                             
     2  1  0.50        -9.0305   4.0000                                                             
     3  2  1.50        -9.5241   0.0000                                                             
   Description                                                                                      
     l       E           TYP  RCUT    TYP  RCUT                                                     
     0    -23.9615318     23  1.200                                                                 
     0     -9.5240782     23  1.200                                                                 
     1     -9.0304911     23  1.520                                                                 
     1      8.1634956     23  1.520                                                                 
     2     -9.5240782      7  1.500                                                                 
  local pseudopotential read in
  partial core-charges read in
  partial kinetic energy density read in
  kinetic energy density of atom read in
  atomic valenz-charges read in
  non local Contribution for L=            0  read in
    real space projection operators read in
  non local Contribution for L=            0  read in
    real space projection operators read in
  non local Contribution for L=            1  read in
    real space projection operators read in
  non local Contribution for L=            1  read in
    real space projection operators read in
    PAW grid and wavefunctions read in
 
   number of l-projection  operators is LMAX  =            4
   number of lm-projection operators is LMMAX =            8
 
 POTCAR:    PAW_PBE P 06Sep2000                   
   SHA256 =  df60c54a93efe35c9e85ae94c010c75e9f6960a95d5595d7cdba4096d109af88 P/POTCAR              
   COPYR  = (c) Copyright 06Sep2000 Georg Kresse                                                    
   COPYR  = This file is part of the software VASP. Any use, copying, and all other rights are regul
   COPYR  = If you do not have a valid VASP license, you may not use, copy or distribute this file. 
   VRHFIN =P : s2p3                                                                                 
   LEXCH  = PE                                                                                      
   EATOM  =   176.0430 eV,   12.9388 Ry                                                             
                                                                                                    
   TITEL  = PAW_PBE P 06Sep2000                                                                     
   LULTRA =        F    use ultrasoft PP ?                                                          
   IUNSCR =        1    unscreen: 0-lin 1-nonlin 2-no                                               
   RPACOR =    1.500    partial core radius                                                         
   POMASS =   30.974; ZVAL   =    5.000    mass and valenz                                          
   RCORE  =    1.900    outmost cutoff radius                                                       
   RWIGS  =    2.330; RWIGS  =    1.233    wigner-seitz radius (au A)                               
   ENMAX  =  255.040; ENMIN  =  191.280 eV                                                          
   ICORE  =        2    local potential                                                             
   LCOR   =        T    correct aug charges                                                         
   LPAW   =        T    paw PP                                                                      
   EAUG   =  342.924                                                                                
   DEXC   =    0.000                                                                                
   RMAX   =    1.935    core radius for proj-oper                                                   
   RAUG   =    1.300    factor for augmentation sphere                                              
   RDEP   =    1.931    radius for radial grids                                                     
   RDEPT  =    1.794    core radius for aug-charge                                                  
                                                                                                    
   Atomic configuration                                                                             
    6 entries                                                                                       
     n  l   j            E        occ.                                                              
     1  0  0.50     -2084.0982   2.0000                                                             
     2  0  0.50      -173.9859   2.0000                                                             
     2  1  1.50      -124.4865   6.0000                                                             
     3  0  0.50       -13.9692   2.0000                                                             
     3  1  0.50        -5.5067   3.0000                                                             
     3  2  1.50        -5.4423   0.0000                                                             
   Description                                                                                      
     l       E           TYP  RCUT    TYP  RCUT                                                     
     0    -13.9691527     23  1.900                                                                 
     0    -11.7794650     23  1.900                                                                 
     1     -5.5066937     23  1.900                                                                 
     1     -0.2556953     23  1.900                                                                 
     2     -5.4423304     23  1.900                                                                 
  local pseudopotential read in
  partial core-charges read in
  partial kinetic energy density read in
  atomic valenz-charges read in
  non local Contribution for L=            0  read in
    real space projection operators read in
  non local Contribution for L=            0  read in
    real space projection operators read in
  non local Contribution for L=            1  read in
    real space projection operators read in
  non local Contribution for L=            1  read in
    real space projection operators read in
    PAW grid and wavefunctions read in
 
   number of l-projection  operators is LMAX  =            4
   number of lm-projection operators is LMMAX =            8
 
 Optimization of the real space projectors (new method)

 maximal supplied QI-value         = 16.25
 optimisation between [QCUT,QGAM] = [ 10.73, 21.61] = [ 32.22,130.83] Ry 
 Optimized for a Real-space Cutoff    1.42 Angstroem

   l    n(q)    QCUT    max X(q) W(low)/X(q) W(high)/X(q)  e(spline) 
   2      8    10.726     7.143    0.22E-03    0.16E-03    0.73E-07
   2      8    10.726     5.586    0.40E-03    0.26E-03    0.10E-06
   0      9    10.726    12.382    0.25E-04    0.21E-05    0.37E-07
   0      9    10.726     6.622    0.42E-04    0.48E-05    0.77E-07
   1      9    10.726     7.935    0.27E-03    0.13E-04    0.16E-06
   1      9    10.726     2.425    0.23E-03    0.15E-04    0.14E-06
 Optimization of the real space projectors (new method)

 maximal supplied QI-value         = 24.76
 optimisation between [QCUT,QGAM] = [ 10.64, 21.54] = [ 31.73,129.89] Ry 
 Optimized for a Real-space Cutoff    1.23 Angstroem

   l    n(q)    QCUT    max X(q) W(low)/X(q) W(high)/X(q)  e(spline) 
   0      8    10.645    20.381    0.38E-03    0.60E-03    0.15E-06
   0      8    10.645    15.268    0.40E-03    0.65E-03    0.17E-06
   1      7    10.645     5.964    0.30E-03    0.63E-03    0.18E-06
   1      7    10.645     5.382    0.24E-03    0.53E-03    0.16E-06
 Optimization of the real space projectors (new method)

 maximal supplied QI-value         = 19.84
 optimisation between [QCUT,QGAM] = [ 10.71, 21.63] = [ 32.15,130.99] Ry 
 Optimized for a Real-space Cutoff    1.19 Angstroem

   l    n(q)    QCUT    max X(q) W(low)/X(q) W(high)/X(q)  e(spline) 
   0      8    10.715   160.924    0.37E-03    0.37E-04    0.63E-07
   0      8    10.715   130.086    0.37E-03    0.36E-04    0.63E-07
   1      7    10.715    74.434    0.19E-03    0.56E-03    0.65E-07
   1      7    10.715    49.120    0.19E-03    0.55E-03    0.63E-07
  PAW_PBE Ga_d 06Jul2010                :
 energy of atom  1       EATOM=-2148.8298
 kinetic energy error for atom=    0.0038 (will be added to EATOM!!)
   PAW_PBE O 08Apr2002                  :
 energy of atom  2       EATOM= -432.3788
 kinetic energy error for atom=    0.0389 (will be added to EATOM!!)
  PAW_PBE P 06Sep2000                   :
 energy of atom  3       EATOM= -176.0430
 kinetic energy error for atom=    0.0019 (will be added to EATOM!!)
 
 
 POSCAR: Ga48 O72
  positions in direct lattice
  velocities in cartesian coordinates
 exchange correlation table for  LEXCH =        8
   RHO(1)=    0.500       N(1)  =     2000
   RHO(2)=  100.500       N(2)  =     4000
 


--------------------------------------------------------------------------------------------------------


 ion  position               nearest neighbor table
   1  0.656  0.997  0.155-  84 1.94  82 1.94  78 1.96  66 2.03  64 2.08  60 2.09
   2  0.660  0.002  0.657-  85 1.94  83 1.95  79 1.96  67 2.02  65 2.07  61 2.08
   3  0.657  0.332  0.157-  78 1.95  86 1.95  80 1.96  62 2.06  68 2.06  60 2.07
   4  0.659  0.335  0.657-  87 1.94  81 1.95  79 1.95  69 2.02  63 2.08  61 2.08
   5  0.659  0.666  0.158-  80 1.96  88 1.96  82 1.96  70 2.02  64 2.06  62 2.08
   6  0.660  0.668  0.657-  89 1.94  83 1.95  81 1.96  71 2.02  63 2.08  65 2.09
   7  0.833  0.156  0.341-  72 1.93  74 1.93  60 1.98  66 2.01  68 2.08
   8  0.841  0.168  0.844-  73 1.95  75 1.95  90 1.95  61 2.02  67 2.07  69 2.08
   9  0.847  0.494  0.343-  91 1.94  76 1.96  74 1.97  68 2.06  62 2.08  70 2.08
  10  0.841  0.502  0.844-  92 1.94  77 1.95  75 1.96  63 2.02  71 2.08  69 2.08
  11  0.846  0.829  0.344-  93 1.90  76 1.97  72 1.98  64 2.07  70 2.09  66 2.11
  12  0.842  0.836  0.844-  94 1.95  77 1.95  73 1.96  65 2.02  67 2.08  71 2.08
  13  0.588  0.167  0.398-  54 1.84  79 1.84  56 1.84  60 1.88
  14  0.590  0.167  0.897-  78 1.84  57 1.85  55 1.85  61 1.87
  15  0.591  0.502  0.397-  81 1.85  58 1.85  56 1.85  62 1.87
  16  0.589  0.501  0.897-  80 1.85  57 1.85  59 1.85  63 1.88
  17  0.593  0.835  0.397-  83 1.84  58 1.85  54 1.85  64 1.87
  18  0.591  0.834  0.897-  82 1.84  59 1.85  55 1.85  65 1.87
  19  0.910  0.002  0.105-  52 1.84  73 1.84  48 1.85  66 1.87
  20  0.909  0.001  0.602-  53 1.84  72 1.84  49 1.85  67 1.87
  21  0.909  0.336  0.103-  75 1.84  50 1.84  48 1.85  68 1.87
  22  0.909  0.335  0.603-  51 1.84  49 1.84  74 1.85  69 1.87
  23  0.908  0.667  0.102-  77 1.84  50 1.84  52 1.84  70 1.86
  24  0.908  0.666  0.601-  76 1.84  51 1.85  53 1.85  71 1.87
  25  0.158  0.174  0.158- 115 1.94  48 1.94 113 1.95 101 2.00  97 2.04  95 2.23
  26  0.159  0.174  0.656- 116 1.93  49 1.94 102 2.01  98 2.06  96 2.06 114 2.08
  27  0.160  0.502  0.157-  50 1.95 117 1.96 115 1.96  97 2.01 103 2.03  99 2.07
  28  0.159  0.505  0.656- 116 1.91 118 1.95  51 1.95 104 2.04 100 2.06  98 2.11
  29  0.155  0.830  0.156-  52 1.91 117 1.94 113 1.95 105 2.00  99 2.03  95 2.36
  30  0.155  0.835  0.649- 118 1.92  53 1.92 106 2.01  96 2.08 100 2.11 114 2.13
  31  0.339  0.003  0.348- 111 1.93 107 1.93  54 1.96 101 2.05 105 2.07  95 2.18
  32  0.340  0.001  0.840-  55 1.94 108 1.96 112 1.96 102 2.05  96 2.06 106 2.06
  33  0.342  0.338  0.343-  56 1.93 109 1.95 107 1.96  97 1.98 103 2.08 101 2.13
  34  0.339  0.336  0.844-  57 1.94 110 1.95 108 1.96  98 2.01 104 2.08 102 2.13
  35  0.340  0.670  0.344- 109 1.94 111 1.95  58 1.95  99 2.02 103 2.07 105 2.11
  36  0.339  0.669  0.843-  59 1.95 110 1.96 112 1.96 100 2.01 104 2.05 106 2.15
  37  0.093  0.002  0.897-  94 1.85  90 1.85 113 1.87  96 1.91
  38  0.099  0.312  0.401- 116 1.88  91 1.92  97 1.93 119 2.43
  39  0.091  0.336  0.898- 115 1.84  92 1.84  90 1.85  98 1.87
  40  0.088  0.664  0.395-  93 1.83 118 1.86  91 1.87  99 1.89
  41  0.091  0.668  0.896- 117 1.84  92 1.85  94 1.85 100 1.87
  42  0.406  0.166  0.102-  86 1.85  84 1.85 108 1.85 101 1.89
  43  0.411  0.170  0.604- 107 1.84  87 1.84  85 1.85 102 1.87
  44  0.409  0.502  0.102- 110 1.84  88 1.85  86 1.85 103 1.86
  45  0.408  0.503  0.603- 109 1.84  87 1.85  89 1.85 104 1.87
  46  0.404  0.835  0.102-  84 1.85  88 1.85 112 1.86 105 1.90
  47  0.411  0.836  0.602- 111 1.84  89 1.84  85 1.85 106 1.88
  48  0.997  0.170  0.139-  21 1.85  19 1.85  25 1.94
  49  0.996  0.168  0.623-  22 1.84  20 1.85  26 1.94
  50  0.997  0.502  0.126-  21 1.84  23 1.84  27 1.95
  51  0.996  0.501  0.628-  22 1.84  24 1.85  28 1.95
  52  0.995  0.834  0.127-  19 1.84  23 1.84  29 1.91
  53  0.995  0.834  0.627-  20 1.84  24 1.85  30 1.92
  54  0.503  1.000  0.373-  13 1.84  17 1.85  31 1.96
  55  0.502  0.000  0.872-  18 1.85  14 1.85  32 1.94
  56  0.503  0.336  0.372-  13 1.84  15 1.85  33 1.93
  57  0.502  0.334  0.872-  14 1.85  16 1.85  34 1.94
  58  0.504  0.669  0.372-  17 1.85  15 1.85  35 1.95
  59  0.502  0.669  0.872-  18 1.85  16 1.85  36 1.95
  60  0.669  0.165  0.280-  13 1.88   7 1.98   3 2.07   1 2.09
  61  0.673  0.169  0.781-  14 1.87   8 2.02   4 2.08   2 2.08
  62  0.674  0.497  0.281-  15 1.87   3 2.06   9 2.08   5 2.08
  63  0.672  0.502  0.781-  16 1.88  10 2.02   4 2.08   6 2.08
  64  0.674  0.832  0.280-  17 1.87   5 2.06  11 2.07   1 2.08
  65  0.673  0.836  0.781-  18 1.87  12 2.02   2 2.07   6 2.09
  66  0.825  0.999  0.218-  19 1.87   7 2.01   1 2.03  11 2.11
  67  0.828  0.003  0.720-  20 1.87   2 2.02   8 2.07  12 2.08
  68  0.828  0.327  0.221-  21 1.87   3 2.06   9 2.06   7 2.08
  69  0.828  0.335  0.719-  22 1.87   4 2.02   8 2.08  10 2.08
  70  0.828  0.662  0.219-  23 1.86   5 2.02   9 2.08  11 2.09
  71  0.828  0.669  0.720-  24 1.87   6 2.02  10 2.08  12 2.08
  72  0.827  0.996  0.446-  20 1.84   7 1.93  11 1.98
  73  0.834  0.003  0.947-  19 1.84   8 1.95  12 1.96
  74  0.840  0.324  0.444-  22 1.85   7 1.93   9 1.97
  75  0.833  0.335  0.946-  21 1.84   8 1.95  10 1.96
  76  0.833  0.660  0.445-  24 1.84   9 1.96  11 1.97
  77  0.832  0.669  0.945-  23 1.84  10 1.95  12 1.95
  78  0.666  0.166  0.054-  14 1.84   3 1.95   1 1.96
  79  0.668  0.169  0.554-  13 1.84   4 1.95   2 1.96
  80  0.665  0.499  0.054-  16 1.85   3 1.96   5 1.96
  81  0.669  0.501  0.554-  15 1.85   4 1.95   6 1.96
  82  0.668  0.832  0.054-  18 1.84   1 1.94   5 1.96
  83  0.668  0.835  0.555-  17 1.84   6 1.95   2 1.95
  84  0.494  0.999  0.127-  46 1.85  42 1.85   1 1.94
  85  0.498  0.003  0.628-  47 1.85  43 1.85   2 1.94
  86  0.494  0.332  0.127-  42 1.85  44 1.85   3 1.95
  87  0.497  0.337  0.629-  43 1.84  45 1.85   4 1.94
  88  0.495  0.670  0.127-  44 1.85  46 1.85   5 1.96
  89  0.497  0.669  0.628-  47 1.84  45 1.85   6 1.94
  90  0.004  0.168  0.874-  39 1.85  37 1.85   8 1.95
  91  0.010  0.487  0.374-  40 1.87  38 1.92   9 1.94
  92  0.003  0.502  0.872-  39 1.84  41 1.85  10 1.94
  93  0.005  0.833  0.374-  40 1.83  11 1.90 119 2.12
  94  0.005  0.836  0.873-  41 1.85  37 1.85  12 1.95
  95  0.157  0.012  0.301- 119 1.68  31 2.18  25 2.23  29 2.36
  96  0.169  0.002  0.772-  37 1.91  32 2.06  26 2.06  30 2.08
  97  0.177  0.340  0.277-  38 1.93  33 1.98  27 2.01  25 2.04
  98  0.173  0.336  0.782-  39 1.87  34 2.01  26 2.06  28 2.11
  99  0.172  0.669  0.279-  40 1.89  35 2.02  29 2.03  27 2.07
 100  0.172  0.670  0.779-  41 1.87  36 2.01  28 2.06  30 2.11
 101  0.324  0.162  0.220-  42 1.89  25 2.00  31 2.05  33 2.13
 102  0.326  0.165  0.717-  43 1.87  26 2.01  32 2.05  34 2.13
 103  0.329  0.505  0.220-  44 1.86  27 2.03  35 2.07  33 2.08
 104  0.329  0.504  0.722-  45 1.87  28 2.04  36 2.05  34 2.08
 105  0.321  0.842  0.220-  46 1.90  29 2.00  31 2.07  35 2.11
 106  0.323  0.840  0.713-  47 1.88  30 2.01  32 2.06  36 2.15
 107  0.335  0.171  0.447-  43 1.84  31 1.93  33 1.96
 108  0.329  0.166  0.945-  42 1.85  32 1.96  34 1.96
 109  0.334  0.504  0.446-  45 1.84  35 1.94  33 1.95
 110  0.331  0.502  0.946-  44 1.84  34 1.95  36 1.96
 111  0.333  0.836  0.447-  47 1.84  31 1.93  35 1.95
 112  0.328  0.836  0.944-  46 1.86  36 1.96  32 1.96
 113  0.162  0.002  0.059-  37 1.87  25 1.95  29 1.95
 114  0.146  0.012  0.528- 119 1.66  26 2.08  30 2.13
 115  0.168  0.335  0.053-  39 1.84  25 1.94  27 1.96
 116  0.175  0.340  0.560-  38 1.88  28 1.91  26 1.93
 117  0.168  0.668  0.053-  41 1.84  29 1.94  27 1.96
 118  0.168  0.669  0.552-  40 1.86  30 1.92  28 1.95
 119  0.072  0.048  0.391- 114 1.66  95 1.68  93 2.12  38 2.43
 
  LATTYP: Found a simple monoclinic cell.
 ALAT       =    11.6348202465
 B/A-ratio  =     0.7858051831
 C/A-ratio  =     1.0554931797
 COS(beta)  =    -0.2379290539
  
  Lattice vectors:
  
 A1 = (   0.0000000000,  -2.7682617730, -11.3006977184)
 A2 = (  -9.1427020537,   0.0000000000,   0.0000000000)
 A3 = (   0.0000000000,  12.2804734172,   0.0000000000)


Analysis of symmetry for initial positions (statically):
=====================================================================
 Subroutine PRICEL returns:
 Original cell was already a primitive cell.
 

 Routine SETGRP: Setting up the symmetry group for a 
 simple monoclinic supercell.


 Subroutine GETGRP returns: Found  1 space group operations
 (whereof  1 operations were pure point group operations)
 out of a pool of  4 trial point group operations.


The static configuration has the point symmetry C_1 .


Analysis of symmetry for dynamics (positions and initial velocities):
=====================================================================
 Subroutine PRICEL returns:
 Original cell was already a primitive cell.
 

 Routine SETGRP: Setting up the symmetry group for a 
 simple monoclinic supercell.


 Subroutine GETGRP returns: Found  1 space group operations
 (whereof  1 operations were pure point group operations)
 out of a pool of  4 trial point group operations.


The dynamic configuration has the point symmetry C_1 .


 Subroutine INISYM returns: Found  1 space group operations
 (whereof  1 operations are pure point group operations),
 and found     1 'primitive' translations


----------------------------------------------------------------------------------------

                                     Primitive cell                                     

  volume of cell :    1268.8052

  direct lattice vectors                    reciprocal lattice vectors
     0.000000000 12.280473417  0.000000000     0.000000000  0.081430085 -0.019947423
     9.142702054  0.000000000  0.000000000     0.109376855 -0.000000000  0.000000000
     0.000000000 -2.768261773-11.300697718     0.000000000  0.000000000 -0.088490111

  length of vectors
    12.280473417  9.142702054 11.634820246     0.083837691  0.109376855  0.088490111

  position of ions in fractional coordinates (direct lattice)
     0.656187008  0.997317154  0.155125255
     0.660275356  0.001786824  0.656854752
     0.656943673  0.332208919  0.156965831
     0.659349068  0.335378205  0.657047077
     0.658919220  0.665769571  0.158092001
     0.659838505  0.668271126  0.656720618
     0.833489608  0.156420063  0.340837501
     0.841278634  0.168211176  0.843861533
     0.846942539  0.494207877  0.342646730
     0.840717039  0.501908097  0.843553184
     0.846193310  0.828991774  0.344164291
     0.841724242  0.835674319  0.844104239
     0.588355526  0.167324554  0.398310094
     0.590115361  0.167363433  0.897343005
     0.591381274  0.502324051  0.397121036
     0.588777047  0.501315998  0.896857220
     0.592573303  0.835007176  0.397331296
     0.590909539  0.834278662  0.897394805
     0.910051375  0.002100208  0.104542885
     0.908642515  0.000870572  0.601542807
     0.909029686  0.335866865  0.103078955
     0.909389981  0.334506422  0.602614566
     0.907861396  0.666953450  0.101583291
     0.907849787  0.666296475  0.601326981
     0.158040568  0.173667016  0.157996929
     0.158700868  0.174175384  0.655558173
     0.160046111  0.502246689  0.157063278
     0.159223183  0.504724265  0.655792249
     0.154923441  0.830007424  0.156326552
     0.155101794  0.835102278  0.648849291
     0.339308496  0.003424968  0.347797271
     0.339584099  0.001388828  0.840046005
     0.341679030  0.338040574  0.343429174
     0.339450070  0.335581988  0.844276207
     0.340465719  0.669813592  0.344188503
     0.338848849  0.668703762  0.842688975
     0.092659996  0.001788482  0.897476520
     0.098759391  0.311558702  0.400655935
     0.090660131  0.335862744  0.897500071
     0.087602571  0.664330782  0.395183999
     0.090952950  0.668066900  0.896188624
     0.405764204  0.165805953  0.101985536
     0.411143355  0.170077968  0.603584947
     0.409410823  0.501812233  0.102179748
     0.408380403  0.502909145  0.603215150
     0.404211080  0.834807521  0.102275760
     0.411173439  0.835734362  0.602330342
     0.996652635  0.169788961  0.138885266
     0.996476254  0.167823447  0.622771116
     0.996573130  0.501757059  0.125575818
     0.996389557  0.500835217  0.627788630
     0.994855273  0.833700975  0.126797828
     0.994980982  0.833753533  0.627089046
     0.502651753  0.999912491  0.372914388
     0.502415414  0.000455532  0.872087262
     0.503291644  0.335601312  0.371977794
     0.501696296  0.333561950  0.872137288
     0.503689148  0.669232718  0.372171048
     0.501612925  0.669135921  0.871868673
     0.669038022  0.165124859  0.280029396
     0.672931291  0.168682147  0.781186016
     0.673909061  0.496531622  0.280860170
     0.672384483  0.501665732  0.781044072
     0.674145131  0.831616908  0.280398112
     0.673389868  0.835968216  0.781084234
     0.824791351  0.998875009  0.218288752
     0.828437427  0.002644374  0.719992853
     0.828290914  0.326675123  0.220540219
     0.827805284  0.334784471  0.719470438
     0.827640576  0.661843575  0.218869190
     0.827632163  0.668606880  0.719631324
     0.827469621  0.995654510  0.446394585
     0.834405056  0.002631881  0.947419918
     0.840426911  0.323509454  0.443561816
     0.833283895  0.334514290  0.946377683
     0.832575722  0.660222610  0.444631983
     0.831518810  0.668520067  0.945199015
     0.665626915  0.166030859  0.054271401
     0.667845357  0.168979626  0.554122567
     0.665022171  0.499017413  0.054094030
     0.669054155  0.501026396  0.553870262
     0.667779611  0.831957886  0.053808444
     0.668477119  0.834704400  0.554519481
     0.493806647  0.999462676  0.126672293
     0.497895181  0.002770723  0.628154629
     0.493652068  0.332212546  0.126778843
     0.497121622  0.337054032  0.628698275
     0.494806947  0.670370396  0.127323631
     0.497344948  0.668796342  0.628234135
     0.004464177  0.168039561  0.873669595
     0.009510243  0.486623778  0.373582184
     0.003011405  0.502022347  0.872106231
     0.005037962  0.832980242  0.373644114
     0.004638583  0.835669525  0.873032163
     0.156534331  0.012038668  0.300907167
     0.168925885  0.002470103  0.772450482
     0.177053794  0.340430255  0.277321300
     0.172574670  0.335734676  0.781513300
     0.172423036  0.668868357  0.279465338
     0.171766504  0.669555936  0.778630828
     0.324218422  0.162215124  0.220458390
     0.325663054  0.165123208  0.717041810
     0.329295126  0.505109001  0.219592880
     0.328603290  0.503996907  0.721517488
     0.320995117  0.842097231  0.220407130
     0.322536178  0.840371296  0.713150969
     0.335466542  0.171311622  0.447075562
     0.328868329  0.165922511  0.944559277
     0.333574234  0.503699814  0.446409844
     0.331396865  0.502247902  0.946179301
     0.332690931  0.836193416  0.446617548
     0.328298058  0.836389983  0.943933793
     0.161822250  0.002268166  0.059220898
     0.145798951  0.012220581  0.527837301
     0.168221532  0.335322504  0.053203287
     0.175310292  0.340332504  0.559522538
     0.168196095  0.667978973  0.052889603
     0.168006934  0.669046647  0.552124523
     0.071943912  0.047720488  0.391341044

  ion indices of the primitive-cell ions
   primitive index   ion index
                 1           1
                 2           2
                 3           3
                 4           4
                 5           5
                 6           6
                 7           7
                 8           8
                 9           9
                10          10
                11          11
                12          12
                13          13
                14          14
                15          15
                16          16
                17          17
                18          18
                19          19
                20          20
                21          21
                22          22
                23          23
                24          24
                25          25
                26          26
                27          27
                28          28
                29          29
                30          30
                31          31
                32          32
                33          33
                34          34
                35          35
                36          36
                37          37
                38          38
                39          39
                40          40
                41          41
                42          42
                43          43
                44          44
                45          45
                46          46
                47          47
                48          48
                49          49
                50          50
                51          51
                52          52
                53          53
                54          54
                55          55
                56          56
                57          57
                58          58
                59          59
                60          60
                61          61
                62          62
                63          63
                64          64
                65          65
                66          66
                67          67
                68          68
                69          69
                70          70
                71          71
                72          72
                73          73
                74          74
                75          75
                76          76
                77          77
                78          78
                79          79
                80          80
                81          81
                82          82
                83          83
                84          84
                85          85
                86          86
                87          87
                88          88
                89          89
                90          90
                91          91
                92          92
                93          93
                94          94
                95          95
                96          96
                97          97
                98          98
                99          99
               100         100
               101         101
               102         102
               103         103
               104         104
               105         105
               106         106
               107         107
               108         108
               109         109
               110         110
               111         111
               112         112
               113         113
               114         114
               115         115
               116         116
               117         117
               118         118
               119         119

----------------------------------------------------------------------------------------

 
 
 KPOINTS: Automatic mesh                          

Automatic generation of k-mesh.
 Grid dimensions read from file:
 generate k-points for:    2    2    2

 Generating k-lattice:

  Cartesian coordinates                     Fractional coordinates (reciprocal lattice)
     0.000000000  0.040715043 -0.009973711     0.500000000  0.000000000  0.000000000
     0.054688428 -0.000000000  0.000000000     0.000000000  0.500000000  0.000000000
     0.000000000  0.000000000 -0.044245056     0.000000000  0.000000000  0.500000000

  Length of vectors
     0.041918846  0.054688428  0.044245056

  Shift w.r.t. Gamma in fractional coordinates (k-lattice)
     0.000000000  0.000000000  0.000000000

 
 Subroutine IBZKPT returns following result:
 ===========================================
 
 Found      8 irreducible k-points:
 
 Following reciprocal coordinates:
            Coordinates               Weight
  0.000000  0.000000  0.000000      1.000000
  0.500000  0.000000  0.000000      1.000000
  0.000000  0.500000  0.000000      1.000000
  0.500000  0.500000  0.000000      1.000000
  0.000000  0.000000  0.500000      1.000000
  0.500000  0.000000  0.500000      1.000000
  0.000000  0.500000  0.500000      1.000000
  0.500000  0.500000  0.500000      1.000000
 
 Following cartesian coordinates:
            Coordinates               Weight
  0.000000  0.000000 -0.000000      1.000000
  0.000000  0.040715 -0.009974      1.000000
  0.054688  0.000000 -0.000000      1.000000
  0.054688  0.040715 -0.009974      1.000000
  0.000000  0.000000 -0.044245      1.000000
  0.000000  0.040715 -0.054219      1.000000
  0.054688  0.000000 -0.044245      1.000000
  0.054688  0.040715 -0.054219      1.000000
 
 
 Subroutine IBZKPT_HF returns following result:
 ==============================================
 
 Found      8 k-points in 1st BZ
 the following      8 k-points will be used (e.g. in the exchange kernel)
 Following reciprocal coordinates:   # in IRBZ
  0.000000  0.000000  0.000000    0.12500000   1 t-inv F
  0.500000  0.000000  0.000000    0.12500000   2 t-inv F
  0.000000  0.500000  0.000000    0.12500000   3 t-inv F
  0.500000  0.500000  0.000000    0.12500000   4 t-inv F
  0.000000  0.000000  0.500000    0.12500000   5 t-inv F
  0.500000  0.000000  0.500000    0.12500000   6 t-inv F
  0.000000  0.500000  0.500000    0.12500000   7 t-inv F
  0.500000  0.500000  0.500000    0.12500000   8 t-inv F


--------------------------------------------------------------------------------------------------------




 Dimension of arrays:
   k-points           NKPTS =      8   k-points in BZ     NKDIM =      8   number of bands    NBANDS=    625
   number of dos      NEDOS =    301   number of ions     NIONS =    119
   non local maximal  LDIM  =      6   non local SUM 2l+1 LMDIM =     18
   total plane-waves  NPLWV = 184320
   max r-space proj   IRMAX =   1800   max aug-charges    IRDMAX=   5704
   dimension x,y,z NGX =    64 NGY =   48 NGZ =   60
   dimension x,y,z NGXF=   128 NGYF=   96 NGZF=  120
   support grid    NGXF=   128 NGYF=   96 NGZF=  120
   ions per type =              47  71   1
   NGX,Y,Z   is equivalent  to a cutoff of   8.66,  8.73,  8.57 a.u.
   NGXF,Y,Z  is equivalent  to a cutoff of  17.33, 17.46, 17.15 a.u.

 SYSTEM =  unknown system                          
 POSCAR =  Ga48 O72                                

 Startparameter for this run:
   NWRITE =      2    write-flag & timer
   PREC   = normal    normal or accurate (medium, high low for compatibility)
   ISTART =      0    job   : 0-new  1-cont  2-samecut
   ICHARG =      0    charge: 1-file 2-atom 10-const
   ISPIN  =      1    spin polarized calculation?
   LNONCOLLINEAR =      F non collinear calculations
   LSORBIT =      F    spin-orbit coupling
   INIWAV =      1    electr: 0-lowe 1-rand  2-diag
   LASPH  =      F    aspherical Exc in radial PAW
 Electronic Relaxation 1
   ENCUT  =  450.0 eV  33.07 Ry    5.75 a.u.  21.24 15.81 20.12*2*pi/ulx,y,z
   ENINI  =  450.0     initial cutoff
   ENAUG  =  605.4 eV  augmentation charge cutoff
   NELM   =    500;   NELMIN=  2; NELMDL= -5     # of ELM steps 
   EDIFF  = 0.1E-04   stopping-criterion for ELM
   LREAL  =      T    real-space projection
   NLSPLINE    = F    spline interpolate recip. space projectors
   LCOMPAT=      F    compatible to vasp.4.4
   GGA_COMPAT  = T    GGA compatible to vasp.4.4-vasp.4.6
   LMAXPAW     = -100 max onsite density
   LMAXMIX     =    2 max onsite mixed and CHGCAR
   VOSKOWN=      0    Vosko Wilk Nusair interpolation
   ROPT   =   -0.00050  -0.00050  -0.00050
 Ionic relaxation
   EDIFFG = -.5E-02   stopping-criterion for IOM
   NSW    =      0    number of steps for IOM
   NBLOCK =      1;   KBLOCK =      1    inner block; outer block 
   IBRION =     -1    ionic relax: 0-MD 1-quasi-New 2-CG
   NFREE  =      0    steps in history (QN), initial steepest desc. (CG)
   ISIF   =      2    stress and relaxation
   IWAVPR =     10    prediction:  0-non 1-charg 2-wave 3-comb
   ISYM   =      3    0-nonsym 1-usesym 2-fastsym
   LCORR  =      T    Harris-Foulkes like correction to forces

   POTIM  = 0.5000    time-step for ionic-motion
   TEIN   =    0.0    initial temperature
   TEBEG  =    0.0;   TEEND  =   0.0 temperature during run
   SMASS  =  -3.00    Nose mass-parameter (am)
   estimated Nose-frequenzy (Omega)   =  0.10E-29 period in steps = 0.13E+47 mass=  -0.345E-26a.u.
   SCALEE = 1.0000    scale energy and forces
   NPACO  =    256;   APACO  = 10.0  distance and # of slots for P.C.
   PSTRESS=    0.0 pullay stress

  Mass of Ions in am
   POMASS =  69.72 16.00 30.97
  Ionic Valenz
   ZVAL   =  13.00  6.00  5.00
  Atomic Wigner-Seitz radii
   RWIGS  =  -1.00 -1.00 -1.00
  virtual crystal weights 
   VCA    =   1.00  1.00  1.00
   NELECT =    1042.0000    total number of electrons
   NUPDOWN=      -1.0000    fix difference up-down

 DOS related values:
   EMIN   =  10.00;   EMAX   =-10.00  energy-range for DOS
   EFERMI =   0.00;   METHOD = LEGACY      
   ISMEAR =     0;   SIGMA  =   0.05  broadening in eV -4-tet -1-fermi 0-gaus

 Electronic relaxation 2 (details)
   IALGO  =     58    algorithm
   LDIAG  =      T    sub-space diagonalisation (order eigenvalues)
   LSUBROT=      F    optimize rotation matrix (better conditioning)
   TURBO    =      0    0=normal 1=particle mesh
   IRESTART =      0    0=no restart 2=restart with 2 vectors
   NREBOOT  =      0    no. of reboots
   NMIN     =      0    reboot dimension
   EREF     =   0.00    reference energy to select bands
   IMIX   =      4    mixing-type and parameters
     AMIX     =   0.40;   BMIX     =  1.00
     AMIX_MAG =   1.60;   BMIX_MAG =  1.00
     AMIN     =   0.10
     WC   =   100.;   INIMIX=   1;  MIXPRE=   1;  MAXMIX= -45

 Intra band minimization:
   WEIMIN = 0.0000     energy-eigenvalue tresh-hold
   EBREAK =  0.40E-08  absolut break condition
   DEPER  =   0.30     relativ break condition  

   TIME   =   0.40     timestep for ELM

  volume/ion in A,a.u.               =      10.66        71.95
  Fermi-wavevector in a.u.,A,eV,Ry     =   1.533083  2.897107 31.978378  2.350344
  Thomas-Fermi vector in A             =   2.640200
 
 Write flags
   LWAVE        =      T    write WAVECAR
   LDOWNSAMPLE  =      F    k-point downsampling of WAVECAR
   LCHARG       =      T    write CHGCAR
   LVTOT        =      F    write LOCPOT, total local potential
   LVHAR        =      F    write LOCPOT, Hartree potential only
   LELF         =      F    write electronic localiz. function (ELF)
   LORBIT       =      0    0 simple, 1 ext, 2 COOP (PROOUT), +10 PAW based schemes


 Dipole corrections
   LMONO  =      F    monopole corrections only (constant potential shift)
   LDIPOL =      F    correct potential (dipole corrections)
   IDIPOL =      0    1-x, 2-y, 3-z, 4-all directions 
   EPSILON=  1.0000000 bulk dielectric constant

 Exchange correlation treatment:
   GGA     =    --    GGA type
   LEXCH   =     8    internal setting for exchange type
   LIBXC   =     F    Libxc                    
   VOSKOWN =     0    Vosko Wilk Nusair interpolation
   EXXOEP  =     0    0=HF, 1=EXX-LHF (local Hartree Fock) 2=EXX OEP
   LHFCALC =     T    Hartree Fock is set to
   LSYMGRAD=     F    symmetrize gradient (conserves proper symmetry)
   PRECFOCK=fast      Normal, Fast or Accurate (Low or Medium for compatibility)
   LRHFCALC=     F    long range Hartree Fock
   LRSCOR  =     F    long range correlation only (use DFT for short range part)
   LTHOMAS =     F    Thomas Fermi screening in HF
   LMODELHF=     F    short range full HF, long range fraction AEXX
   FOCKCORR=     1    mode to apply convergence corrections
   LFOCKACE=     T    use Adeptively-Compressed-Exchange operator
   ENCUT4O =  -1.0   cutoff for four orbital integrals eV
   LMAXFOCK=     4    L truncation for augmentation on plane wave grid
   LMAXFOCKAE=  -1    L truncation for all-electron charge restoration on plane wave grid
   NMAXFOCKAE=   1    number of basis functions for all-electron charge restoration
   LFOCKAEDFT=     F  apply the AE augmentation even for DFT
   NKREDX  =     1    reduce k-point grid by
   NKREDY  =     1    reduce k-point grid by
   NKREDZ  =     1    reduce k-point grid by
   SHIFTRED=     F    shift reduced grid of Gamma
   HFKIDENT=     F    idential grid for each k-point
   ODDONLY =     F    use only odd q-grid points
   EVENONLY=     F    use only even q-grid points
   HFALPHA =   -1.0000 decay constant for conv. correction
   MCALPHA =    0.0000 extent of test-charge in conv. correction in multipole expansion
   AEXX    =    0.3200 exact exchange contribution
   HFSCREEN=    0.2000 screening length (either q_TF or 0.3 A-1)
   HFSCREENC=   0.2000 screening length for correlation (either q_TF or 0.3 A-1)
   HFRCUT  =    0.0000 spherical cutoff for potential kernel
   ALDAX   =    0.6800 LDA exchange part
   AGGAX   =    0.6800 GGA exchange part
   ALDAC   =    1.0000 LDA correlation
   AGGAC   =    1.0000 GGA correlation
   ENCUTFOCK=  -1.0 apply spherical cutoff to Coloumb kernel
   NBANDSGWLOW=     1    first orbital included in HF term
   NBLOCK_FOCK=    64    blocking factor in FOCK_ACC

 Linear response parameters
   LEPSILON=     F    determine dielectric tensor
   LRPA    =     F    only Hartree local field effects (RPA)
   LNABLA  =     F    use nabla operator in PAW spheres
   LVEL    =     F    velocity operator in full k-point grid
   CSHIFT  =0.1000    complex shift for real part using Kramers Kronig
   OMEGAMAX=  -1.0    maximum frequency
   DEG_THRESHOLD= 0.2000000E-02 threshold for treating states as degnerate
   RTIME   =   -0.100 relaxation time in fs
  (WPLASMAI=    0.000 imaginary part of plasma frequency in eV, 0.658/RTIME)
   DFIELD  = 0.0000000 0.0000000 0.0000000 field for delta impulse in time
 
  Optional k-point grid parameters
   LKPOINTS_OPT  =     F    use optional k-point grid
   KPOINTS_OPT_MODE=     1    mode for optional k-point grid
 
 Orbital magnetization related:
   ORBITALMAG=     F  switch on orbital magnetization
   LCHIMAG   =     F  perturbation theory with respect to B field
   DQ        =  0.001000  dq finite difference perturbation B field
   LLRAUG    =     F  two centre corrections for induced B field
   LBONE     =     F  B-component reconstruction in AE one-centre
   LVGVCALC  =     T  calculate vGv susceptibility
   LVGVAPPL  =     F  apply vGv susceptibility instead of pGv for G=0

 Random number generation:
   RANDOM_GENERATOR = DEFAULT
   PCG_SEED         = not used


--------------------------------------------------------------------------------------------------------


 Static calculation
 charge density and potential will be updated during run
 non-spin polarized calculation
 Conjugate gradient for all bands (Freysoldt, et al. PRB 79, 241103 (2009))
 preconditioned conjugated gradient                                        
 perform sub-space diagonalisation
    before iterative eigenvector-optimisation
 modified Broyden-mixing scheme, WC =      100.0
 initial mixing is a Kerker type mixing with AMIX =  0.4000 and BMIX =      1.0000
 Hartree-type preconditioning will be used
 using additional bands           104
 real space projection scheme for non local part
 use partial core corrections
 no Harris-corrections to forces 
 use gradient corrections 
 use of overlap-Matrix (Vanderbilt PP)
 Gauss-broadening in eV      SIGMA  =   0.05


--------------------------------------------------------------------------------------------------------


  energy-cutoff  :      450.00
  volume of cell :     1268.81
      direct lattice vectors                 reciprocal lattice vectors
     0.000000000 12.280473417  0.000000000     0.000000000  0.081430085 -0.019947423
     9.142702054  0.000000000  0.000000000     0.109376855 -0.000000000  0.000000000
     0.000000000 -2.768261773-11.300697718     0.000000000  0.000000000 -0.088490111

  length of vectors
    12.280473417  9.142702054 11.634820246     0.083837691  0.109376855  0.088490111


 
 k-points in units of 2pi/SCALE and weight: Automatic mesh                          
   0.00000000  0.00000000 -0.00000000       0.125
   0.00000000  0.04071504 -0.00997371       0.125
   0.05468843  0.00000000 -0.00000000       0.125
   0.05468843  0.04071504 -0.00997371       0.125
   0.00000000  0.00000000 -0.04424506       0.125
   0.00000000  0.04071504 -0.05421877       0.125
   0.05468843  0.00000000 -0.04424506       0.125
   0.05468843  0.04071504 -0.05421877       0.125
 
 k-points in reciprocal lattice and weights: Automatic mesh                          
   0.00000000  0.00000000  0.00000000       0.125
   0.50000000  0.00000000  0.00000000       0.125
   0.00000000  0.50000000  0.00000000       0.125
   0.50000000  0.50000000  0.00000000       0.125
   0.00000000  0.00000000  0.50000000       0.125
   0.50000000  0.00000000  0.50000000       0.125
   0.00000000  0.50000000  0.50000000       0.125
   0.50000000  0.50000000  0.50000000       0.125
 
 position of ions in fractional coordinates (direct lattice) 
   0.65618701  0.99731715  0.15512525
   0.66027536  0.00178682  0.65685475
   0.65694367  0.33220892  0.15696583
   0.65934907  0.33537821  0.65704708
   0.65891922  0.66576957  0.15809200
   0.65983850  0.66827113  0.65672062
   0.83348961  0.15642006  0.34083750
   0.84127863  0.16821118  0.84386153
   0.84694254  0.49420788  0.34264673
   0.84071704  0.50190810  0.84355318
   0.84619331  0.82899177  0.34416429
   0.84172424  0.83567432  0.84410424
   0.58835553  0.16732455  0.39831009
   0.59011536  0.16736343  0.89734300
   0.59138127  0.50232405  0.39712104
   0.58877705  0.50131600  0.89685722
   0.59257330  0.83500718  0.39733130
   0.59090954  0.83427866  0.89739481
   0.91005138  0.00210021  0.10454288
   0.90864252  0.00087057  0.60154281
   0.90902969  0.33586687  0.10307895
   0.90938998  0.33450642  0.60261457
   0.90786140  0.66695345  0.10158329
   0.90784979  0.66629648  0.60132698
   0.15804057  0.17366702  0.15799693
   0.15870087  0.17417538  0.65555817
   0.16004611  0.50224669  0.15706328
   0.15922318  0.50472427  0.65579225
   0.15492344  0.83000742  0.15632655
   0.15510179  0.83510228  0.64884929
   0.33930850  0.00342497  0.34779727
   0.33958410  0.00138883  0.84004600
   0.34167903  0.33804057  0.34342917
   0.33945007  0.33558199  0.84427621
   0.34046572  0.66981359  0.34418850
   0.33884885  0.66870376  0.84268898
   0.09266000  0.00178848  0.89747652
   0.09875939  0.31155870  0.40065593
   0.09066013  0.33586274  0.89750007
   0.08760257  0.66433078  0.39518400
   0.09095295  0.66806690  0.89618862
   0.40576420  0.16580595  0.10198554
   0.41114335  0.17007797  0.60358495
   0.40941082  0.50181223  0.10217975
   0.40838040  0.50290914  0.60321515
   0.40421108  0.83480752  0.10227576
   0.41117344  0.83573436  0.60233034
   0.99665264  0.16978896  0.13888527
   0.99647625  0.16782345  0.62277112
   0.99657313  0.50175706  0.12557582
   0.99638956  0.50083522  0.62778863
   0.99485527  0.83370097  0.12679783
   0.99498098  0.83375353  0.62708905
   0.50265175  0.99991249  0.37291439
   0.50241541  0.00045553  0.87208726
   0.50329164  0.33560131  0.37197779
   0.50169630  0.33356195  0.87213729
   0.50368915  0.66923272  0.37217105
   0.50161293  0.66913592  0.87186867
   0.66903802  0.16512486  0.28002940
   0.67293129  0.16868215  0.78118602
   0.67390906  0.49653162  0.28086017
   0.67238448  0.50166573  0.78104407
   0.67414513  0.83161691  0.28039811
   0.67338987  0.83596822  0.78108423
   0.82479135  0.99887501  0.21828875
   0.82843743  0.00264437  0.71999285
   0.82829091  0.32667512  0.22054022
   0.82780528  0.33478447  0.71947044
   0.82764058  0.66184357  0.21886919
   0.82763216  0.66860688  0.71963132
   0.82746962  0.99565451  0.44639458
   0.83440506  0.00263188  0.94741992
   0.84042691  0.32350945  0.44356182
   0.83328389  0.33451429  0.94637768
   0.83257572  0.66022261  0.44463198
   0.83151881  0.66852007  0.94519901
   0.66562691  0.16603086  0.05427140
   0.66784536  0.16897963  0.55412257
   0.66502217  0.49901741  0.05409403
   0.66905416  0.50102640  0.55387026
   0.66777961  0.83195789  0.05380844
   0.66847712  0.83470440  0.55451948
   0.49380665  0.99946268  0.12667229
   0.49789518  0.00277072  0.62815463
   0.49365207  0.33221255  0.12677884
   0.49712162  0.33705403  0.62869828
   0.49480695  0.67037040  0.12732363
   0.49734495  0.66879634  0.62823413
   0.00446418  0.16803956  0.87366959
   0.00951024  0.48662378  0.37358218
   0.00301141  0.50202235  0.87210623
   0.00503796  0.83298024  0.37364411
   0.00463858  0.83566953  0.87303216
   0.15653433  0.01203867  0.30090717
   0.16892588  0.00247010  0.77245048
   0.17705379  0.34043026  0.27732130
   0.17257467  0.33573468  0.78151330
   0.17242304  0.66886836  0.27946534
   0.17176650  0.66955594  0.77863083
   0.32421842  0.16221512  0.22045839
   0.32566305  0.16512321  0.71704181
   0.32929513  0.50510900  0.21959288
   0.32860329  0.50399691  0.72151749
   0.32099512  0.84209723  0.22040713
   0.32253618  0.84037130  0.71315097
   0.33546654  0.17131162  0.44707556
   0.32886833  0.16592251  0.94455928
   0.33357423  0.50369981  0.44640984
   0.33139687  0.50224790  0.94617930
   0.33269093  0.83619342  0.44661755
   0.32829806  0.83638998  0.94393379
   0.16182225  0.00226817  0.05922090
   0.14579895  0.01222058  0.52783730
   0.16822153  0.33532250  0.05320329
   0.17531029  0.34033250  0.55952254
   0.16819609  0.66797897  0.05288960
   0.16800693  0.66904665  0.55212452
   0.07194391  0.04772049  0.39134104
 
 position of ions in cartesian coordinates  (Angst):
   9.11817360  7.62885979 -1.75302361
   0.01633640  6.29014806 -7.42291699
   3.03728717  7.63305681 -1.77382341
   3.06626301  6.27824039 -7.42509040
   6.08693283  7.65419992 -1.78654991
   6.10980379  6.28515463 -7.42140119
   1.43010203  9.29211955 -3.85170157
   1.53790467  7.99527027 -9.53622410
   4.51839537  9.45231950 -3.87214712
   4.58879619  7.98922721 -9.53273954
   7.57922479  9.43891760 -3.88929662
   7.64032132  8.00007068 -9.53896685
   1.52979854  6.12265779 -4.50118198
   1.53015400  4.76281567-10.14060205
   4.59259913  6.16310704 -4.48774478
   4.58338280  4.74772532-10.13511234
   7.63422182  6.17716366 -4.49012087
   7.62756124  4.77242515-10.14118743
   0.01920157 10.88645965 -1.18140754
   0.00795938  9.49333230 -6.79785343
   3.07073068 10.87796536 -1.16486411
   3.05829255  9.49954462 -6.80996505
   6.09775668 10.86775860 -1.14796206
   6.09175015  9.48419467 -6.79541445
   1.58778579  1.50343613 -1.78547554
   1.59243364  0.13416516 -7.40826475
   4.59189183  1.53064974 -1.77492463
   4.61454358  0.13993145 -7.41090998
   7.58851058  1.46978038 -1.76659910
   7.63509131  0.10853877 -7.33244970
   0.03131346  3.20407508 -3.93035183
   0.01269764  1.84478626 -9.49310597
   3.09060425  3.24527839 -3.88098929
   3.06812613  1.83143001 -9.54091021
   6.12390611  3.22827633 -3.88957023
   6.11375926  1.82844061 -9.52297338
   0.01635156 -1.34654133-10.14211086
   2.84848839  0.10369157 -4.52769161
   3.07069300 -1.37116581-10.14237700
   6.07377840 -0.01817171 -4.46585491
   6.10793662 -1.36393943-10.12755674
   1.51591443  4.70065385 -1.15250771
   1.55497218  3.37815390 -6.82093103
   4.58791973  4.74489844 -1.15470245
   4.59794847  3.34524724 -6.81675207
   7.63239644  4.68077734 -1.15578745
   7.64087027  3.38199643 -6.80675312
   1.55232988 11.85489542 -1.56950041
   1.53435978 10.51320668 -7.03774813
   4.58741529 11.89076310 -1.41909436
   4.57898717 10.49825220 -7.09444954
   7.62227962 11.86628415 -1.43290392
   7.62276014 10.48289086 -7.08654375
   9.14190199  5.14047684 -4.21419277
   0.00416479  3.75573330 -9.85519454
   3.06830281  5.15092775 -4.20360860
   3.04965752  3.74676371 -9.85575987
   6.11859534  5.15527431 -4.20579251
   6.11771036  3.74648347 -9.85272432
   1.50968738  7.44090897 -3.16452755
   1.54221061  6.10138745 -8.82794703
   4.53964068  7.49842784 -3.17391588
   4.58658032  6.09506532 -8.82634296
   7.60322561  7.50260598 -3.16869431
   7.64300833  6.10730075 -8.82679682
   9.13241660  9.52454785 -2.46681520
   0.02417673  8.18047511 -8.13642159
   2.98669332  9.56129150 -2.49225834
   3.06083467  8.17415828 -8.13051794
   6.05103861  9.55793088 -2.47337455
   6.11287350  8.17158690 -8.13233607
   9.10297253  8.92598162 -5.04457027
   0.02406250  7.62418277-10.70650610
   2.95775055  9.09294512 -5.01255800
   3.05836448  7.61329956-10.69472813
   6.03621861  8.99356630 -5.02465164
   6.11207979  7.59488634-10.68140835
   1.51797067  8.02397619 -0.61330470
   1.54493038  6.66750084 -6.26197163
   4.56236753  8.01704066 -0.61130028
   4.58073506  6.68304390 -6.25912041
   7.60634307  8.05169390 -0.60807297
   7.63145363  6.67416041 -6.26645703
   9.13778946  5.71351733 -1.43148530
   0.02533189  4.37549209 -7.09858558
   3.03732033  5.71132407 -1.43268938
   3.08158459  4.36448747 -7.10472917
   6.12899680  5.72399842 -1.43884587
   6.11460569  4.36851488 -7.09948405
   1.53633564 -2.36372394 -9.87307599
   4.44905622 -0.91738299 -4.22173934
   4.58984075 -2.37723686 -9.85540889
   7.61569017 -0.97247616 -4.22243919
   7.64027748 -2.35981757 -9.86587257
   0.11006595  1.08932588 -3.40046094
   0.02258342 -0.06385530 -8.72922939
   3.11245239  1.40660646 -3.13392419
   3.06952211 -0.04413475 -8.83164557
   6.11526410  1.34380329 -3.15815331
   6.12155043 -0.04607997 -8.79907162
   1.48308455  3.37126918 -2.49133362
   1.50967229  2.01433705 -8.10307275
   4.61806110  3.43600946 -2.48155276
   4.60789356  2.03805469 -8.15365103
   7.69904409  3.33182737 -2.49075435
   7.68326438  1.98670839 -8.05910353
   1.56625112  2.88206576 -5.05226579
   1.51698008  1.42387143-10.67417887
   4.60517732  2.86067021 -5.04474271
   4.59190293  1.45043841-10.69248626
   7.64506726  2.84924785 -5.04708990
   7.64686442  1.41859973-10.66711046
   0.02073716  1.82331489 -0.66923747
   0.11172913  0.32928832 -5.96492978
   3.06575375  1.91855942 -0.60123427
   3.11155868  0.60398853 -6.32299507
   6.10713273  1.91911541 -0.59768941
   6.11689415  0.53477948 -6.23939233
   0.43629420 -0.19982915 -4.42242684
 


--------------------------------------------------------------------------------------------------------


 k-point   1 :   0.0000 0.0000 0.0000  plane waves:   27533
 k-point   2 :   0.5000 0.0000 0.0000  plane waves:   27522
 k-point   3 :   0.0000 0.5000 0.0000  plane waves:   27488
 k-point   4 :   0.5000 0.5000 0.0000  plane waves:   27488
 k-point   5 :   0.0000 0.0000 0.5000  plane waves:   27482
 k-point   6 :   0.5000 0.0000 0.5000  plane waves:   27476
 k-point   7 :   0.0000 0.5000 0.5000  plane waves:   27468
 k-point   8 :   0.5000 0.5000 0.5000  plane waves:   27564

 maximum and minimum number of plane-waves per node :     27564    27468

 maximum number of plane-waves:     27564
 maximum index in each direction: 
   IXMAX=   21   IYMAX=   15   IZMAX=   20
   IXMIN=  -21   IYMIN=  -16   IZMIN=  -20


 serial   3D FFT for wavefunctions
 parallel 3D FFT for charge:
    minimum data exchange during FFTs selected (reduces bandwidth)


 FFT grid for exact exchange (Hartree Fock) 
  NGX = 48; NGY = 36; NGZ = 48

 
 Radii for the augmentation spheres in the non-local exchange
 for species   1 augmentation radius   1.392 (default was   1.031)
       energy cutoff for augmentation   1800.0
 for species   2 augmentation radius   0.974 (default was   0.722)
       energy cutoff for augmentation   1800.0
 for species   3 augmentation radius   1.294 (default was   0.959)
       energy cutoff for augmentation   1800.0
 Maximum index for augmentation-charges in exchange           747
  SETUP_FOCK is finished

 total amount of memory used by VASP MPI-rank0  7175145. kBytes
=======================================================================

   base      :      30000. kBytes
   nonlr-proj:      32476. kBytes
   fftplans  :      51012. kBytes
   grid      :     102973. kBytes
   one-center:       1850. kBytes
   HF        :        194. kBytes
   wavefun   :    6956640. kBytes
 
     INWAV:  cpu time      0.0000: real time      0.0001
 Broyden mixing: mesh for mixing (old mesh)
   NGX = 43   NGY = 31   NGZ = 41
  (NGX  =128   NGY  = 96   NGZ  =120)
  gives a total of  54653 points

 charge density for first step will be calculated from the start-wavefunctions


--------------------------------------------------------------------------------------------------------


 Maximum index for non-local projection operator          1716
 Maximum index for augmentation-charges          5366 (set IRDMAX)


--------------------------------------------------------------------------------------------------------


 initial charge from wavefunction
 First call to EWALD:  gamma=   0.164
 Maximum number of real-space cells 3x 3x 3
 Maximum number of reciprocal cells 3x 2x 3

    FEWALD:  cpu time      0.0717: real time      0.0717


--------------------------------------- Ionic step        1  -------------------------------------------




--------------------------------------- Iteration      1(   1)  ---------------------------------------


    POTLOK:  cpu time      0.0571: real time      0.0571
    SETDIJ:  cpu time      0.1305: real time      0.1305
    TRIAL :  cpu time      2.8505: real time      2.8667
    CORREC:  cpu time      0.0015: real time      0.0015
    --------------------------------------------
      LOOP:  cpu time      3.9153: real time      3.9313

 eigenvalue-minimisations  : 10456
 total energy-change (2. order) :-0.1844388E+05  (-0.5424678E+05)
 number of electron    1041.9999841 magnetization 
 augmentation part      118.4258972 magnetization 

 Free energy of the ion-electron system (eV)
  ---------------------------------------------------
  alpha Z        PSCENC =      5376.25786726
  Ewald energy   TEWEN  =    -86723.66616442
  -Hartree energ DENC   =     -2072.83337847
  -exchange      EXHF   =         0.00000000
  -V(xc)+E(xc)   XCENC  =      2751.53691591
  PAW double counting   =    336047.00514426  -364794.06821851
  entropy T*S    EENTRO =        -0.01392493
  eigenvalues    EBANDS =    -40528.33414674
  atomic energy  EATOM  =    131500.23896116
  ---------------------------------------------------
  free energy    TOTEN  =    -18443.87694447 eV

  energy without entropy =   -18443.86301954  energy(sigma->0) =   -18443.86998201
  exchange ACFDT corr.  =         0.00000000  see jH, gK, PRB 81, 115126


--------------------------------------------------------------------------------------------------------




--------------------------------------- Iteration      1(   2)  ---------------------------------------


    TRIAL :  cpu time      3.1109: real time      3.1105
    CORREC:  cpu time      0.0016: real time      0.0016
    --------------------------------------------
      LOOP:  cpu time      3.1126: real time      3.1133

 eigenvalue-minimisations  : 13296
 total energy-change (2. order) :-0.4430621E+05  (-0.4287114E+05)
 number of electron    1041.9999841 magnetization 
 augmentation part      118.4258972 magnetization 

 Free energy of the ion-electron system (eV)
  ---------------------------------------------------
  alpha Z        PSCENC =      5376.25786726
  Ewald energy   TEWEN  =    -86723.66616442
  -Hartree energ DENC   =     -2072.83337847
  -exchange      EXHF   =         0.00000000
  -V(xc)+E(xc)   XCENC  =      2751.53691591
  PAW double counting   =    336047.00514426  -364794.06821851
  entropy T*S    EENTRO =        -0.02095198
  eigenvalues    EBANDS =    -84834.53830887
  atomic energy  EATOM  =    131500.23896116
  ---------------------------------------------------
  free energy    TOTEN  =    -62750.08813365 eV

  energy without entropy =   -62750.06718168  energy(sigma->0) =   -62750.07765767
  exchange ACFDT corr.  =         0.00000000  see jH, gK, PRB 81, 115126


--------------------------------------------------------------------------------------------------------




--------------------------------------- Iteration      1(   3)  ---------------------------------------


    TRIAL :  cpu time      3.2853: real time      3.2848
    CORREC:  cpu time      0.0015: real time      0.0015
    --------------------------------------------
      LOOP:  cpu time      3.2869: real time      3.2870

 eigenvalue-minimisations  : 14381
 total energy-change (2. order) :-0.4892793E+04  (-0.4426286E+04)
 number of electron    1041.9999841 magnetization 
 augmentation part      118.4258972 magnetization 

 Free energy of the ion-electron system (eV)
  ---------------------------------------------------
  alpha Z        PSCENC =      5376.25786726
  Ewald energy   TEWEN  =    -86723.66616442
  -Hartree energ DENC   =     -2072.83337847
  -exchange      EXHF   =         0.00000000
  -V(xc)+E(xc)   XCENC  =      2751.53691591
  PAW double counting   =    336047.00514426  -364794.06821851
  entropy T*S    EENTRO =        -0.02996364
  eigenvalues    EBANDS =    -89727.32191298
  atomic energy  EATOM  =    131500.23896116
  ---------------------------------------------------
  free energy    TOTEN  =    -67642.88074942 eV

  energy without entropy =   -67642.85078579  energy(sigma->0) =   -67642.86576761
  exchange ACFDT corr.  =         0.00000000  see jH, gK, PRB 81, 115126


--------------------------------------------------------------------------------------------------------




--------------------------------------- Iteration      1(   4)  ---------------------------------------


    TRIAL :  cpu time      3.7177: real time      3.7170
    CORREC:  cpu time      0.0016: real time      0.0016
    --------------------------------------------
      LOOP:  cpu time      3.7201: real time      3.7197

 eigenvalue-minimisations  : 17384
 total energy-change (2. order) :-0.6509333E+03  (-0.5752078E+03)
 number of electron    1041.9999841 magnetization 
 augmentation part      118.4258972 magnetization 

 Free energy of the ion-electron system (eV)
  ---------------------------------------------------
  alpha Z        PSCENC =      5376.25786726
  Ewald energy   TEWEN  =    -86723.66616442
  -Hartree energ DENC   =     -2072.83337847
  -exchange      EXHF   =         0.00000000
  -V(xc)+E(xc)   XCENC  =      2751.53691591
  PAW double counting   =    336047.00514426  -364794.06821851
  entropy T*S    EENTRO =        -0.03296746
  eigenvalues    EBANDS =    -90378.25220900
  atomic energy  EATOM  =    131500.23896116
  ---------------------------------------------------
  free energy    TOTEN  =    -68293.81404926 eV

  energy without entropy =   -68293.78108181  energy(sigma->0) =   -68293.79756553
  exchange ACFDT corr.  =         0.00000000  see jH, gK, PRB 81, 115126


--------------------------------------------------------------------------------------------------------




--------------------------------------- Iteration      1(   5)  ---------------------------------------


    POTLOK:  cpu time      1.3332: real time      1.3331
    SETDIJ:  cpu time      0.5199: real time      0.5198
    TRIAL :  cpu time    229.1189: real time    229.0914
    CORREC:  cpu time      0.0013: real time      0.0013
    CHARGE:  cpu time      0.2061: real time      0.2061
    --------------------------------------------
      LOOP:  cpu time    231.1798: real time    231.1522

 eigenvalue-minimisations  : 18328
 total energy-change (2. order) : 0.2960610E+05  (-0.7409441E+02)
 number of electron    1042.0000294 magnetization 
 augmentation part      475.3531693 magnetization 

 Free energy of the ion-electron system (eV)
  ---------------------------------------------------
  alpha Z        PSCENC =      5376.25786726
  Ewald energy   TEWEN  =    -86723.66616442
  -Hartree energ DENC   =     -2072.83337847
  -exchange      EXHF   =      4699.90890450
  -V(xc)+E(xc)   XCENC  =      1902.04176970
  PAW double counting   =    337261.98739114  -339251.66827896
  entropy T*S    EENTRO =        -0.00002935
  eigenvalues    EBANDS =    -91379.98047842
  atomic energy  EATOM  =    131500.23896116
  ---------------------------------------------------
  free energy    TOTEN  =    -38687.71343585 eV

  energy without entropy =   -38687.71340650  energy(sigma->0) =   -38687.71342118
  exchange ACFDT corr.  =        -0.17989934  see jH, gK, PRB 81, 115126


--------------------------------------------------------------------------------------------------------




--------------------------------------- Iteration      1(   6)  ---------------------------------------


    POTLOK:  cpu time      1.4215: real time      1.4214
    SETDIJ:  cpu time      0.4493: real time      0.4492
    TRIAL :  cpu time    227.3864: real time    227.3543
    CORREC:  cpu time    229.2246: real time    229.1923
    CHARGE:  cpu time      0.2041: real time      0.2041
    --------------------------------------------
      LOOP:  cpu time    458.6865: real time    458.6222

 eigenvalue-minimisations  :     0
 total energy-change (2. order) : 0.6578509E+05  (-0.1948712E+05)
 number of electron    1042.0000082 magnetization 
 augmentation part      459.7223480 magnetization 

 Free energy of the ion-electron system (eV)
  ---------------------------------------------------
  alpha Z        PSCENC =      5376.25786726
  Ewald energy   TEWEN  =    -86723.66616442
  -Hartree energ DENC   =    -75371.02738628
  -exchange      EXHF   =      4787.55760053
  -V(xc)+E(xc)   XCENC  =      3714.02406377
  PAW double counting   =    148012.35211008  -172690.30286070
  entropy T*S    EENTRO =        -0.01444822
  eigenvalues    EBANDS =     68491.93840346
  atomic energy  EATOM  =    131500.23896116
  ---------------------------------------------------
  free energy    TOTEN  =     27097.37256551 eV

  energy without entropy =    27097.38701374  energy(sigma->0) =    27097.37978963
  exchange ACFDT corr.  =        -0.00013915  see jH, gK, PRB 81, 115126


--------------------------------------------------------------------------------------------------------




--------------------------------------- Iteration      1(   7)  ---------------------------------------


    POTLOK:  cpu time      1.4853: real time      1.4852
    SETDIJ:  cpu time      0.4405: real time      0.4404
    TRIAL :  cpu time    227.8496: real time    227.8168
    CORREC:  cpu time    230.1975: real time    230.1632
    CHARGE:  cpu time      0.2045: real time      0.2044
    --------------------------------------------
      LOOP:  cpu time    460.1776: real time    460.1105

 eigenvalue-minimisations  :     0
 total energy-change (2. order) :-0.1892649E+05  (-0.4372569E+04)
 number of electron    1041.9999911 magnetization 
 augmentation part      432.2274204 magnetization 

 Free energy of the ion-electron system (eV)
  ---------------------------------------------------
  alpha Z        PSCENC =      5376.25786726
  Ewald energy   TEWEN  =    -86723.66616442
  -Hartree energ DENC   =    -39985.17939889
  -exchange      EXHF   =      3736.90594683
  -V(xc)+E(xc)   XCENC  =      2892.15925575
  PAW double counting   =    144267.33889669  -161852.03808145
  entropy T*S    EENTRO =        -0.01962049
  eigenvalues    EBANDS =      8958.88440707
  atomic energy  EATOM  =    131500.23896116
  ---------------------------------------------------
  free energy    TOTEN  =      8170.88724178 eV

  energy without entropy =     8170.90686228  energy(sigma->0) =     8170.89705203
  exchange ACFDT corr.  =      -163.99430462  see jH, gK, PRB 81, 115126


--------------------------------------------------------------------------------------------------------




--------------------------------------- Iteration      1(   8)  ---------------------------------------


    POTLOK:  cpu time      1.4866: real time      1.4864
    SETDIJ:  cpu time      0.4207: real time      0.4206
    TRIAL :  cpu time    227.8435: real time    227.8109
    CORREC:  cpu time    229.8557: real time    229.8184
    CHARGE:  cpu time      0.2040: real time      0.2040
    --------------------------------------------
      LOOP:  cpu time    459.8107: real time    459.7470

 eigenvalue-minimisations  :     0
 total energy-change (2. order) :-0.4245980E+04  (-0.2041352E+04)
 number of electron    1041.9999935 magnetization 
 augmentation part      435.3545796 magnetization 

 Free energy of the ion-electron system (eV)
  ---------------------------------------------------
  alpha Z        PSCENC =      5376.25786726
  Ewald energy   TEWEN  =    -86723.66616442
  -Hartree energ DENC   =    -31362.45348602
  -exchange      EXHF   =      3478.91219530
  -V(xc)+E(xc)   XCENC  =      2703.69826056
  PAW double counting   =    136300.03293204  -151027.58031247
  entropy T*S    EENTRO =        -0.03437177
  eigenvalues    EBANDS =     -6320.51317583
  atomic energy  EATOM  =    131500.23896116
  ---------------------------------------------------
  free energy    TOTEN  =      3924.90745709 eV

  energy without entropy =     3924.94182886  energy(sigma->0) =     3924.92464297
  exchange ACFDT corr.  =      -113.73568842  see jH, gK, PRB 81, 115126


--------------------------------------------------------------------------------------------------------




--------------------------------------- Iteration      1(   9)  ---------------------------------------


    POTLOK:  cpu time      1.4711: real time      1.4710
    SETDIJ:  cpu time      0.5001: real time      0.5001
    TRIAL :  cpu time    228.3034: real time    228.2701
    CORREC:  cpu time    229.4752: real time    229.4434
    CHARGE:  cpu time      0.2044: real time      0.2043
    --------------------------------------------
      LOOP:  cpu time    459.9554: real time    459.8906

 eigenvalue-minimisations  :     0
 total energy-change (2. order) :-0.1729136E+04  (-0.1474844E+04)
 number of electron    1041.9999958 magnetization 
 augmentation part      448.7210391 magnetization 

 Free energy of the ion-electron system (eV)
  ---------------------------------------------------
  alpha Z        PSCENC =      5376.25786726
  Ewald energy   TEWEN  =    -86723.66616442
  -Hartree energ DENC   =    -31169.22525551
  -exchange      EXHF   =      3485.95021362
  -V(xc)+E(xc)   XCENC  =      2708.47533549
  PAW double counting   =    132280.26626368  -146987.62461205
  entropy T*S    EENTRO =        -0.02672652
  eigenvalues    EBANDS =     -8274.86640817
  atomic energy  EATOM  =    131500.23896116
  ---------------------------------------------------
  free energy    TOTEN  =      2195.77182929 eV

  energy without entropy =     2195.79855581  energy(sigma->0) =     2195.78519255
  exchange ACFDT corr.  =       -66.48174714  see jH, gK, PRB 81, 115126


--------------------------------------------------------------------------------------------------------




--------------------------------------- Iteration      1(  10)  ---------------------------------------


    POTLOK:  cpu time      1.4945: real time      1.4943
    SETDIJ:  cpu time      0.4354: real time      0.4354
    TRIAL :  cpu time    228.1409: real time    228.1049
    CORREC:  cpu time    229.4528: real time    229.4134
    CHARGE:  cpu time      0.2045: real time      0.2045
    --------------------------------------------
      LOOP:  cpu time    459.7293: real time    459.6539

 eigenvalue-minimisations  :     0
 total energy-change (2. order) :-0.1127268E+04  (-0.1017848E+04)
 number of electron    1041.9999976 magnetization 
 augmentation part      454.9236236 magnetization 

 Free energy of the ion-electron system (eV)
  ---------------------------------------------------
  alpha Z        PSCENC =      5376.25786726
  Ewald energy   TEWEN  =    -86723.66616442
  -Hartree energ DENC   =    -32740.35790066
  -exchange      EXHF   =      3604.54195087
  -V(xc)+E(xc)   XCENC  =      2789.58417127
  PAW double counting   =    139224.44385741  -154562.74687206
  entropy T*S    EENTRO =        -0.01486778
  eigenvalues    EBANDS =     -7399.76531073
  atomic energy  EATOM  =    131500.23896116
  ---------------------------------------------------
  free energy    TOTEN  =      1068.50383357 eV

  energy without entropy =     1068.51870135  energy(sigma->0) =     1068.51126746
  exchange ACFDT corr.  =       -15.28602580  see jH, gK, PRB 81, 115126


--------------------------------------------------------------------------------------------------------




--------------------------------------- Iteration      1(  11)  ---------------------------------------


    POTLOK:  cpu time      1.4898: real time      1.4895
    SETDIJ:  cpu time      0.4465: real time      0.4464
    TRIAL :  cpu time    227.8621: real time    227.8270
    CORREC:  cpu time    229.3121: real time    229.3340
    CHARGE:  cpu time      0.2026: real time      0.2026
    --------------------------------------------
      LOOP:  cpu time    459.3141: real time    459.3008

 eigenvalue-minimisations  :     0
 total energy-change (2. order) :-0.1005900E+04  (-0.4990201E+03)
[...]
   0.301E+02 0.110E+03 -.595E+02   -.299E+02 -.109E+03 0.621E+02   -.195E+00 -.163E+01 -.234E+01
   0.223E+01 0.407E+02 -.181E+02   -.185E+01 -.399E+02 0.190E+02   -.360E+00 -.745E+00 -.986E+00
   -.525E+01 0.745E+02 -.562E+02   0.534E+01 -.727E+02 0.582E+02   -.108E+00 -.170E+01 -.189E+01
   -.315E+01 0.793E+02 -.110E+02   0.416E+01 -.753E+02 0.128E+02   -.895E+00 -.365E+01 -.173E+01
   -.213E+02 0.113E+03 -.608E+02   0.215E+02 -.112E+03 0.633E+02   -.138E+00 -.127E+01 -.220E+01
   0.247E+02 -.535E+01 0.112E+03   -.251E+02 0.112E+02 -.119E+03   0.333E+00 -.506E+01 0.679E+01
   0.226E+02 -.455E+02 -.583E+02   -.233E+02 0.530E+02 0.564E+02   0.624E+00 -.647E+01 0.158E+01
   0.955E+01 -.197E+02 0.423E+02   -.934E+01 0.280E+02 -.460E+02   -.171E+00 -.724E+01 0.321E+01
   0.944E+01 -.307E+02 -.125E+02   -.928E+01 0.386E+02 0.846E+01   -.128E+00 -.690E+01 0.342E+01
   -.323E+02 -.179E+02 0.676E+02   0.324E+02 0.237E+02 -.713E+02   -.121E+00 -.498E+01 0.328E+01
   -.232E+02 -.406E+02 -.209E+02   0.228E+02 0.465E+02 0.165E+02   0.309E+00 -.520E+01 0.372E+01
   0.961E+01 0.347E+02 -.252E+02   -.106E+02 -.428E+02 0.296E+02   0.812E+00 0.699E+01 -.377E+01
   0.302E+01 0.259E+02 -.125E+02   -.312E+01 -.331E+02 0.160E+02   0.884E-01 0.623E+01 -.300E+01
   0.156E+01 0.133E+02 -.180E+02   -.109E+01 -.199E+02 0.220E+02   -.396E+00 0.571E+01 -.340E+01
   0.626E+01 0.166E+02 -.124E+02   -.635E+01 -.235E+02 0.162E+02   0.783E-01 0.595E+01 -.329E+01
   -.705E+01 0.257E+02 -.189E+02   0.716E+01 -.333E+02 0.228E+02   -.106E+00 0.659E+01 -.336E+01
   -.778E+01 0.214E+02 -.132E+02   0.774E+01 -.286E+02 0.169E+02   0.322E-01 0.625E+01 -.323E+01
   -.214E+01 0.474E+02 0.407E+02   0.194E+01 -.474E+02 -.353E+02   0.197E+00 -.688E-01 -.470E+01
   0.688E+00 0.595E+02 0.418E+02   -.652E+00 -.575E+02 -.372E+02   -.273E-01 -.177E+01 -.405E+01
   0.536E+01 0.316E+02 0.540E+02   -.519E+01 -.277E+02 -.505E+02   -.151E+00 -.346E+01 -.298E+01
   0.313E+00 0.623E+02 0.424E+02   -.167E+00 -.604E+02 -.379E+02   -.125E+00 -.165E+01 -.383E+01
   -.436E+01 0.345E+02 0.483E+02   0.475E+01 -.306E+02 -.446E+02   -.354E+00 -.342E+01 -.311E+01
   -.223E+01 0.623E+02 0.394E+02   0.213E+01 -.602E+02 -.347E+02   0.890E-01 -.182E+01 -.412E+01
   -.568E+01 -.125E+03 0.431E+01   0.326E+01 0.123E+03 -.840E+01   0.206E+01 0.115E+01 0.367E+01
   -.390E+01 -.868E+02 -.447E+02   0.384E+01 0.852E+02 0.401E+02   0.558E-01 0.129E+01 0.397E+01
   0.380E+02 -.101E+03 0.456E+01   -.390E+02 0.979E+02 -.901E+01   0.874E+00 0.226E+01 0.387E+01
   0.656E+01 -.789E+02 -.472E+02   -.651E+01 0.769E+02 0.422E+02   -.303E-01 0.170E+01 0.422E+01
   -.354E+01 -.764E+02 -.143E+02   0.352E+01 0.739E+02 0.886E+01   -.219E-01 0.212E+01 0.476E+01
   -.564E+01 -.786E+02 -.420E+02   0.599E+01 0.771E+02 0.370E+02   -.311E+00 0.125E+01 0.426E+01
   -.926E+01 0.475E+02 0.452E+02   0.705E+01 -.604E+02 -.420E+02   0.186E+01 0.109E+02 -.284E+01
   -.417E+01 0.107E+03 0.839E+02   0.394E+01 -.120E+03 -.807E+02   0.199E+00 0.105E+02 -.274E+01
   0.292E+02 0.436E+02 0.418E+02   -.284E+02 -.530E+02 -.385E+02   -.621E+00 0.811E+01 -.288E+01
   0.788E+01 0.114E+03 0.794E+02   -.777E+01 -.127E+03 -.758E+02   -.890E-01 0.106E+02 -.311E+01
   0.513E-01 0.990E+02 0.454E+02   -.127E+00 -.112E+03 -.407E+02   0.231E-01 0.109E+02 -.407E+01
   -.435E+01 0.118E+03 0.746E+02   0.457E+01 -.131E+03 -.711E+02   -.199E+00 0.110E+02 -.302E+01
   0.106E+01 -.136E+03 -.469E+02   -.136E+01 0.148E+03 0.431E+02   0.261E+00 -.108E+02 0.336E+01
   -.365E+01 -.139E+03 -.737E+02   0.372E+01 0.152E+03 0.704E+02   -.522E-01 -.111E+02 0.280E+01
   0.389E+01 -.128E+03 -.508E+02   -.385E+01 0.141E+03 0.473E+02   -.268E-01 -.105E+02 0.302E+01
   0.461E+01 -.134E+03 -.754E+02   -.448E+01 0.146E+03 0.721E+02   -.104E+00 -.109E+02 0.283E+01
   0.248E+01 -.132E+03 -.497E+02   -.331E+01 0.145E+03 0.460E+02   0.700E+00 -.113E+02 0.326E+01
   -.173E+01 -.128E+03 -.727E+02   0.186E+01 0.140E+03 0.695E+02   -.121E+00 -.108E+02 0.269E+01
   0.149E+01 -.163E+02 0.207E+02   -.139E+01 0.237E+02 -.245E+02   -.927E-01 -.642E+01 0.331E+01
   0.178E+01 0.335E+01 0.462E+01   -.165E+01 0.378E+01 -.852E+01   -.118E+00 -.611E+01 0.335E+01
   0.654E+01 -.180E+02 0.203E+02   -.677E+01 0.254E+02 -.240E+02   0.206E+00 -.633E+01 0.325E+01
   -.143E+01 -.966E+01 0.736E+01   0.225E+01 0.168E+02 -.112E+02   -.698E+00 -.616E+01 0.333E+01
   -.127E+02 -.229E+02 0.206E+02   0.134E+02 0.309E+02 -.244E+02   -.627E+00 -.689E+01 0.329E+01
   -.226E+01 -.746E+01 0.691E+01   0.150E+01 0.147E+02 -.108E+02   0.645E+00 -.624E+01 0.336E+01
   0.944E+01 0.145E+02 -.962E+01   -.963E+01 -.221E+02 0.130E+02   0.158E+00 0.652E+01 -.295E+01
   0.557E+02 -.121E+02 -.497E+01   -.591E+02 0.942E+01 0.725E+01   0.303E+01 0.225E+01 -.195E+01
   0.206E+01 0.171E+02 -.143E+02   -.202E+01 -.245E+02 0.182E+02   -.313E-01 0.634E+01 -.330E+01
   -.192E+03 -.109E+03 0.183E+02   0.205E+03 0.112E+03 -.174E+02   -.126E+02 -.267E+01 -.788E+00
   -.114E+02 0.119E+02 -.129E+02   0.115E+02 -.194E+02 0.165E+02   -.638E-01 0.646E+01 -.314E+01
   0.291E+02 0.161E+03 0.126E+03   -.360E+02 -.148E+03 -.115E+03   0.579E+01 -.109E+02 -.975E+01
   0.598E+01 0.718E+02 -.244E+01   -.648E+01 -.705E+02 0.604E+01   0.427E+00 -.114E+01 -.320E+01
   0.183E+02 0.130E+03 0.773E+02   -.169E+02 -.132E+03 -.769E+02   -.104E+01 0.255E+01 -.155E+00
   0.841E+01 0.742E+02 0.169E+02   -.734E+01 -.725E+02 -.114E+02   -.917E+00 -.142E+01 -.486E+01
   -.361E+02 0.940E+02 0.770E+02   0.357E+02 -.929E+02 -.748E+02   0.339E+00 -.828E+00 -.183E+01
   -.258E+02 0.687E+02 0.155E+02   0.273E+02 -.671E+02 -.101E+02   -.132E+01 -.135E+01 -.471E+01
   0.232E+02 -.345E+02 -.215E+02   -.225E+02 0.335E+02 0.165E+02   -.625E+00 0.918E+00 0.441E+01
   0.152E+02 -.420E+02 -.653E+02   -.144E+02 0.402E+02 0.607E+02   -.682E+00 0.167E+01 0.398E+01
   -.509E+01 -.531E+02 -.280E+02   0.521E+01 0.505E+02 0.231E+02   -.775E-01 0.235E+01 0.427E+01
   0.122E+01 -.566E+02 -.496E+02   -.199E+01 0.542E+02 0.455E+02   0.688E+00 0.216E+01 0.354E+01
   -.284E+02 -.303E+02 -.192E+02   0.286E+02 0.295E+02 0.145E+02   -.158E+00 0.816E+00 0.411E+01
   -.971E+01 -.340E+02 -.686E+02   0.865E+01 0.314E+02 0.639E+02   0.903E+00 0.222E+01 0.402E+01
   0.231E+02 0.170E+03 0.490E+02   -.218E+02 -.182E+03 -.457E+02   -.114E+01 0.109E+02 -.291E+01
   0.109E+02 0.129E+03 0.619E+02   -.108E+02 -.142E+03 -.584E+02   -.464E-01 0.108E+02 -.300E+01
   -.297E+01 0.143E+03 0.561E+02   0.266E+01 -.156E+03 -.526E+02   0.281E+00 0.110E+02 -.302E+01
   -.336E+01 0.124E+03 0.644E+02   0.371E+01 -.136E+03 -.611E+02   -.300E+00 0.109E+02 -.287E+01
   -.225E+02 0.187E+03 0.477E+02   0.216E+02 -.201E+03 -.446E+02   0.752E+00 0.119E+02 -.265E+01
   -.115E+02 0.126E+03 0.616E+02   0.118E+02 -.139E+03 -.586E+02   -.235E+00 0.107E+02 -.266E+01
   -.260E+01 -.852E+02 -.267E+02   0.267E+01 0.953E+02 0.239E+02   -.592E-01 -.873E+01 0.245E+01
   0.224E+02 -.419E+02 -.186E+03   -.281E+02 0.546E+02 0.172E+03   0.475E+01 -.108E+02 0.122E+02
   0.130E+02 -.109E+03 -.494E+02   -.123E+02 0.122E+03 0.458E+02   -.633E+00 -.111E+02 0.317E+01
   0.170E+02 -.953E+02 -.130E+03   -.155E+02 0.108E+03 0.132E+03   -.111E+01 -.109E+02 -.198E+01
   -.105E+02 -.115E+03 -.514E+02   0.996E+01 0.128E+03 0.483E+02   0.485E+00 -.111E+02 0.264E+01
   -.324E+02 -.115E+03 -.109E+03   0.315E+02 0.128E+03 0.108E+03   0.786E+00 -.114E+02 0.495E+00
   -.123E+02 0.756E+02 -.188E+02   0.191E+02 -.904E+02 0.230E+02   -.552E+01 0.141E+02 -.402E+01
 -----------------------------------------------------------------------------------------------
   -.212E+02 0.132E+02 -.116E+02   -.249E-12 -.284E-12 0.576E-12   0.194E+02 -.962E+01 0.936E+01
 
 
 POSITION                                       TOTAL-FORCE (eV/Angst)
 -----------------------------------------------------------------------------------
      9.11817      7.62886     -1.75302        -0.025504      0.202390     -0.056927
      0.01634      6.29015     -7.42292        -0.006341      0.081156      0.026694
      3.03729      7.63306     -1.77382        -0.007063      0.095363     -0.037884
      3.06626      6.27824     -7.42509         0.001676      0.068208      0.031330
      6.08693      7.65420     -1.78655         0.035693      0.143112     -0.046178
      6.10980      6.28515     -7.42140         0.016698      0.083680      0.029220
      1.43010      9.29212     -3.85170        -0.283353     -0.049973     -0.036368
      1.53790      7.99527     -9.53622        -0.017033     -0.040316     -0.021018
      4.51840      9.45232     -3.87215        -0.001070      0.095036     -0.071730
      4.58880      7.98923     -9.53274         0.014969     -0.039629     -0.014522
      7.57922      9.43892     -3.88930         0.130173      0.355148     -0.139108
      7.64032      8.00007     -9.53897         0.012952     -0.043629     -0.018187
      1.52980      6.12266     -4.50118        -0.012331     -0.003729      0.036111
      1.53015      4.76282    -10.14060         0.002959     -0.020198     -0.005772
      4.59260      6.16311     -4.48774        -0.018732     -0.004846      0.024498
      4.58338      4.74773    -10.13511        -0.011614     -0.015761      0.002081
      7.63422      6.17716     -4.49012         0.009892      0.004374      0.028148
      7.62756      4.77243    -10.14119        -0.004452     -0.014487     -0.011748
      0.01920     10.88646     -1.18141        -0.008621      0.036978     -0.259043
      0.00796      9.49333     -6.79785        -0.020916      0.138839      0.186475
      3.07073     10.87797     -1.16486        -0.070123      0.091308     -0.148511
      3.05829      9.49954     -6.80997        -0.073151      0.171556      0.081843
      6.09776     10.86776     -1.14796         0.047322      0.071500     -0.116859
      6.09175      9.48419     -6.79541         0.038521      0.117569      0.065260
      1.58779      1.50344     -1.78548         0.086067     -0.059078     -0.216760
      1.59243      0.13417     -7.40826         0.088514      0.038430      0.319373
      4.59189      1.53065     -1.77492        -0.092351      0.019260     -0.199004
      4.61454      0.13993     -7.41091        -0.094834      0.124355      0.241155
      7.58851      1.46978     -1.76660        -0.052956     -0.048305     -0.096386
      7.63509      0.10854     -7.33245        -0.028499     -0.022392      0.218072
      0.03131      3.20408     -3.93035         0.051903     -0.213464     -0.070224
      0.01270      1.84479     -9.49311         0.020956     -0.082018      0.069570
      3.09060      3.24528     -3.88099        -0.000108     -0.285944     -0.030182
      3.06813      1.83143     -9.54091         0.027387     -0.121191      0.045772
      6.12391      3.22828     -3.88957        -0.027696     -0.190590     -0.035450
      6.11376      1.82844     -9.52297        -0.066515     -0.109067      0.036745
      0.01635     -1.34654    -10.14211         0.008652     -0.120637      0.025998
      2.84849      0.10369     -4.52769        -0.217202      0.282101     -0.104019
      3.07069     -1.37117    -10.14238        -0.004504      0.006737      0.005813
      6.07378     -0.01817     -4.46585         0.260046     -0.196063      0.028009
      6.10794     -1.36394    -10.12756         0.012696     -0.026785      0.017122
      1.51591      4.70065     -1.15251        -0.003531      0.001812     -0.057213
      1.55497      3.37815     -6.82093         0.006519     -0.077119      0.089431
      4.58792      4.74490     -1.15470        -0.000463     -0.048395     -0.065777
      4.59795      3.34525     -6.81675        -0.010941     -0.041009      0.040743
      7.63240      4.68078     -1.15579         0.028153      0.043368     -0.045217
      7.64087      3.38200     -6.80675         0.017177     -0.062996      0.060251
      1.55233     11.85490     -1.56950         0.044318     -0.152258      0.358033
      1.53436     10.51321     -7.03775         0.046353     -0.255755     -0.019284
      4.58742     11.89076     -1.41909         0.008199     -0.241562      0.160737
      4.57899     10.49825     -7.09445         0.009837     -0.248194      0.089754
      7.62228     11.86628     -1.43290        -0.036577     -0.142634      0.189298
      7.62276     10.48289     -7.08654        -0.035219     -0.194096      0.072564
      9.14190      5.14048     -4.21419         0.024091      0.233886     -0.143150
      0.00416      3.75573     -9.85519         0.003386      0.193135     -0.115668
      3.06830      5.15093     -4.20361        -0.000964      0.189524     -0.124054
      3.04966      3.74676     -9.85576         0.009190      0.183478     -0.124825
      6.11860      5.15527     -4.20579        -0.011697      0.214121     -0.126977
      6.11771      3.74648     -9.85272        -0.007446      0.195473     -0.119702
      1.50969      7.44091     -3.16453         0.031225     -0.052397     -0.113464
      1.54221      6.10139     -8.82795        -0.002090     -0.058923     -0.123908
      4.53964      7.49843     -3.17392         0.002380     -0.146839     -0.055612
      4.58658      6.09507     -8.82634        -0.006721     -0.051220     -0.117497
      7.60323      7.50261     -3.16869        -0.033820     -0.162774     -0.062385
      7.64301      6.10730     -8.82680        -0.003245     -0.063292     -0.126583
      9.13242      9.52455     -2.46682         0.053956     -0.188727      0.248164
      0.02418      8.18048     -8.13642        -0.001602     -0.028415      0.075017
      2.98669      9.56129     -2.49226         0.061199      0.002573      0.144634
      3.06083      8.17416     -8.13052         0.004275     -0.002989      0.102338
      6.05104      9.55793     -2.47337        -0.036907     -0.015798      0.208939
      6.11287      8.17159     -8.13234        -0.019405     -0.021677      0.097071
      9.10297      8.92598     -5.04457         0.023521      0.211926     -0.135238
      0.02406      7.62418    -10.70651         0.001822      0.368238     -0.011936
      2.95775      9.09295     -5.01256         0.024239      0.250933     -0.069739
      3.05836      7.61330    -10.69473         0.006544      0.375439     -0.047192
      6.03622      8.99357     -5.02465        -0.040643      0.330464     -0.137075
      6.11208      7.59489    -10.68141        -0.015680      0.392073     -0.042442
      1.51797      8.02398     -0.61330         0.020379     -0.418731      0.124970
      1.54493      6.66750     -6.26197         0.005008     -0.433388      0.047513
      4.56237      8.01704     -0.61130         0.007281     -0.400171      0.106412
      4.58074      6.68304     -6.25912        -0.000735     -0.422929      0.053017
      7.60634      8.05169     -0.60807         0.010822     -0.444542      0.132771
      7.63145      6.67416     -6.26646        -0.019311     -0.429432      0.043032
      9.13779      5.71352     -1.43149        -0.007931     -0.190580      0.136330
      0.02533      4.37549     -7.09859        -0.013515     -0.141305      0.099040
      3.03732      5.71132     -1.43269         0.022109     -0.166166      0.129112
      3.08158      4.36449     -7.10473        -0.019753     -0.138689      0.095479
      6.12900      5.72400     -1.43885        -0.040696     -0.190247      0.131032
      6.11461      4.36851     -7.09948         0.014534     -0.146177      0.098751
      1.53634     -2.36372     -9.87308         0.006325      0.180095     -0.104447
      4.44906     -0.91738     -4.22174         0.149399     -0.005521     -0.059849
      4.58984     -2.37724     -9.85541         0.002307      0.167758     -0.117711
      7.61569     -0.97248     -4.22244        -1.245311     -0.188934     -0.026344
      7.64028     -2.35982     -9.86587        -0.005807      0.179656     -0.114073
      0.11007      1.08933     -3.40046        -0.006367      0.065378     -0.001922
      0.02258     -0.06386     -8.72923         0.008964     -0.014267     -0.191932
      3.11245      1.40661     -3.13392         0.142253      0.340371      0.232582
      3.06952     -0.04413     -8.83165        -0.031944     -0.024250     -0.221185
      6.11526      1.34380     -3.15815        -0.021226      0.090020      0.033713
      6.12155     -0.04608     -8.79907        -0.061344     -0.015386     -0.194838
      1.48308      3.37127     -2.49133        -0.001281      0.103768      0.196929
      1.50967      2.01434     -8.10307        -0.013979      0.084849      0.035147
      4.61806      3.43601     -2.48155         0.016626      0.145891      0.170087
      4.60789      2.03805     -8.15365         0.040994      0.099360      0.034343
      7.69904      3.33183     -2.49075        -0.041251      0.086915      0.181221
      7.68326      1.98671     -8.05910         0.008508      0.096985      0.048977
      1.56625      2.88207     -5.05227        -0.036173      0.506226     -0.114876
      1.51698      1.42387    -10.67418         0.001277      0.424136     -0.086358
      4.60518      2.86067     -5.04474         0.024194      0.458250     -0.104215
      4.59190      1.45044    -10.69249        -0.010241      0.418954     -0.078767
      7.64507      2.84925     -5.04709        -0.011838      0.497041     -0.097584
      7.64686      1.41860    -10.66711        -0.017292      0.415098     -0.078145
      0.02074      1.82331     -0.66924        -0.007307     -0.292358      0.134711
      0.11173      0.32929     -5.96493        -0.056492     -0.193881     -0.147716
      3.06575      1.91856     -0.60123        -0.012509     -0.390322      0.150583
      3.11156      0.60399     -6.32300         0.167619     -0.369313     -0.392779
      6.10713      1.91912     -0.59769         0.008692     -0.392557      0.108212
      6.11689      0.53478     -6.23939        -0.008483     -0.396777     -0.123570
      0.43629     -0.19983     -4.42243         1.171959     -0.003201     -0.003099
 -----------------------------------------------------------------------------------
    total drift:                               -0.079510     -0.074384      0.025846


--------------------------------------------------------------------------------------------------------



  FREE ENERGIE OF THE ION-ELECTRON SYSTEM (eV)
  ---------------------------------------------------
  free  energy   TOTEN  =      -946.53060432 eV

  energy  without entropy=     -946.53060432  energy(sigma->0) =     -946.53060432
 


--------------------------------------------------------------------------------------------------------


    POTLOK:  cpu time      1.9627: real time      1.9695


--------------------------------------------------------------------------------------------------------


 writing wavefunctions
     LOOP+:  cpu time  16627.5421: real time  16625.0214
    4ORBIT:  cpu time      0.0000: real time      0.0000

 total amount of memory used by VASP MPI-rank0  7418445. kBytes
=======================================================================

   base      :      30000. kBytes
   nonlr-proj:      46543. kBytes
   fftplans  :      51012. kBytes
   grid      :     102973. kBytes
   one-center:       1850. kBytes
   HF        :        194. kBytes
   wavefun   :    6956640. kBytes
   fock_wrk  :     229233. kBytes
 
  
  
 General timing and accounting informations for this job:
 ========================================================
  
                  Total CPU time used (sec):    16659.117
                            User time (sec):    16645.737
                          System time (sec):       13.380
                         Elapsed time (sec):    16658.219
  
                   Maximum memory used (kb):    13190400.
                   Average memory used (kb):          N/A
  
                          Minor page faults:      4799932
                          Major page faults:            5
                 Voluntary context switches:       306261
