<?xml version="1.0" encoding="ISO-8859-1"?>
<modeling>
 <generator>
  <i name="program" type="string">vasp </i>
  <i name="version" type="string">6.4.2  </i>
  <i name="subversion" type="string">20Jul23 (build Nov 12 2023 22:16:35) complex                          parallel </i>
  <i name="platform" type="string">LinuxNV </i>
  <i name="date" type="string">2025 03 15 </i>
  <i name="time" type="string">16:26:53 </i>
 </generator>
 <incar>
  <i type="int" name="ISTART">     0</i>
  <i type="string" name="PREC">Normal</i>
  <i type="string" name="ALGO">All</i>
  <i type="int" name="ISPIN">     1</i>
  <i type="int" name="ICHARG">     0</i>
  <i type="int" name="NELM">   500</i>
  <i type="int" name="IBRION">    -1</i>
  <i name="EDIFF">      0.00001000</i>
  <i name="EDIFFG">     -0.00500000</i>
  <i type="int" name="NSW">     0</i>
  <i type="int" name="ISIF">     2</i>
  <i name="ENCUT">    450.00000000</i>
  <i type="string" name="LREAL">Auto</i>
  <i type="logical" name="LPLANE"> T  </i>
  <i name="TIME">      0.40000000</i>
  <i type="int" name="ISMEAR">     0</i>
  <i name="SIGMA">      0.05000000</i>
  <i type="logical" name="LWAVE"> T  </i>
  <i type="logical" name="LCHARG"> T  </i>
  <i name="HFSCREEN">      0.20000000</i>
  <i type="logical" name="LHFCALC"> T  </i>
  <i type="int" name="LMAXFOCK">     4</i>
  <i name="AEXX">      0.32000000</i>
  <i type="string" name="PRECFOCK">Fast</i>
 </incar>
 <primitive_cell>
  <structure name="primitive_cell" >
   <crystal>
    <varray name="basis" >
     <v>       0.00000000      12.28047342       0.00000000 </v>
     <v>       9.14270205       0.00000000       0.00000000 </v>
     <v>       0.00000000      -2.76826177     -11.30069772 </v>
    </varray>
    <i name="volume">   1268.80515525 </i>
    <varray name="rec_basis" >
     <v>       0.00000000       0.08143009      -0.01994742 </v>
     <v>       0.10937686      -0.00000000       0.00000000 </v>
     <v>       0.00000000       0.00000000      -0.08849011 </v>
    </varray>
   </crystal>
   <varray name="positions" >
    <v>       0.65618701       0.99731715       0.15512525 </v>
    <v>       0.66027536       0.00178682       0.65685475 </v>
    <v>       0.65694367       0.33220892       0.15696583 </v>
    <v>       0.65934907       0.33537821       0.65704708 </v>
    <v>       0.65891922       0.66576957       0.15809200 </v>
    <v>       0.65983850       0.66827113       0.65672062 </v>
    <v>       0.83348961       0.15642006       0.34083750 </v>
    <v>       0.84127863       0.16821118       0.84386153 </v>
    <v>       0.84694254       0.49420788       0.34264673 </v>
    <v>       0.84071704       0.50190810       0.84355318 </v>
    <v>       0.84619331       0.82899177       0.34416429 </v>
    <v>       0.84172424       0.83567432       0.84410424 </v>
    <v>       0.58835553       0.16732455       0.39831009 </v>
    <v>       0.59011536       0.16736343       0.89734300 </v>
    <v>       0.59138127       0.50232405       0.39712104 </v>
    <v>       0.58877705       0.50131600       0.89685722 </v>
    <v>       0.59257330       0.83500718       0.39733130 </v>
    <v>       0.59090954       0.83427866       0.89739481 </v>
    <v>       0.91005138       0.00210021       0.10454288 </v>
    <v>       0.90864252       0.00087057       0.60154281 </v>
    <v>       0.90902969       0.33586687       0.10307895 </v>
    <v>       0.90938998       0.33450642       0.60261457 </v>
    <v>       0.90786140       0.66695345       0.10158329 </v>
    <v>       0.90784979       0.66629648       0.60132698 </v>
    <v>       0.15804057       0.17366702       0.15799693 </v>
    <v>       0.15870087       0.17417538       0.65555817 </v>
    <v>       0.16004611       0.50224669       0.15706328 </v>
    <v>       0.15922318       0.50472427       0.65579225 </v>
    <v>       0.15492344       0.83000742       0.15632655 </v>
    <v>       0.15510179       0.83510228       0.64884929 </v>
    <v>       0.33930850       0.00342497       0.34779727 </v>
    <v>       0.33958410       0.00138883       0.84004600 </v>
    <v>       0.34167903       0.33804057       0.34342917 </v>
    <v>       0.33945007       0.33558199       0.84427621 </v>
    <v>       0.34046572       0.66981359       0.34418850 </v>
    <v>       0.33884885       0.66870376       0.84268898 </v>
    <v>       0.09266000       0.00178848       0.89747652 </v>
    <v>       0.09875939       0.31155870       0.40065593 </v>
    <v>       0.09066013       0.33586274       0.89750007 </v>
    <v>       0.08760257       0.66433078       0.39518400 </v>
    <v>       0.09095295       0.66806690       0.89618862 </v>
    <v>       0.40576420       0.16580595       0.10198554 </v>
    <v>       0.41114335       0.17007797       0.60358495 </v>
    <v>       0.40941082       0.50181223       0.10217975 </v>
    <v>       0.40838040       0.50290914       0.60321515 </v>
    <v>       0.40421108       0.83480752       0.10227576 </v>
    <v>       0.41117344       0.83573436       0.60233034 </v>
    <v>       0.99665264       0.16978896       0.13888527 </v>
    <v>       0.99647625       0.16782345       0.62277112 </v>
    <v>       0.99657313       0.50175706       0.12557582 </v>
    <v>       0.99638956       0.50083522       0.62778863 </v>
    <v>       0.99485527       0.83370097       0.12679783 </v>
    <v>       0.99498098       0.83375353       0.62708905 </v>
    <v>       0.50265175       0.99991249       0.37291439 </v>
    <v>       0.50241541       0.00045553       0.87208726 </v>
    <v>       0.50329164       0.33560131       0.37197779 </v>
    <v>       0.50169630       0.33356195       0.87213729 </v>
    <v>       0.50368915       0.66923272       0.37217105 </v>
    <v>       0.50161293       0.66913592       0.87186867 </v>
    <v>       0.66903802       0.16512486       0.28002940 </v>
    <v>       0.67293129       0.16868215       0.78118602 </v>
    <v>       0.67390906       0.49653162       0.28086017 </v>
    <v>       0.67238448       0.50166573       0.78104407 </v>
    <v>       0.67414513       0.83161691       0.28039811 </v>
    <v>       0.67338987       0.83596822       0.78108423 </v>
    <v>       0.82479135       0.99887501       0.21828875 </v>
    <v>       0.82843743       0.00264437       0.71999285 </v>
    <v>       0.82829091       0.32667512       0.22054022 </v>
    <v>       0.82780528       0.33478447       0.71947044 </v>
    <v>       0.82764058       0.66184357       0.21886919 </v>
    <v>       0.82763216       0.66860688       0.71963132 </v>
    <v>       0.82746962       0.99565451       0.44639458 </v>
    <v>       0.83440506       0.00263188       0.94741992 </v>
    <v>       0.84042691       0.32350945       0.44356182 </v>
    <v>       0.83328389       0.33451429       0.94637768 </v>
    <v>       0.83257572       0.66022261       0.44463198 </v>
    <v>       0.83151881       0.66852007       0.94519901 </v>
    <v>       0.66562691       0.16603086       0.05427140 </v>
    <v>       0.66784536       0.16897963       0.55412257 </v>
    <v>       0.66502217       0.49901741       0.05409403 </v>
    <v>       0.66905416       0.50102640       0.55387026 </v>
    <v>       0.66777961       0.83195789       0.05380844 </v>
    <v>       0.66847712       0.83470440       0.55451948 </v>
    <v>       0.49380665       0.99946268       0.12667229 </v>
    <v>       0.49789518       0.00277072       0.62815463 </v>
    <v>       0.49365207       0.33221255       0.12677884 </v>
    <v>       0.49712162       0.33705403       0.62869828 </v>
    <v>       0.49480695       0.67037040       0.12732363 </v>
    <v>       0.49734495       0.66879634       0.62823413 </v>
    <v>       0.00446418       0.16803956       0.87366959 </v>
    <v>       0.00951024       0.48662378       0.37358218 </v>
    <v>       0.00301141       0.50202235       0.87210623 </v>
    <v>       0.00503796       0.83298024       0.37364411 </v>
    <v>       0.00463858       0.83566953       0.87303216 </v>
    <v>       0.15653433       0.01203867       0.30090717 </v>
    <v>       0.16892588       0.00247010       0.77245048 </v>
    <v>       0.17705379       0.34043026       0.27732130 </v>
    <v>       0.17257467       0.33573468       0.78151330 </v>
    <v>       0.17242304       0.66886836       0.27946534 </v>
    <v>       0.17176650       0.66955594       0.77863083 </v>
    <v>       0.32421842       0.16221512       0.22045839 </v>
    <v>       0.32566305       0.16512321       0.71704181 </v>
    <v>       0.32929513       0.50510900       0.21959288 </v>
    <v>       0.32860329       0.50399691       0.72151749 </v>
    <v>       0.32099512       0.84209723       0.22040713 </v>
    <v>       0.32253618       0.84037130       0.71315097 </v>
    <v>       0.33546654       0.17131162       0.44707556 </v>
    <v>       0.32886833       0.16592251       0.94455928 </v>
    <v>       0.33357423       0.50369981       0.44640984 </v>
    <v>       0.33139687       0.50224790       0.94617930 </v>
    <v>       0.33269093       0.83619342       0.44661755 </v>
    <v>       0.32829806       0.83638998       0.94393379 </v>
    <v>       0.16182225       0.00226817       0.05922090 </v>
    <v>       0.14579895       0.01222058       0.52783730 </v>
    <v>       0.16822153       0.33532250       0.05320329 </v>
    <v>       0.17531029       0.34033250       0.55952254 </v>
    <v>       0.16819609       0.66797897       0.05288960 </v>
    <v>       0.16800693       0.66904665       0.55212452 </v>
    <v>       0.07194391       0.04772049       0.39134104 </v>
   </varray>
  </structure>
  <varray name="primitive_index" >
   <v type="int" >        1 </v>
   <v type="int" >        2 </v>
   <v type="int" >        3 </v>
   <v type="int" >        4 </v>
   <v type="int" >        5 </v>
   <v type="int" >        6 </v>
   <v type="int" >        7 </v>
   <v type="int" >        8 </v>
   <v type="int" >        9 </v>
   <v type="int" >       10 </v>
   <v type="int" >       11 </v>
   <v type="int" >       12 </v>
   <v type="int" >       13 </v>
   <v type="int" >       14 </v>
   <v type="int" >       15 </v>
   <v type="int" >       16 </v>
   <v type="int" >       17 </v>
   <v type="int" >       18 </v>
   <v type="int" >       19 </v>
   <v type="int" >       20 </v>
   <v type="int" >       21 </v>
   <v type="int" >       22 </v>
   <v type="int" >       23 </v>
   <v type="int" >       24 </v>
   <v type="int" >       25 </v>
   <v type="int" >       26 </v>
   <v type="int" >       27 </v>
   <v type="int" >       28 </v>
   <v type="int" >       29 </v>
   <v type="int" >       30 </v>
   <v type="int" >       31 </v>
   <v type="int" >       32 </v>
   <v type="int" >       33 </v>
   <v type="int" >       34 </v>
   <v type="int" >       35 </v>
   <v type="int" >       36 </v>
   <v type="int" >       37 </v>
   <v type="int" >       38 </v>
   <v type="int" >       39 </v>
   <v type="int" >       40 </v>
   <v type="int" >       41 </v>
   <v type="int" >       42 </v>
   <v type="int" >       43 </v>
   <v type="int" >       44 </v>
   <v type="int" >       45 </v>
   <v type="int" >       46 </v>
   <v type="int" >       47 </v>
   <v type="int" >       48 </v>
   <v type="int" >       49 </v>
   <v type="int" >       50 </v>
   <v type="int" >       51 </v>
   <v type="int" >       52 </v>
   <v type="int" >       53 </v>
   <v type="int" >       54 </v>
   <v type="int" >       55 </v>
   <v type="int" >       56 </v>
   <v type="int" >       57 </v>
   <v type="int" >       58 </v>
   <v type="int" >       59 </v>
   <v type="int" >       60 </v>
   <v type="int" >       61 </v>
   <v type="int" >       62 </v>
   <v type="int" >       63 </v>
   <v type="int" >       64 </v>
   <v type="int" >       65 </v>
   <v type="int" >       66 </v>
   <v type="int" >       67 </v>
   <v type="int" >       68 </v>
   <v type="int" >       69 </v>
   <v type="int" >       70 </v>
   <v type="int" >       71 </v>
   <v type="int" >       72 </v>
   <v type="int" >       73 </v>
   <v type="int" >       74 </v>
   <v type="int" >       75 </v>
   <v type="int" >       76 </v>
   <v type="int" >       77 </v>
   <v type="int" >       78 </v>
   <v type="int" >       79 </v>
   <v type="int" >       80 </v>
   <v type="int" >       81 </v>
   <v type="int" >       82 </v>
   <v type="int" >       83 </v>
   <v type="int" >       84 </v>
   <v type="int" >       85 </v>
   <v type="int" >       86 </v>
   <v type="int" >       87 </v>
   <v type="int" >       88 </v>
   <v type="int" >       89 </v>
   <v type="int" >       90 </v>
   <v type="int" >       91 </v>
   <v type="int" >       92 </v>
   <v type="int" >       93 </v>
   <v type="int" >       94 </v>
   <v type="int" >       95 </v>
   <v type="int" >       96 </v>
   <v type="int" >       97 </v>
   <v type="int" >       98 </v>
   <v type="int" >       99 </v>
   <v type="int" >      100 </v>
   <v type="int" >      101 </v>
   <v type="int" >      102 </v>
   <v type="int" >      103 </v>
   <v type="int" >      104 </v>
   <v type="int" >      105 </v>
   <v type="int" >      106 </v>
   <v type="int" >      107 </v>
   <v type="int" >      108 </v>
   <v type="int" >      109 </v>
   <v type="int" >      110 </v>
   <v type="int" >      111 </v>
   <v type="int" >      112 </v>
   <v type="int" >      113 </v>
   <v type="int" >      114 </v>
   <v type="int" >      115 </v>
   <v type="int" >      116 </v>
   <v type="int" >      117 </v>
   <v type="int" >      118 </v>
   <v type="int" >      119 </v>
  </varray>
 </primitive_cell>
 <kpoints>
  <generation param="Gamma">
   <v type="int" name="divisions">       2        2        2 </v>
   <v name="usershift">      0.00000000       0.00000000       0.00000000 </v>
   <v name="genvec1">      0.50000000       0.00000000       0.00000000 </v>
   <v name="genvec2">      0.00000000       0.50000000       0.00000000 </v>
   <v name="genvec3">      0.00000000       0.00000000       0.50000000 </v>
   <v name="shift">      0.00000000       0.00000000       0.00000000 </v>
  </generation>
  <varray name="kpointlist" >
   <v>       0.00000000       0.00000000       0.00000000 </v>
   <v>       0.50000000       0.00000000       0.00000000 </v>
   <v>       0.00000000       0.50000000       0.00000000 </v>
   <v>       0.50000000       0.50000000       0.00000000 </v>
   <v>       0.00000000       0.00000000       0.50000000 </v>
   <v>       0.50000000       0.00000000       0.50000000 </v>
   <v>       0.00000000       0.50000000       0.50000000 </v>
   <v>       0.50000000       0.50000000       0.50000000 </v>
  </varray>
  <varray name="weights" >
   <v>       0.12500000 </v>
   <v>       0.12500000 </v>
   <v>       0.12500000 </v>
   <v>       0.12500000 </v>
   <v>       0.12500000 </v>
   <v>       0.12500000 </v>
   <v>       0.12500000 </v>
   <v>       0.12500000 </v>
  </varray>
 </kpoints>
 <parameters>
  <separator name="general" >
   <i type="string" name="SYSTEM">unknown system</i>
   <i type="logical" name="LCOMPAT"> F  </i>
  </separator>
  <separator name="electronic" >
   <i type="string" name="PREC">normal</i>
   <i name="ENMAX">    450.00000000</i>
   <i name="ENAUG">    605.39200000</i>
   <i name="EDIFF">      0.00001000</i>
   <i type="int" name="IALGO">    58</i>
   <i type="int" name="IWAVPR">    10</i>
   <i type="int" name="NBANDS">   625</i>
   <i type="int" name="NBANDSLOW">    -1</i>
   <i type="int" name="NBANDSHIGH">    -1</i>
   <i name="NELECT">   1042.00000000</i>
   <i type="int" name="TURBO">     0</i>
   <i type="int" name="IRESTART">     0</i>
   <i type="int" name="NREBOOT">     0</i>
   <i type="int" name="NMIN">     0</i>
   <i name="EREF">      0.00000000</i>
   <separator name="electronic smearing" >
    <i type="int" name="ISMEAR">     0</i>
    <i name="SIGMA">      0.05000000</i>
    <i name="KSPACING">      0.50000000</i>
    <i type="logical" name="KGAMMA"> T  </i>
    <i type="logical" name="KBLOWUP"> T  </i>
   </separator>
   <separator name="electronic projectors" >
    <i type="logical" name="LREAL"> T  </i>
    <v name="ROPT">     -0.00050000     -0.00050000     -0.00050000</v>
    <i type="int" name="LMAXPAW">  -100</i>
    <i type="int" name="LMAXMIX">     2</i>
    <i type="logical" name="NLSPLINE"> F  </i>
   </separator>
   <separator name="electronic startup" >
    <i type="int" name="ISTART">     0</i>
    <i type="int" name="ICHARG">     0</i>
    <i type="int" name="INIWAV">     1</i>
   </separator>
   <separator name="electronic spin" >
    <i type="int" name="ISPIN">     1</i>
    <i type="logical" name="LNONCOLLINEAR"> F  </i>
    <v name="MAGMOM">      1.00000000      1.00000000      1.00000000      1.00000000      1.00000000      1.00000000      1.00000000      1.00000000      1.00000000      1.00000000      1.00000000      1.00000000      1.00000000      1.00000000      1.00000000      1.00000000      1.00000000      1.00000000      1.00000000      1.00000000
      1.00000000      1.00000000      1.00000000      1.00000000      1.00000000      1.00000000      1.00000000      1.00000000      1.00000000      1.00000000      1.00000000      1.00000000      1.00000000      1.00000000      1.00000000      1.00000000      1.00000000      1.00000000      1.00000000      1.00000000
      1.00000000      1.00000000      1.00000000      1.00000000      1.00000000      1.00000000      1.00000000      1.00000000      1.00000000      1.00000000      1.00000000      1.00000000      1.00000000      1.00000000      1.00000000      1.00000000      1.00000000      1.00000000      1.00000000      1.00000000
      1.00000000      1.00000000      1.00000000      1.00000000      1.00000000      1.00000000      1.00000000      1.00000000      1.00000000      1.00000000      1.00000000      1.00000000      1.00000000      1.00000000      1.00000000      1.00000000      1.00000000      1.00000000      1.00000000      1.00000000
      1.00000000      1.00000000      1.00000000      1.00000000      1.00000000      1.00000000      1.00000000      1.00000000      1.00000000      1.00000000      1.00000000      1.00000000      1.00000000      1.00000000      1.00000000      1.00000000      1.00000000      1.00000000      1.00000000      1.00000000
      1.00000000      1.00000000      1.00000000      1.00000000      1.00000000      1.00000000      1.00000000      1.00000000      1.00000000      1.00000000      1.00000000      1.00000000      1.00000000      1.00000000      1.00000000      1.00000000      1.00000000      1.00000000      1.00000000</v>
    <i name="NUPDOWN">     -1.00000000</i>
    <i type="logical" name="LSORBIT"> F  </i>
    <v name="SAXIS">      0.00000000      0.00000000      1.00000000</v>
    <i type="logical" name="LSPIRAL"> F  </i>
    <v name="QSPIRAL">      0.00000000      0.00000000      0.00000000</v>
    <i type="logical" name="LZEROZ"> F  </i>
   </separator>
   <separator name="electronic exchange-correlation" >
    <i type="logical" name="LASPH"> F  </i>
    <i type="logical" name="LMETAGGA"> F  </i>
   </separator>
   <separator name="electronic convergence" >
    <i type="int" name="NELM">   500</i>
    <i type="int" name="NELMDL">    -5</i>
    <i type="int" name="NELMIN">     2</i>
    <i name="ENINI">    450.00000000</i>
    <separator name="electronic convergence detail" >
     <i type="logical" name="LDIAG"> T  </i>
     <i type="logical" name="LSUBROT"> F  </i>
     <i name="WEIMIN">      0.00000000</i>
     <i name="EBREAK">      0.00000000</i>
     <i name="DEPER">      0.30000000</i>
     <i type="int" name="NRMM">     4</i>
     <i name="TIME">      0.40000000</i>
    </separator>
   </separator>
   <separator name="electronic mixer" >
    <i name="AMIX">      0.40000000</i>
    <i name="BMIX">      1.00000000</i>
    <i name="AMIN">      0.10000000</i>
    <i name="AMIX_MAG">      1.60000000</i>
    <i name="BMIX_MAG">      1.00000000</i>
    <separator name="electronic mixer details" >
     <i type="int" name="IMIX">     4</i>
     <i type="logical" name="MIXFIRST"> F  </i>
     <i type="int" name="MAXMIX">   -45</i>
     <i name="WC">    100.00000000</i>
     <i type="int" name="INIMIX">     1</i>
     <i type="int" name="MIXPRE">     1</i>
     <i type="int" name="MREMOVE">     5</i>
    </separator>
   </separator>
   <separator name="electronic dipolcorrection" >
    <i type="logical" name="LDIPOL"> F  </i>
    <i type="logical" name="LMONO"> F  </i>
    <i type="int" name="IDIPOL">     0</i>
    <i name="EPSILON">      1.00000000</i>
    <v name="DIPOL">   -100.00000000   -100.00000000   -100.00000000</v>
    <i name="EFIELD">      0.00000000</i>
   </separator>
  </separator>
  <separator name="grids" >
   <i type="int" name="NGX">    64</i>
   <i type="int" name="NGY">    48</i>
   <i type="int" name="NGZ">    60</i>
   <i type="int" name="NGXF">   128</i>
   <i type="int" name="NGYF">    96</i>
   <i type="int" name="NGZF">   120</i>
   <i type="logical" name="ADDGRID"> F  </i>
  </separator>
  <separator name="ionic" >
   <i type="int" name="NSW">     0</i>
   <i type="int" name="IBRION">    -1</i>
   <i type="int" name="MDALGO">     0</i>
   <i type="int" name="ISIF">     2</i>
   <i name="PSTRESS">      0.00000000</i>
   <i name="EDIFFG">     -0.00500000</i>
   <i type="int" name="NFREE">     0</i>
   <i name="POTIM">      0.50000000</i>
   <i name="SMASS">     -3.00000000</i>
   <i name="SCALEE">      1.00000000</i>
  </separator>
  <separator name="ionic md" >
   <i name="TEBEG">      0.00010000</i>
   <i name="TEEND">      0.00010000</i>
   <i type="int" name="NBLOCK">     1</i>
   <i type="int" name="KBLOCK">     1</i>
   <i type="int" name="NPACO">   256</i>
   <i name="APACO">     10.00000000</i>
  </separator>
  <separator name="symmetry" >
   <i type="int" name="ISYM">     3</i>
   <i name="SYMPREC">      0.00001000</i>
  </separator>
  <separator name="dos" >
   <i type="int" name="LORBIT">     0</i>
   <v name="RWIGS">     -1.00000000     -1.00000000     -1.00000000</v>
   <i type="int" name="NEDOS">   301</i>
   <i name="EMIN">     10.00000000</i>
   <i name="EMAX">    -10.00000000</i>
   <i name="EFERMI">      0.00000000</i>
  </separator>
  <separator name="writing" >
   <i type="int" name="NWRITE">     2</i>
   <i type="logical" name="LWAVE"> T  </i>
   <i type="logical" name="LDOWNSAMPLE"> F  </i>
   <i type="logical" name="LCHARG"> T  </i>
   <i type="logical" name="LPARD"> F  </i>
   <i type="logical" name="LVTOT"> F  </i>
   <i type="logical" name="LVHAR"> F  </i>
   <i type="logical" name="LELF"> F  </i>
   <i type="logical" name="LOPTICS"> F  </i>
   <v name="STM">      0.00000000      0.00000000      0.00000000      0.00000000      0.00000000      0.00000000      0.00000000</v>
  </separator>
  <separator name="performance" >
   <i type="int" name="NPAR">     1</i>
   <i type="int" name="NSIM">     4</i>
   <i type="int" name="NBLK">    -1</i>
   <i type="logical" name="LPLANE"> T  </i>
   <i type="logical" name="LSCALAPACK"> T  </i>
   <i type="logical" name="LSCAAWARE"> F  </i>
   <i type="logical" name="LSCALU"> F  </i>
   <i type="logical" name="LASYNC"> F  </i>
   <i type="logical" name="LORBITALREAL"> F  </i>
  </separator>
  <separator name="miscellaneous" >
   <i type="int" name="IDIOT">     3</i>
   <i type="int" name="PHON_NSTRUCT">    -1</i>
   <i type="logical" name="LMUSIC"> F  </i>
   <v name="POMASS">     69.72300000     16.00000000     30.97400000</v>
   <v name="DARWINR">      0.00000000      0.00000000      0.00000000</v>
   <v name="DARWINV">      1.00000000      1.00000000      1.00000000</v>
   <i type="logical" name="LCORR"> T  </i>
  </separator>
  <i type="logical" name="GGA_COMPAT"> T  </i>
  <i type="logical" name="LBERRY"> F  </i>
  <i type="int" name="ICORELEVEL">     0</i>
  <i type="logical" name="LDAU"> F  </i>
  <i type="int" name="I_CONSTRAINED_M">     0</i>
  <separator name="electronic exchange-correlation" >
   <i type="string" name="GGA">--</i>
   <i type="int" name="VOSKOWN">     0</i>
   <i type="logical" name="LHFCALC"> T  </i>
   <i type="string" name="PRECFOCK">fast</i>
   <i type="logical" name="LSYMGRAD"> F  </i>
   <i type="logical" name="LHFONE"> F  </i>
   <i type="logical" name="LRHFCALC"> F  </i>
   <i type="logical" name="LTHOMAS"> F  </i>
   <i type="logical" name="LMODELHF"> F  </i>
   <i type="logical" name="LFOCKACE"> T  </i>
   <i name="ENCUT4O">     -1.00000000</i>
   <i type="int" name="EXXOEP">     0</i>
   <i type="int" name="FOURORBIT">     0</i>
   <i name="AEXX">      0.32000000</i>
   <i name="HFALPHA">     -1.00000000</i>
   <i name="MCALPHA">      0.00000000</i>
   <i name="ALDAX">      0.68000000</i>
   <i name="AGGAX">      0.68000000</i>
   <i name="ALDAC">      1.00000000</i>
   <i name="AGGAC">      1.00000000</i>
   <i type="int" name="NKREDX">     1</i>
   <i type="int" name="NKREDY">     1</i>
   <i type="int" name="NKREDZ">     1</i>
   <i type="logical" name="SHIFTRED"> F  </i>
   <i type="logical" name="ODDONLY"> F  </i>
   <i type="logical" name="EVENONLY"> F  </i>
   <i type="int" name="LMAXFOCK">     4</i>
   <i type="int" name="NMAXFOCKAE">     1</i>
   <i type="logical" name="LFOCKAEDFT"> F  </i>
   <i name="HFSCREEN">      0.20000000</i>
   <i name="HFSCREENC">      0.20000000</i>
   <i type="int" name="NBANDSGWLOW">     1</i>
  </separator>
  <separator name="vdW DFT" >
   <i type="logical" name="LUSE_VDW"> F  </i>
   <i type="int" name="IVDW_NL">     1</i>
   <i type="logical" name="LSPIN_VDW"> F  </i>
   <i name="Zab_VDW">     -0.84910000</i>
   <i name="PARAM1">      0.12340000</i>
   <i name="PARAM2">      1.00000000</i>
   <i name="PARAM3">      0.00000000</i>
  </separator>
  <separator name="model GW" >
   <i type="int" name="MODEL_GW">     0</i>
   <i name="MODEL_EPS0">      6.39733692</i>
   <i name="MODEL_ALPHA">      1.00000000</i>
  </separator>
  <separator name="linear response parameters" >
   <i type="logical" name="LEPSILON"> F  </i>
   <i type="logical" name="LRPA"> F  </i>
   <i type="logical" name="LNABLA"> F  </i>
   <i type="logical" name="LVEL"> F  </i>
   <i name="CSHIFT">      0.10000000</i>
   <i name="OMEGAMAX">     -1.00000000</i>
   <i name="DEG_THRESHOLD">      0.00200000</i>
   <i name="RTIME">     -0.10000000</i>
   <i name="WPLASMAI">      0.00000000</i>
   <v name="DFIELD">      0.00000000      0.00000000      0.00000000</v>
   <v name="WPLASMA">      0.00000000      0.00000000      0.00000000      0.00000000      0.00000000      0.00000000      0.00000000      0.00000000      0.00000000</v>
  </separator>
  <separator name="orbital magnetization" >
   <i type="logical" name="NUCIND"> F  </i>
   <v name="MAGPOS">      0.00000000      0.00000000      0.00000000</v>
   <i type="logical" name="LNICSALL"> T  </i>
   <i type="logical" name="ORBITALMAG"> F  </i>
   <i type="logical" name="LMAGBLOCH"> F  </i>
   <i type="logical" name="LCHIMAG"> F  </i>
   <i type="logical" name="LGAUGE"> T  </i>
   <i type="int" name="MAGATOM">     0</i>
   <v name="MAGDIPOL">      0.00000000      0.00000000      0.00000000</v>
   <v name="AVECCONST">      0.00000000      0.00000000      0.00000000</v>
  </separator>
  <separator name="response functions" >
   <i type="logical" name="LALL_IN_ONE"> F  </i>
   <i type="int" name="IALL_IN_ONE">    -1</i>
   <i type="int" name="NBANDS_WAVE">    -1</i>
   <i type="logical" name="LFINITE_TEMPERATURE"> F  </i>
   <i type="logical" name="LADDER"> F  </i>
   <i type="logical" name="LRPAFORCE"> F  </i>
   <i type="logical" name="LFXC"> F  </i>
   <i type="logical" name="LHARTREE"> T  </i>
   <i type="int" name="IBSE">     0</i>
   <v type="int" name="KPOINT">    -1     0     0     0</v>
   <i type="logical" name="LTCTC"> F  </i>
   <i type="logical" name="LTCTE"> F  </i>
   <i type="logical" name="LTETE"> F  </i>
   <i type="logical" name="LTRIPLET"> F  </i>
   <i type="logical" name="LFXCEPS"> F  </i>
   <i type="logical" name="LFXHEG"> F  </i>
   <i type="int" name="NATURALO">     2</i>
   <i type="logical" name="LHOLEGF"> F  </i>
   <i type="logical" name="L2ORDER"> F  </i>
   <i type="logical" name="LDMP1"> F  </i>
   <i type="logical" name="LMP2LT"> F  </i>
   <i type="logical" name="LSMP2LT"> F  </i>
   <i type="logical" name="LGWLF"> F  </i>
   <i name="ENCUTGW">     -1.60000002</i>
   <i name="ENCUTGWSOFT">     -1.60000002</i>
   <i name="ENCUTLF">     -1.00000000</i>
   <i type="logical" name="LESF_SPLINES"> F  </i>
   <i type="int" name="LMAXMP2">    -1</i>
   <i name="SCISSOR">      0.00000000</i>
   <i type="int" name="NOMEGA">     0</i>
   <i type="int" name="NOMEGAR">     0</i>
   <i type="int" name="NBANDSGW">    -1</i>
   <i type="int" name="NBANDSO">    -1</i>
   <i type="int" name="NBANDSV">    -1</i>
   <i type="int" name="NELMGW">     1</i>
   <i type="int" name="NELMHF">     1</i>
   <i type="int" name="DIM">     3</i>
   <i type="int" name="IESPILON">     4</i>
   <i type="int" name="ANTIRES">     0</i>
   <i name="OMEGAMAX">    -30.00000000</i>
   <i name="OMEGAMIN">    -30.00000000</i>
   <i name="OMEGATL">   -200.00000000</i>
   <i type="int" name="OMEGAGRID">     0</i>
   <i name="CSHIFT">     -0.10000000</i>
   <i type="logical" name="LSELFENERGY"> F  </i>
   <i type="logical" name="LSPECTRAL"> F  </i>
   <i type="logical" name="LSPECTRALGW"> F  </i>
   <i type="logical" name="LSINGLES"> F  </i>
   <i type="logical" name="LFERMIGW"> F  </i>
   <i type="logical" name="ODDONLYGW"> F  </i>
   <i type="logical" name="EVENONLYGW"> F  </i>
   <i type="int" name="NKREDLFX">     1</i>
   <i type="int" name="NKREDLFY">     1</i>
   <i type="int" name="NKREDLFZ">     1</i>
   <i type="int" name="MAXMEM">  2800</i>
   <i type="int" name="TELESCOPE">     0</i>
   <i type="int" name="NTAUPAR">    -1</i>
   <i type="int" name="NOMEGAPAR">    -1</i>
   <i name="DAMP_NEWTON">      0.80000001</i>
   <i name="LAMBDA">      1.00000000</i>
  </separator>
  <separator name="External order field" >
   <i name="OFIELD_KAPPA">      0.00000000</i>
   <v name="OFIELD_K">      0.00000000      0.00000000      0.00000000</v>
   <i name="OFIELD_Q6_NEAR">      0.00000000</i>
   <i name="OFIELD_Q6_FAR">      0.00000000</i>
   <i name="OFIELD_A">      0.00000000</i>
  </separator>
  <separator name="optional k-points parameters" >
   <i type="int" name="KPOINTS_OPT_MODE">     1</i>
   <i type="logical" name="LKPOINTS_OPT"> F  </i>
  </separator>
 </parameters>
 <atominfo>
  <atoms>     119 </atoms>
  <types>       3 </types>
  <array name="atoms" >
   <dimension dim="1">ion</dimension>
   <field type="string">element</field>
   <field type="int">atomtype</field>
   <set>
    <rc><c>Ga</c><c>   1</c></rc>
    <rc><c>Ga</c><c>   1</c></rc>
    <rc><c>Ga</c><c>   1</c></rc>
    <rc><c>Ga</c><c>   1</c></rc>
    <rc><c>Ga</c><c>   1</c></rc>
    <rc><c>Ga</c><c>   1</c></rc>
    <rc><c>Ga</c><c>   1</c></rc>
    <rc><c>Ga</c><c>   1</c></rc>
    <rc><c>Ga</c><c>   1</c></rc>
    <rc><c>Ga</c><c>   1</c></rc>
    <rc><c>Ga</c><c>   1</c></rc>
    <rc><c>Ga</c><c>   1</c></rc>
    <rc><c>Ga</c><c>   1</c></rc>
    <rc><c>Ga</c><c>   1</c></rc>
    <rc><c>Ga</c><c>   1</c></rc>
    <rc><c>Ga</c><c>   1</c></rc>
    <rc><c>Ga</c><c>   1</c></rc>
    <rc><c>Ga</c><c>   1</c></rc>
    <rc><c>Ga</c><c>   1</c></rc>
    <rc><c>Ga</c><c>   1</c></rc>
    <rc><c>Ga</c><c>   1</c></rc>
    <rc><c>Ga</c><c>   1</c></rc>
    <rc><c>Ga</c><c>   1</c></rc>
    <rc><c>Ga</c><c>   1</c></rc>
    <rc><c>Ga</c><c>   1</c></rc>
    <rc><c>Ga</c><c>   1</c></rc>
    <rc><c>Ga</c><c>   1</c></rc>
    <rc><c>Ga</c><c>   1</c></rc>
    <rc><c>Ga</c><c>   1</c></rc>
    <rc><c>Ga</c><c>   1</c></rc>
    <rc><c>Ga</c><c>   1</c></rc>
    <rc><c>Ga</c><c>   1</c></rc>
    <rc><c>Ga</c><c>   1</c></rc>
    <rc><c>Ga</c><c>   1</c></rc>
    <rc><c>Ga</c><c>   1</c></rc>
    <rc><c>Ga</c><c>   1</c></rc>
    <rc><c>Ga</c><c>   1</c></rc>
    <rc><c>Ga</c><c>   1</c></rc>
    <rc><c>Ga</c><c>   1</c></rc>
    <rc><c>Ga</c><c>   1</c></rc>
    <rc><c>Ga</c><c>   1</c></rc>
    <rc><c>Ga</c><c>   1</c></rc>
    <rc><c>Ga</c><c>   1</c></rc>
    <rc><c>Ga</c><c>   1</c></rc>
    <rc><c>Ga</c><c>   1</c></rc>
    <rc><c>Ga</c><c>   1</c></rc>
    <rc><c>Ga</c><c>   1</c></rc>
    <rc><c>O </c><c>   2</c></rc>
    <rc><c>O </c><c>   2</c></rc>
    <rc><c>O </c><c>   2</c></rc>
    <rc><c>O </c><c>   2</c></rc>
    <rc><c>O </c><c>   2</c></rc>
    <rc><c>O </c><c>   2</c></rc>
    <rc><c>O </c><c>   2</c></rc>
    <rc><c>O </c><c>   2</c></rc>
    <rc><c>O </c><c>   2</c></rc>
    <rc><c>O </c><c>   2</c></rc>
    <rc><c>O </c><c>   2</c></rc>
    <rc><c>O </c><c>   2</c></rc>
    <rc><c>O </c><c>   2</c></rc>
    <rc><c>O </c><c>   2</c></rc>
    <rc><c>O </c><c>   2</c></rc>
    <rc><c>O </c><c>   2</c></rc>
    <rc><c>O </c><c>   2</c></rc>
    <rc><c>O </c><c>   2</c></rc>
    <rc><c>O </c><c>   2</c></rc>
    <rc><c>O </c><c>   2</c></rc>
    <rc><c>O </c><c>   2</c></rc>
    <rc><c>O </c><c>   2</c></rc>
    <rc><c>O </c><c>   2</c></rc>
    <rc><c>O </c><c>   2</c></rc>
    <rc><c>O </c><c>   2</c></rc>
    <rc><c>O </c><c>   2</c></rc>
    <rc><c>O </c><c>   2</c></rc>
    <rc><c>O </c><c>   2</c></rc>
    <rc><c>O </c><c>   2</c></rc>
    <rc><c>O </c><c>   2</c></rc>
    <rc><c>O </c><c>   2</c></rc>
    <rc><c>O </c><c>   2</c></rc>
    <rc><c>O </c><c>   2</c></rc>
    <rc><c>O </c><c>   2</c></rc>
    <rc><c>O </c><c>   2</c></rc>
    <rc><c>O </c><c>   2</c></rc>
    <rc><c>O </c><c>   2</c></rc>
    <rc><c>O </c><c>   2</c></rc>
    <rc><c>O </c><c>   2</c></rc>
    <rc><c>O </c><c>   2</c></rc>
    <rc><c>O </c><c>   2</c></rc>
    <rc><c>O </c><c>   2</c></rc>
    <rc><c>O </c><c>   2</c></rc>
    <rc><c>O </c><c>   2</c></rc>
    <rc><c>O </c><c>   2</c></rc>
    <rc><c>O </c><c>   2</c></rc>
    <rc><c>O </c><c>   2</c></rc>
    <rc><c>O </c><c>   2</c></rc>
    <rc><c>O </c><c>   2</c></rc>
    <rc><c>O </c><c>   2</c></rc>
    <rc><c>O </c><c>   2</c></rc>
    <rc><c>O </c><c>   2</c></rc>
    <rc><c>O </c><c>   2</c></rc>
    <rc><c>O </c><c>   2</c></rc>
    <rc><c>O </c><c>   2</c></rc>
    <rc><c>O </c><c>   2</c></rc>
    <rc><c>O </c><c>   2</c></rc>
    <rc><c>O </c><c>   2</c></rc>
    <rc><c>O </c><c>   2</c></rc>
    <rc><c>O </c><c>   2</c></rc>
    <rc><c>O </c><c>   2</c></rc>
    <rc><c>O </c><c>   2</c></rc>
    <rc><c>O </c><c>   2</c></rc>
    <rc><c>O </c><c>   2</c></rc>
    <rc><c>O </c><c>   2</c></rc>
    <rc><c>O </c><c>   2</c></rc>
    <rc><c>O </c><c>   2</c></rc>
    <rc><c>O </c><c>   2</c></rc>
    <rc><c>O </c><c>   2</c></rc>
    <rc><c>O </c><c>   2</c></rc>
    <rc><c>O </c><c>   2</c></rc>
    <rc><c>P </c><c>   3</c></rc>
   </set>
  </array>
  <array name="atomtypes" >
   <dimension dim="1">type</dimension>
   <field type="int">atomspertype</field>
   <field type="string">element</field>
   <field>mass</field>
   <field>valence</field>
   <field type="string">pseudopotential</field>
   <set>
    <rc><c>  47</c><c>Ga</c><c>     69.72300000</c><c>     13.00000000</c><c>  PAW_PBE Ga_d 06Jul2010                </c></rc>
    <rc><c>  71</c><c>O </c><c>     16.00000000</c><c>      6.00000000</c><c>   PAW_PBE O 08Apr2002                  </c></rc>
    <rc><c>   1</c><c>P </c><c>     30.97400000</c><c>      5.00000000</c><c>  PAW_PBE P 06Sep2000                   </c></rc>
   </set>
  </array>
 </atominfo>
 <structure name="initialpos" >
  <crystal>
   <varray name="basis" >
    <v>       0.00000000      12.28047342       0.00000000 </v>
    <v>       9.14270205       0.00000000       0.00000000 </v>
    <v>       0.00000000      -2.76826177     -11.30069772 </v>
   </varray>
   <i name="volume">   1268.80515525 </i>
   <varray name="rec_basis" >
    <v>       0.00000000       0.08143009      -0.01994742 </v>
    <v>       0.10937686      -0.00000000       0.00000000 </v>
    <v>       0.00000000       0.00000000      -0.08849011 </v>
   </varray>
  </crystal>
  <varray name="positions" >
   <v>       0.65618701       0.99731715       0.15512525 </v>
   <v>       0.66027536       0.00178682       0.65685475 </v>
   <v>       0.65694367       0.33220892       0.15696583 </v>
   <v>       0.65934907       0.33537821       0.65704708 </v>
   <v>       0.65891922       0.66576957       0.15809200 </v>
   <v>       0.65983850       0.66827113       0.65672062 </v>
   <v>       0.83348961       0.15642006       0.34083750 </v>
   <v>       0.84127863       0.16821118       0.84386153 </v>
   <v>       0.84694254       0.49420788       0.34264673 </v>
   <v>       0.84071704       0.50190810       0.84355318 </v>
   <v>       0.84619331       0.82899177       0.34416429 </v>
   <v>       0.84172424       0.83567432       0.84410424 </v>
   <v>       0.58835553       0.16732455       0.39831009 </v>
   <v>       0.59011536       0.16736343       0.89734300 </v>
   <v>       0.59138127       0.50232405       0.39712104 </v>
   <v>       0.58877705       0.50131600       0.89685722 </v>
   <v>       0.59257330       0.83500718       0.39733130 </v>
   <v>       0.59090954       0.83427866       0.89739481 </v>
   <v>       0.91005138       0.00210021       0.10454288 </v>
   <v>       0.90864252       0.00087057       0.60154281 </v>
   <v>       0.90902969       0.33586687       0.10307895 </v>
   <v>       0.90938998       0.33450642       0.60261457 </v>
   <v>       0.90786140       0.66695345       0.10158329 </v>
   <v>       0.90784979       0.66629648       0.60132698 </v>
   <v>       0.15804057       0.17366702       0.15799693 </v>
   <v>       0.15870087       0.17417538       0.65555817 </v>
   <v>       0.16004611       0.50224669       0.15706328 </v>
   <v>       0.15922318       0.50472427       0.65579225 </v>
   <v>       0.15492344       0.83000742       0.15632655 </v>
   <v>       0.15510179       0.83510228       0.64884929 </v>
   <v>       0.33930850       0.00342497       0.34779727 </v>
   <v>       0.33958410       0.00138883       0.84004600 </v>
   <v>       0.34167903       0.33804057       0.34342917 </v>
   <v>       0.33945007       0.33558199       0.84427621 </v>
   <v>       0.34046572       0.66981359       0.34418850 </v>
   <v>       0.33884885       0.66870376       0.84268898 </v>
   <v>       0.09266000       0.00178848       0.89747652 </v>
   <v>       0.09875939       0.31155870       0.40065593 </v>
   <v>       0.09066013       0.33586274       0.89750007 </v>
   <v>       0.08760257       0.66433078       0.39518400 </v>
   <v>       0.09095295       0.66806690       0.89618862 </v>
   <v>       0.40576420       0.16580595       0.10198554 </v>
   <v>       0.41114335       0.17007797       0.60358495 </v>
   <v>       0.40941082       0.50181223       0.10217975 </v>
   <v>       0.40838040       0.50290914       0.60321515 </v>
   <v>       0.40421108       0.83480752       0.10227576 </v>
   <v>       0.41117344       0.83573436       0.60233034 </v>
   <v>       0.99665264       0.16978896       0.13888527 </v>
   <v>       0.99647625       0.16782345       0.62277112 </v>
   <v>       0.99657313       0.50175706       0.12557582 </v>
   <v>       0.99638956       0.50083522       0.62778863 </v>
   <v>       0.99485527       0.83370097       0.12679783 </v>
   <v>       0.99498098       0.83375353       0.62708905 </v>
   <v>       0.50265175       0.99991249       0.37291439 </v>
   <v>       0.50241541       0.00045553       0.87208726 </v>
   <v>       0.50329164       0.33560131       0.37197779 </v>
   <v>       0.50169630       0.33356195       0.87213729 </v>
   <v>       0.50368915       0.66923272       0.37217105 </v>
   <v>       0.50161293       0.66913592       0.87186867 </v>
   <v>       0.66903802       0.16512486       0.28002940 </v>
   <v>       0.67293129       0.16868215       0.78118602 </v>
   <v>       0.67390906       0.49653162       0.28086017 </v>
   <v>       0.67238448       0.50166573       0.78104407 </v>
   <v>       0.67414513       0.83161691       0.28039811 </v>
   <v>       0.67338987       0.83596822       0.78108423 </v>
   <v>       0.82479135       0.99887501       0.21828875 </v>
   <v>       0.82843743       0.00264437       0.71999285 </v>
   <v>       0.82829091       0.32667512       0.22054022 </v>
   <v>       0.82780528       0.33478447       0.71947044 </v>
   <v>       0.82764058       0.66184357       0.21886919 </v>
   <v>       0.82763216       0.66860688       0.71963132 </v>
   <v>       0.82746962       0.99565451       0.44639458 </v>
   <v>       0.83440506       0.00263188       0.94741992 </v>
   <v>       0.84042691       0.32350945       0.44356182 </v>
   <v>       0.83328389       0.33451429       0.94637768 </v>
   <v>       0.83257572       0.66022261       0.44463198 </v>
   <v>       0.83151881       0.66852007       0.94519901 </v>
   <v>       0.66562691       0.16603086       0.05427140 </v>
   <v>       0.66784536       0.16897963       0.55412257 </v>
   <v>       0.66502217       0.49901741       0.05409403 </v>
   <v>       0.66905416       0.50102640       0.55387026 </v>
   <v>       0.66777961       0.83195789       0.05380844 </v>
   <v>       0.66847712       0.83470440       0.55451948 </v>
   <v>       0.49380665       0.99946268       0.12667229 </v>
   <v>       0.49789518       0.00277072       0.62815463 </v>
   <v>       0.49365207       0.33221255       0.12677884 </v>
   <v>       0.49712162       0.33705403       0.62869828 </v>
   <v>       0.49480695       0.67037040       0.12732363 </v>
   <v>       0.49734495       0.66879634       0.62823413 </v>
   <v>       0.00446418       0.16803956       0.87366959 </v>
   <v>       0.00951024       0.48662378       0.37358218 </v>
   <v>       0.00301141       0.50202235       0.87210623 </v>
   <v>       0.00503796       0.83298024       0.37364411 </v>
   <v>       0.00463858       0.83566953       0.87303216 </v>
   <v>       0.15653433       0.01203867       0.30090717 </v>
   <v>       0.16892588       0.00247010       0.77245048 </v>
   <v>       0.17705379       0.34043026       0.27732130 </v>
   <v>       0.17257467       0.33573468       0.78151330 </v>
   <v>       0.17242304       0.66886836       0.27946534 </v>
   <v>       0.17176650       0.66955594       0.77863083 </v>
   <v>       0.32421842       0.16221512       0.22045839 </v>
   <v>       0.32566305       0.16512321       0.71704181 </v>
   <v>       0.32929513       0.50510900       0.21959288 </v>
   <v>       0.32860329       0.50399691       0.72151749 </v>
   <v>       0.32099512       0.84209723       0.22040713 </v>
   <v>       0.32253618       0.84037130       0.71315097 </v>
   <v>       0.33546654       0.17131162       0.44707556 </v>
   <v>       0.32886833       0.16592251       0.94455928 </v>
   <v>       0.33357423       0.50369981       0.44640984 </v>
   <v>       0.33139687       0.50224790       0.94617930 </v>
   <v>       0.33269093       0.83619342       0.44661755 </v>
   <v>       0.32829806       0.83638998       0.94393379 </v>
   <v>       0.16182225       0.00226817       0.05922090 </v>
   <v>       0.14579895       0.01222058       0.52783730 </v>
   <v>       0.16822153       0.33532250       0.05320329 </v>
   <v>       0.17531029       0.34033250       0.55952254 </v>
   <v>       0.16819609       0.66797897       0.05288960 </v>
   <v>       0.16800693       0.66904665       0.55212452 </v>
   <v>       0.07194391       0.04772049       0.39134104 </v>
  </varray>
 </structure>
 <calculation>
  <scstep>
   <time name="total">    3.89    3.89</time>
   <energy>
    <i name="alphaZ">   5376.25786726 </i>
    <i name="ewald"> -86723.66616442 </i>
    <i name="hartreedc">  -2072.83337847 </i>
    <i name="XCdc">   2751.53691591 </i>
    <i name="pawpsdc"> 336047.00514426 </i>
    <i name="pawaedc">-364794.06821851 </i>
    <i name="eentropy">     -0.01392493 </i>
    <i name="bandstr"> -40528.33414675 </i>
    <i name="atom"> 131500.23896116 </i>
    <i name="e_fr_energy"> -18443.87694448 </i>
    <i name="e_wo_entrp"> -18443.86301955 </i>
    <i name="e_0_energy"> -18443.86998202 </i>
   </energy>
  </scstep>
  <scstep>
   <time name="total">    3.13    3.13</time>
   <energy>
    <i name="e_fr_energy"> -62750.08813365 </i>
    <i name="e_wo_entrp"> -62750.06718168 </i>
    <i name="e_0_energy"> -62750.07765767 </i>
   </energy>
  </scstep>
  <scstep>
   <time name="total">    3.30    3.30</time>
   <energy>
    <i name="e_fr_energy"> -67642.88074943 </i>
    <i name="e_wo_entrp"> -67642.85078579 </i>
    <i name="e_0_energy"> -67642.86576761 </i>
   </energy>
  </scstep>
  <scstep>
   <time name="total">    3.72    3.72</time>
   <energy>
    <i name="e_fr_energy"> -68293.81404927 </i>
    <i name="e_wo_entrp"> -68293.78108181 </i>
    <i name="e_0_energy"> -68293.79756554 </i>
   </energy>
  </scstep>
  <scstep>
   <time name="total">  231.09  231.10</time>
   <energy>
    <i name="e_fr_energy"> -38687.71343586 </i>
    <i name="e_wo_entrp"> -38687.71340651 </i>
    <i name="e_0_energy"> -38687.71342119 </i>
   </energy>
  </scstep>
  <scstep>
   <time name="total">  458.27  458.28</time>
   <energy>
    <i name="e_fr_energy">  27097.37256551 </i>
    <i name="e_wo_entrp">  27097.38701373 </i>
    <i name="e_0_energy">  27097.37978962 </i>
   </energy>
  </scstep>
  <scstep>
   <time name="total">  460.31  460.30</time>
   <energy>
    <i name="e_fr_energy">   8170.88724177 </i>
    <i name="e_wo_entrp">   8170.90686226 </i>
    <i name="e_0_energy">   8170.89705202 </i>
   </energy>
  </scstep>
  <scstep>
   <time name="total">  459.90  459.88</time>
   <energy>
    <i name="e_fr_energy">   3924.90745711 </i>
    <i name="e_wo_entrp">   3924.94182888 </i>
    <i name="e_0_energy">   3924.92464300 </i>
   </energy>
  </scstep>
  <scstep>
   <time name="total">  459.72  459.71</time>
   <energy>
    <i name="e_fr_energy">   2195.77182925 </i>
    <i name="e_wo_entrp">   2195.79855577 </i>
    <i name="e_0_energy">   2195.78519251 </i>
   </energy>
  </scstep>
  <scstep>
   <time name="total">  459.36  459.34</time>
   <energy>
    <i name="e_fr_energy">   1068.50383350 </i>
    <i name="e_wo_entrp">   1068.51870128 </i>
    <i name="e_0_energy">   1068.51126739 </i>
   </energy>
  </scstep>
  <scstep>
   <time name="total">  459.13  459.13</time>
   <energy>
    <i name="e_fr_energy">     62.60337531 </i>
    <i name="e_wo_entrp">     62.61721168 </i>
    <i name="e_0_energy">     62.61029349 </i>
   </energy>
  </scstep>
  <scstep>
   <time name="total">  458.67  458.66</time>
   <energy>
    <i name="e_fr_energy">   -447.27368437 </i>
    <i name="e_wo_entrp">   -447.26331289 </i>
    <i name="e_0_energy">   -447.26849863 </i>
   </energy>
  </scstep>
  <scstep>
   <time name="total">  458.56  458.56</time>
   <energy>
    <i name="e_fr_energy">   -718.58625319 </i>
    <i name="e_wo_entrp">   -718.58383570 </i>
    <i name="e_0_energy">   -718.58504445 </i>
   </energy>
  </scstep>
  <scstep>
   <time name="total">  458.32  458.32</time>
   <energy>
    <i name="e_fr_energy">   -836.02915669 </i>
    <i name="e_wo_entrp">   -836.02571710 </i>
    <i name="e_0_energy">   -836.02743689 </i>
   </energy>
  </scstep>
  <scstep>
   <time name="total">  458.12  458.09</time>
   <energy>
    <i name="e_fr_energy">   -892.50714228 </i>
    <i name="e_wo_entrp">   -892.49909508 </i>
    <i name="e_0_energy">   -892.50311868 </i>
   </energy>
  </scstep>
  <scstep>
   <time name="total">  458.18  458.19</time>
   <energy>
    <i name="e_fr_energy">   -918.12263673 </i>
    <i name="e_wo_entrp">   -918.12143236 </i>
    <i name="e_0_energy">   -918.12203455 </i>
   </energy>
  </scstep>
  <scstep>
   <time name="total">  458.15  458.12</time>
   <energy>
    <i name="e_fr_energy">   -931.69968917 </i>
    <i name="e_wo_entrp">   -931.69959052 </i>
    <i name="e_0_energy">   -931.69963984 </i>
   </energy>
  </scstep>
  <scstep>
   <time name="total">  458.18  458.23</time>
   <energy>
    <i name="e_fr_energy">   -938.55302585 </i>
    <i name="e_wo_entrp">   -938.55057774 </i>
    <i name="e_0_energy">   -938.55180180 </i>
   </energy>
  </scstep>
  <scstep>
   <time name="total">  457.88  457.88</time>
   <energy>
    <i name="e_fr_energy">   -942.51360222 </i>
    <i name="e_wo_entrp">   -942.51360222 </i>
    <i name="e_0_energy">   -942.51360222 </i>
   </energy>
  </scstep>
  <scstep>
   <time name="total">  458.29  458.30</time>
   <energy>
    <i name="e_fr_energy">   -944.45526616 </i>
    <i name="e_wo_entrp">   -944.45526616 </i>
    <i name="e_0_energy">   -944.45526616 </i>
   </energy>
  </scstep>
  <scstep>
   <time name="total">  458.18  458.15</time>
   <energy>
    <i name="e_fr_energy">   -945.57137650 </i>
    <i name="e_wo_entrp">   -945.57137650 </i>
    <i name="e_0_energy">   -945.57137650 </i>
   </energy>
  </scstep>
  <scstep>
   <time name="total">  457.97  457.98</time>
   <energy>
    <i name="e_fr_energy">   -946.04917417 </i>
    <i name="e_wo_entrp">   -946.04917417 </i>
    <i name="e_0_energy">   -946.04917417 </i>
   </energy>
  </scstep>
  <scstep>
   <time name="total">  457.87  457.89</time>
   <energy>
    <i name="e_fr_energy">   -946.29037188 </i>
    <i name="e_wo_entrp">   -946.29037188 </i>
    <i name="e_0_energy">   -946.29037188 </i>
   </energy>
  </scstep>
  <scstep>
   <time name="total">  457.79  457.78</time>
   <energy>
    <i name="e_fr_energy">   -946.39909228 </i>
    <i name="e_wo_entrp">   -946.39909228 </i>
    <i name="e_0_energy">   -946.39909228 </i>
   </energy>
  </scstep>
  <scstep>
   <time name="total">  457.63  457.62</time>
   <energy>
    <i name="e_fr_energy">   -946.46328872 </i>
    <i name="e_wo_entrp">   -946.46328872 </i>
    <i name="e_0_energy">   -946.46328872 </i>
   </energy>
  </scstep>
  <scstep>
   <time name="total">  458.06  458.04</time>
   <energy>
    <i name="e_fr_energy">   -946.49540179 </i>
    <i name="e_wo_entrp">   -946.49540179 </i>
    <i name="e_0_energy">   -946.49540179 </i>
   </energy>
  </scstep>
  <scstep>
   <time name="total">  457.88  457.87</time>
   <energy>
    <i name="e_fr_energy">   -946.51326163 </i>
    <i name="e_wo_entrp">   -946.51326163 </i>
    <i name="e_0_energy">   -946.51326163 </i>
   </energy>
  </scstep>
  <scstep>
   <time name="total">  458.02  458.01</time>
   <energy>
    <i name="e_fr_energy">   -946.52180277 </i>
    <i name="e_wo_entrp">   -946.52180277 </i>
    <i name="e_0_energy">   -946.52180277 </i>
   </energy>
  </scstep>
  <scstep>
   <time name="total">  457.78  457.78</time>
   <energy>
    <i name="e_fr_energy">   -946.52588530 </i>
    <i name="e_wo_entrp">   -946.52588530 </i>
    <i name="e_0_energy">   -946.52588530 </i>
   </energy>
  </scstep>
  <scstep>
   <time name="total">  458.09  458.09</time>
   <energy>
    <i name="e_fr_energy">   -946.52809812 </i>
    <i name="e_wo_entrp">   -946.52809812 </i>
    <i name="e_0_energy">   -946.52809812 </i>
   </energy>
  </scstep>
  <scstep>
   <time name="total">  457.93  457.94</time>
   <energy>
    <i name="e_fr_energy">   -946.52924223 </i>
    <i name="e_wo_entrp">   -946.52924223 </i>
    <i name="e_0_energy">   -946.52924223 </i>
   </energy>
  </scstep>
  <scstep>
   <time name="total">  458.10  458.08</time>
   <energy>
    <i name="e_fr_energy">   -946.52990526 </i>
    <i name="e_wo_entrp">   -946.52990526 </i>
    <i name="e_0_energy">   -946.52990526 </i>
   </energy>
  </scstep>
  <scstep>
   <time name="total">  458.00  458.01</time>
   <energy>
    <i name="e_fr_energy">   -946.53024592 </i>
    <i name="e_wo_entrp">   -946.53024592 </i>
    <i name="e_0_energy">   -946.53024592 </i>
   </energy>
  </scstep>
  <scstep>
   <time name="total">  458.01  458.01</time>
   <energy>
    <i name="e_fr_energy">   -946.53041479 </i>
    <i name="e_wo_entrp">   -946.53041479 </i>
    <i name="e_0_energy">   -946.53041479 </i>
   </energy>
  </scstep>
  <scstep>
   <time name="total">  457.93  457.93</time>
   <energy>
    <i name="e_fr_energy">   -946.53050420 </i>
    <i name="e_wo_entrp">   -946.53050420 </i>
    <i name="e_0_energy">   -946.53050420 </i>
   </energy>
  </scstep>
  <scstep>
   <time name="total">  457.83  457.79</time>
   <energy>
    <i name="e_fr_energy">   -946.53055145 </i>
    <i name="e_wo_entrp">   -946.53055145 </i>
    <i name="e_0_energy">   -946.53055145 </i>
   </energy>
  </scstep>
  <scstep>
   <time name="total">  458.08  458.08</time>
   <energy>
    <i name="e_fr_energy">   -946.53057811 </i>
    <i name="e_wo_entrp">   -946.53057811 </i>
    <i name="e_0_energy">   -946.53057811 </i>
   </energy>
  </scstep>
  <scstep>
   <time name="total">  458.06  458.05</time>
   <energy>
    <i name="e_fr_energy">   -946.53059760 </i>
    <i name="e_wo_entrp">   -946.53059760 </i>
    <i name="e_0_energy">   -946.53059760 </i>
   </energy>
  </scstep>
  <scstep>
   <time name="total">  682.91  682.90</time>
   <energy>
    <i name="alphaZ">   5376.25786726 </i>
    <i name="ewald"> -86723.66616442 </i>
    <i name="hartreedc"> -33812.58954903 </i>
    <i name="XCdc">   2868.82385246 </i>
    <i name="pawpsdc"> 119938.03594975 </i>
    <i name="pawaedc">-135175.09203577 </i>
    <i name="eentropy">     -0.00000000 </i>
    <i name="bandstr">  -8752.44878310 </i>
    <i name="atom"> 131500.23896116 </i>
    <i name="e_fr_energy">   -946.53060432 </i>
    <i name="e_wo_entrp">   -946.53060432 </i>
    <i name="e_0_energy">   -946.53060432 </i>
   </energy>
  </scstep>
  <structure>
   <crystal>
    <varray name="basis" >
     <v>       0.00000000      12.28047342       0.00000000 </v>
     <v>       9.14270205       0.00000000       0.00000000 </v>
     <v>       0.00000000      -2.76826177     -11.30069772 </v>
    </varray>
    <i name="volume">   1268.80515525 </i>
    <varray name="rec_basis" >
     <v>       0.00000000       0.08143009      -0.01994742 </v>
     <v>       0.10937686      -0.00000000       0.00000000 </v>
     <v>       0.00000000       0.00000000      -0.08849011 </v>
    </varray>
   </crystal>
   <varray name="positions" >
    <v>       0.65618701       0.99731715       0.15512525 </v>
    <v>       0.66027536       0.00178682       0.65685475 </v>
    <v>       0.65694367       0.33220892       0.15696583 </v>
    <v>       0.65934907       0.33537821       0.65704708 </v>
    <v>       0.65891922       0.66576957       0.15809200 </v>
    <v>       0.65983850       0.66827113       0.65672062 </v>
    <v>       0.83348961       0.15642006       0.34083750 </v>
    <v>       0.84127863       0.16821118       0.84386153 </v>
    <v>       0.84694254       0.49420788       0.34264673 </v>
    <v>       0.84071704       0.50190810       0.84355318 </v>
    <v>       0.84619331       0.82899177       0.34416429 </v>
    <v>       0.84172424       0.83567432       0.84410424 </v>
    <v>       0.58835553       0.16732455       0.39831009 </v>
    <v>       0.59011536       0.16736343       0.89734300 </v>
    <v>       0.59138127       0.50232405       0.39712104 </v>
    <v>       0.58877705       0.50131600       0.89685722 </v>
    <v>       0.59257330       0.83500718       0.39733130 </v>
    <v>       0.59090954       0.83427866       0.89739481 </v>
    <v>       0.91005138       0.00210021       0.10454288 </v>
    <v>       0.90864252       0.00087057       0.60154281 </v>
    <v>       0.90902969       0.33586687       0.10307895 </v>
    <v>       0.90938998       0.33450642       0.60261457 </v>
    <v>       0.90786140       0.66695345       0.10158329 </v>
    <v>       0.90784979       0.66629648       0.60132698 </v>
    <v>       0.15804057       0.17366702       0.15799693 </v>
    <v>       0.15870087       0.17417538       0.65555817 </v>
    <v>       0.16004611       0.50224669       0.15706328 </v>
    <v>       0.15922318       0.50472427       0.65579225 </v>
    <v>       0.15492344       0.83000742       0.15632655 </v>
    <v>       0.15510179       0.83510228       0.64884929 </v>
    <v>       0.33930850       0.00342497       0.34779727 </v>
    <v>       0.33958410       0.00138883       0.84004600 </v>
    <v>       0.34167903       0.33804057       0.34342917 </v>
    <v>       0.33945007       0.33558199       0.84427621 </v>
    <v>       0.34046572       0.66981359       0.34418850 </v>
    <v>       0.33884885       0.66870376       0.84268898 </v>
    <v>       0.09266000       0.00178848       0.89747652 </v>
    <v>       0.09875939       0.31155870       0.40065593 </v>
    <v>       0.09066013       0.33586274       0.89750007 </v>
    <v>       0.08760257       0.66433078       0.39518400 </v>
    <v>       0.09095295       0.66806690       0.89618862 </v>
    <v>       0.40576420       0.16580595       0.10198554 </v>
    <v>       0.41114335       0.17007797       0.60358495 </v>
    <v>       0.40941082       0.50181223       0.10217975 </v>
    <v>       0.40838040       0.50290914       0.60321515 </v>
    <v>       0.40421108       0.83480752       0.10227576 </v>
    <v>       0.41117344       0.83573436       0.60233034 </v>
    <v>       0.99665264       0.16978896       0.13888527 </v>
    <v>       0.99647625       0.16782345       0.62277112 </v>
    <v>       0.99657313       0.50175706       0.12557582 </v>
    <v>       0.99638956       0.50083522       0.62778863 </v>
    <v>       0.99485527       0.83370097       0.12679783 </v>
    <v>       0.99498098       0.83375353       0.62708905 </v>
    <v>       0.50265175       0.99991249       0.37291439 </v>
    <v>       0.50241541       0.00045553       0.87208726 </v>
    <v>       0.50329164       0.33560131       0.37197779 </v>
    <v>       0.50169630       0.33356195       0.87213729 </v>
    <v>       0.50368915       0.66923272       0.37217105 </v>
    <v>       0.50161293       0.66913592       0.87186867 </v>
    <v>       0.66903802       0.16512486       0.28002940 </v>
    <v>       0.67293129       0.16868215       0.78118602 </v>
    <v>       0.67390906       0.49653162       0.28086017 </v>
    <v>       0.67238448       0.50166573       0.78104407 </v>
    <v>       0.67414513       0.83161691       0.28039811 </v>
    <v>       0.67338987       0.83596822       0.78108423 </v>
    <v>       0.82479135       0.99887501       0.21828875 </v>
    <v>       0.82843743       0.00264437       0.71999285 </v>
    <v>       0.82829091       0.32667512       0.22054022 </v>
    <v>       0.82780528       0.33478447       0.71947044 </v>
    <v>       0.82764058       0.66184357       0.21886919 </v>
    <v>       0.82763216       0.66860688       0.71963132 </v>
    <v>       0.82746962       0.99565451       0.44639458 </v>
    <v>       0.83440506       0.00263188       0.94741992 </v>
    <v>       0.84042691       0.32350945       0.44356182 </v>
    <v>       0.83328389       0.33451429       0.94637768 </v>
    <v>       0.83257572       0.66022261       0.44463198 </v>
    <v>       0.83151881       0.66852007       0.94519901 </v>
    <v>       0.66562691       0.16603086       0.05427140 </v>
    <v>       0.66784536       0.16897963       0.55412257 </v>
    <v>       0.66502217       0.49901741       0.05409403 </v>
    <v>       0.66905416       0.50102640       0.55387026 </v>
    <v>       0.66777961       0.83195789       0.05380844 </v>
    <v>       0.66847712       0.83470440       0.55451948 </v>
    <v>       0.49380665       0.99946268       0.12667229 </v>
    <v>       0.49789518       0.00277072       0.62815463 </v>
    <v>       0.49365207       0.33221255       0.12677884 </v>
    <v>       0.49712162       0.33705403       0.62869828 </v>
    <v>       0.49480695       0.67037040       0.12732363 </v>
    <v>       0.49734495       0.66879634       0.62823413 </v>
    <v>       0.00446418       0.16803956       0.87366959 </v>
    <v>       0.00951024       0.48662378       0.37358218 </v>
    <v>       0.00301141       0.50202235       0.87210623 </v>
    <v>       0.00503796       0.83298024       0.37364411 </v>
    <v>       0.00463858       0.83566953       0.87303216 </v>
    <v>       0.15653433       0.01203867       0.30090717 </v>
    <v>       0.16892588       0.00247010       0.77245048 </v>
    <v>       0.17705379       0.34043026       0.27732130 </v>
    <v>       0.17257467       0.33573468       0.78151330 </v>
    <v>       0.17242304       0.66886836       0.27946534 </v>
    <v>       0.17176650       0.66955594       0.77863083 </v>
    <v>       0.32421842       0.16221512       0.22045839 </v>
    <v>       0.32566305       0.16512321       0.71704181 </v>
    <v>       0.32929513       0.50510900       0.21959288 </v>
    <v>       0.32860329       0.50399691       0.72151749 </v>
    <v>       0.32099512       0.84209723       0.22040713 </v>
    <v>       0.32253618       0.84037130       0.71315097 </v>
    <v>       0.33546654       0.17131162       0.44707556 </v>
    <v>       0.32886833       0.16592251       0.94455928 </v>
    <v>       0.33357423       0.50369981       0.44640984 </v>
    <v>       0.33139687       0.50224790       0.94617930 </v>
    <v>       0.33269093       0.83619342       0.44661755 </v>
    <v>       0.32829806       0.83638998       0.94393379 </v>
    <v>       0.16182225       0.00226817       0.05922090 </v>
    <v>       0.14579895       0.01222058       0.52783730 </v>
    <v>       0.16822153       0.33532250       0.05320329 </v>
    <v>       0.17531029       0.34033250       0.55952254 </v>
    <v>       0.16819609       0.66797897       0.05288960 </v>
    <v>       0.16800693       0.66904665       0.55212452 </v>
    <v>       0.07194391       0.04772049       0.39134104 </v>
   </varray>
  </structure>
  <varray name="forces" >
   <v>      -0.02550423       0.20239033      -0.05692706 </v>
   <v>      -0.00634089       0.08115552       0.02669390 </v>
   <v>      -0.00706328       0.09536256      -0.03788383 </v>
   <v>       0.00167618       0.06820830       0.03132984 </v>
   <v>       0.03569285       0.14311165      -0.04617812 </v>
   <v>       0.01669770       0.08368011       0.02922005 </v>
   <v>      -0.28335321      -0.04997311      -0.03636830 </v>
   <v>      -0.01703310      -0.04031576      -0.02101836 </v>
   <v>      -0.00107027       0.09503642      -0.07172989 </v>
   <v>       0.01496875      -0.03962882      -0.01452218 </v>
   <v>       0.13017304       0.35514759      -0.13910814 </v>
   <v>       0.01295178      -0.04362946      -0.01818696 </v>
   <v>      -0.01233146      -0.00372935       0.03611091 </v>
   <v>       0.00295865      -0.02019787      -0.00577159 </v>
   <v>      -0.01873236      -0.00484644       0.02449822 </v>
   <v>      -0.01161446      -0.01576073       0.00208057 </v>
   <v>       0.00989165       0.00437390       0.02814789 </v>
   <v>      -0.00445166      -0.01448666      -0.01174789 </v>
   <v>      -0.00862068       0.03697817      -0.25904262 </v>
   <v>      -0.02091602       0.13883899       0.18647541 </v>
   <v>      -0.07012335       0.09130790      -0.14851115 </v>
   <v>      -0.07315104       0.17155553       0.08184322 </v>
   <v>       0.04732181       0.07149965      -0.11685913 </v>
   <v>       0.03852147       0.11756850       0.06525966 </v>
   <v>       0.08606652      -0.05907805      -0.21675975 </v>
   <v>       0.08851418       0.03843016       0.31937319 </v>
   <v>      -0.09235093       0.01926051      -0.19900410 </v>
   <v>      -0.09483412       0.12435527       0.24115482 </v>
   <v>      -0.05295645      -0.04830497      -0.09638575 </v>
   <v>      -0.02849927      -0.02239193       0.21807150 </v>
   <v>       0.05190312      -0.21346361      -0.07022362 </v>
   <v>       0.02095626      -0.08201844       0.06956980 </v>
   <v>      -0.00010753      -0.28594417      -0.03018172 </v>
   <v>       0.02738665      -0.12119059       0.04577173 </v>
   <v>      -0.02769634      -0.19058979      -0.03544965 </v>
   <v>      -0.06651480      -0.10906655       0.03674494 </v>
   <v>       0.00865240      -0.12063665       0.02599768 </v>
   <v>      -0.21720216       0.28210151      -0.10401882 </v>
   <v>      -0.00450416       0.00673675       0.00581344 </v>
   <v>       0.26004570      -0.19606321       0.02800861 </v>
   <v>       0.01269567      -0.02678500       0.01712239 </v>
   <v>      -0.00353145       0.00181239      -0.05721268 </v>
   <v>       0.00651900      -0.07711897       0.08943058 </v>
   <v>      -0.00046349      -0.04839450      -0.06577712 </v>
   <v>      -0.01094115      -0.04100888       0.04074300 </v>
   <v>       0.02815326       0.04336827      -0.04521739 </v>
   <v>       0.01717666      -0.06299575       0.06025064 </v>
   <v>       0.04431825      -0.15225843       0.35803322 </v>
   <v>       0.04635328      -0.25575530      -0.01928376 </v>
   <v>       0.00819861      -0.24156245       0.16073744 </v>
   <v>       0.00983693      -0.24819397       0.08975431 </v>
   <v>      -0.03657665      -0.14263384       0.18929754 </v>
   <v>      -0.03521856      -0.19409563       0.07256370 </v>
   <v>       0.02409119       0.23388590      -0.14314970 </v>
   <v>       0.00338626       0.19313518      -0.11566809 </v>
   <v>      -0.00096384       0.18952357      -0.12405365 </v>
   <v>       0.00919006       0.18347843      -0.12482520 </v>
   <v>      -0.01169692       0.21412091      -0.12697682 </v>
   <v>      -0.00744606       0.19547296      -0.11970160 </v>
   <v>       0.03122539      -0.05239690      -0.11346418 </v>
   <v>      -0.00209049      -0.05892264      -0.12390751 </v>
   <v>       0.00238012      -0.14683912      -0.05561165 </v>
   <v>      -0.00672053      -0.05121996      -0.11749673 </v>
   <v>      -0.03381983      -0.16277395      -0.06238529 </v>
   <v>      -0.00324541      -0.06329205      -0.12658252 </v>
   <v>       0.05395626      -0.18872737       0.24816410 </v>
   <v>      -0.00160156      -0.02841496       0.07501682 </v>
   <v>       0.06119866       0.00257256       0.14463356 </v>
   <v>       0.00427494      -0.00298875       0.10233754 </v>
   <v>      -0.03690742      -0.01579825       0.20893931 </v>
   <v>      -0.01940525      -0.02167710       0.09707060 </v>
   <v>       0.02352123       0.21192559      -0.13523828 </v>
   <v>       0.00182246       0.36823833      -0.01193554 </v>
   <v>       0.02423941       0.25093345      -0.06973932 </v>
   <v>       0.00654446       0.37543900      -0.04719160 </v>
   <v>      -0.04064343       0.33046395      -0.13707527 </v>
   <v>      -0.01568005       0.39207255      -0.04244150 </v>
   <v>       0.02037932      -0.41873109       0.12497002 </v>
   <v>       0.00500798      -0.43338755       0.04751337 </v>
   <v>       0.00728140      -0.40017102       0.10641247 </v>
   <v>      -0.00073536      -0.42292922       0.05301671 </v>
   <v>       0.01082174      -0.44454217       0.13277067 </v>
   <v>      -0.01931107      -0.42943155       0.04303156 </v>
   <v>      -0.00793097      -0.19058004       0.13633032 </v>
   <v>      -0.01351543      -0.14130520       0.09904047 </v>
   <v>       0.02210919      -0.16616603       0.12911220 </v>
   <v>      -0.01975270      -0.13868882       0.09547878 </v>
   <v>      -0.04069561      -0.19024688       0.13103188 </v>
   <v>       0.01453402      -0.14617683       0.09875113 </v>
   <v>       0.00632494       0.18009528      -0.10444655 </v>
   <v>       0.14939872      -0.00552138      -0.05984930 </v>
   <v>       0.00230660       0.16775800      -0.11771148 </v>
   <v>      -1.24531059      -0.18893381      -0.02634382 </v>
   <v>      -0.00580686       0.17965637      -0.11407324 </v>
   <v>      -0.00636685       0.06537823      -0.00192215 </v>
   <v>       0.00896364      -0.01426650      -0.19193218 </v>
   <v>       0.14225318       0.34037111       0.23258174 </v>
   <v>      -0.03194389      -0.02425025      -0.22118511 </v>
   <v>      -0.02122584       0.09001968       0.03371296 </v>
   <v>      -0.06134361      -0.01538644      -0.19483824 </v>
   <v>      -0.00128117       0.10376807       0.19692851 </v>
   <v>      -0.01397863       0.08484864       0.03514717 </v>
   <v>       0.01662579       0.14589137       0.17008708 </v>
   <v>       0.04099379       0.09936036       0.03434341 </v>
   <v>      -0.04125131       0.08691481       0.18122092 </v>
   <v>       0.00850798       0.09698507       0.04897733 </v>
   <v>      -0.03617283       0.50622629      -0.11487616 </v>
   <v>       0.00127721       0.42413578      -0.08635754 </v>
   <v>       0.02419396       0.45824984      -0.10421466 </v>
   <v>      -0.01024087       0.41895383      -0.07876746 </v>
   <v>      -0.01183845       0.49704119      -0.09758440 </v>
   <v>      -0.01729245       0.41509753      -0.07814511 </v>
   <v>      -0.00730729      -0.29235837       0.13471127 </v>
   <v>      -0.05649209      -0.19388065      -0.14771570 </v>
   <v>      -0.01250920      -0.39032183       0.15058301 </v>
   <v>       0.16761946      -0.36931295      -0.39277909 </v>
   <v>       0.00869175      -0.39255714       0.10821152 </v>
   <v>      -0.00848346      -0.39677683      -0.12356968 </v>
   <v>       1.17195890      -0.00320131      -0.00309877 </v>
  </varray>
  <varray name="stress" >
   <v>     -53.85262767       9.21861915      -2.24266534 </v>
   <v>       9.21861920     -51.78594964      -0.13671785 </v>
   <v>      -2.24266597      -0.13671802     -55.75901447 </v>
  </varray>
  <energy>
   <i name="e_fr_energy">   -946.53060432 </i>
   <i name="e_wo_entrp">   -946.53060432 </i>
   <i name="e_0_energy">   -946.53060432 </i>
  </energy>
  <time name="totalsc">16621.6516623.85</time>
  <eigenvalues>
   <array>
    <dimension dim="1">band</dimension>
    <dimension dim="2">kpoint</dimension>
    <dimension dim="3">spin</dimension>
    <field>eigene</field>
    <field>occ</field>
    <set>
     <set comment="spin 1">
      <set comment="kpoint 1">
       <r>  -18.7189    1.0000 </r>
       <r>  -18.4252    1.0000 </r>
       <r>  -18.3967    1.0000 </r>
       <r>  -18.2950    1.0000 </r>
       <r>  -18.2018    1.0000 </r>
       <r>  -18.0959    1.0000 </r>
       <r>  -18.0187    1.0000 </r>
       <r>  -17.9811    1.0000 </r>
       <r>  -17.9270    1.0000 </r>
       <r>  -17.8442    1.0000 </r>
       <r>  -17.8397    1.0000 </r>
       <r>  -17.8124    1.0000 </r>
       <r>  -17.7773    1.0000 </r>
       <r>  -17.7705    1.0000 </r>
       <r>  -17.7465    1.0000 </r>
       <r>  -17.7093    1.0000 </r>
       <r>  -17.7022    1.0000 </r>
       <r>  -17.6715    1.0000 </r>
       <r>  -17.6474    1.0000 </r>
       <r>  -17.5992    1.0000 </r>
       <r>  -17.5920    1.0000 </r>
       <r>  -17.5847    1.0000 </r>
       <r>  -17.5597    1.0000 </r>
       <r>  -17.5464    1.0000 </r>
       <r>  -17.5255    1.0000 </r>
       <r>  -17.5103    1.0000 </r>
       <r>  -17.4390    1.0000 </r>
       <r>  -17.4269    1.0000 </r>
       <r>  -17.4104    1.0000 </r>
       <r>  -17.3972    1.0000 </r>
       <r>  -17.3873    1.0000 </r>
       <r>  -17.3758    1.0000 </r>
       <r>  -17.3738    1.0000 </r>
       <r>  -17.3647    1.0000 </r>
       <r>  -17.3478    1.0000 </r>
       <r>  -17.3088    1.0000 </r>
       <r>  -17.2963    1.0000 </r>
       <r>  -17.2534    1.0000 </r>
       <r>  -17.2420    1.0000 </r>
       <r>  -17.2237    1.0000 </r>
       <r>  -17.2192    1.0000 </r>
       <r>  -17.2058    1.0000 </r>
       <r>  -17.1905    1.0000 </r>
       <r>  -17.1547    1.0000 </r>
       <r>  -17.1268    1.0000 </r>
       <r>  -17.0952    1.0000 </r>
       <r>  -17.0824    1.0000 </r>
       <r>  -17.0738    1.0000 </r>
       <r>  -17.0686    1.0000 </r>
       <r>  -17.0642    1.0000 </r>
       <r>  -17.0545    1.0000 </r>
       <r>  -17.0438    1.0000 </r>
       <r>  -17.0111    1.0000 </r>
       <r>  -17.0002    1.0000 </r>
       <r>  -16.9958    1.0000 </r>
       <r>  -16.9842    1.0000 </r>
       <r>  -16.9683    1.0000 </r>
       <r>  -16.9648    1.0000 </r>
       <r>  -16.9557    1.0000 </r>
       <r>  -16.9502    1.0000 </r>
       <r>  -16.9425    1.0000 </r>
       <r>  -16.9290    1.0000 </r>
       <r>  -16.9195    1.0000 </r>
       <r>  -16.9118    1.0000 </r>
       <r>  -16.8692    1.0000 </r>
       <r>  -16.8494    1.0000 </r>
       <r>  -16.8153    1.0000 </r>
       <r>  -16.7977    1.0000 </r>
       <r>  -16.6745    1.0000 </r>
       <r>  -16.5501    1.0000 </r>
       <r>  -15.9985    1.0000 </r>
       <r>  -13.1749    1.0000 </r>
       <r>  -13.1605    1.0000 </r>
       <r>  -13.1494    1.0000 </r>
       <r>  -13.1472    1.0000 </r>
       <r>  -13.1166    1.0000 </r>
       <r>  -13.1147    1.0000 </r>
       <r>  -13.1083    1.0000 </r>
       <r>  -13.0996    1.0000 </r>
       <r>  -13.0867    1.0000 </r>
       <r>  -13.0832    1.0000 </r>
       <r>  -13.0779    1.0000 </r>
       <r>  -13.0685    1.0000 </r>
       <r>  -13.0646    1.0000 </r>
       <r>  -13.0589    1.0000 </r>
       <r>  -13.0563    1.0000 </r>
       <r>  -13.0483    1.0000 </r>
       <r>  -13.0453    1.0000 </r>
       <r>  -13.0407    1.0000 </r>
       <r>  -13.0398    1.0000 </r>
       <r>  -13.0356    1.0000 </r>
       <r>  -13.0320    1.0000 </r>
       <r>  -13.0301    1.0000 </r>
       <r>  -13.0290    1.0000 </r>
       <r>  -13.0275    1.0000 </r>
       <r>  -13.0243    1.0000 </r>
       <r>  -13.0193    1.0000 </r>
       <r>  -13.0127    1.0000 </r>
       <r>  -13.0106    1.0000 </r>
       <r>  -13.0076    1.0000 </r>
       <r>  -13.0034    1.0000 </r>
       <r>  -12.9971    1.0000 </r>
       <r>  -12.9933    1.0000 </r>
       <r>  -12.9919    1.0000 </r>
       <r>  -12.9897    1.0000 </r>
       <r>  -12.9833    1.0000 </r>
       <r>  -12.9813    1.0000 </r>
       <r>  -12.9802    1.0000 </r>
       <r>  -12.9782    1.0000 </r>
       <r>  -12.9735    1.0000 </r>
       <r>  -12.9716    1.0000 </r>
       <r>  -12.9706    1.0000 </r>
       <r>  -12.9675    1.0000 </r>
       <r>  -12.9649    1.0000 </r>
       <r>  -12.9627    1.0000 </r>
       <r>  -12.9579    1.0000 </r>
       <r>  -12.9550    1.0000 </r>
       <r>  -12.9538    1.0000 </r>
       <r>  -12.9507    1.0000 </r>
       <r>  -12.9500    1.0000 </r>
       <r>  -12.9452    1.0000 </r>
       <r>  -12.9427    1.0000 </r>
       <r>  -12.9403    1.0000 </r>
       <r>  -12.9382    1.0000 </r>
       <r>  -12.9336    1.0000 </r>
       <r>  -12.9260    1.0000 </r>
       <r>  -12.9226    1.0000 </r>
       <r>  -12.9175    1.0000 </r>
       <r>  -12.9147    1.0000 </r>
       <r>  -12.9102    1.0000 </r>
       <r>  -12.9089    1.0000 </r>
       <r>  -12.9028    1.0000 </r>
       <r>  -12.9007    1.0000 </r>
       <r>  -12.8969    1.0000 </r>
       <r>  -12.8958    1.0000 </r>
       <r>  -12.8922    1.0000 </r>
       <r>  -12.8882    1.0000 </r>
       <r>  -12.8852    1.0000 </r>
       <r>  -12.8812    1.0000 </r>
       <r>  -12.8768    1.0000 </r>
       <r>  -12.8742    1.0000 </r>
       <r>  -12.8720    1.0000 </r>
       <r>  -12.8683    1.0000 </r>
       <r>  -12.8640    1.0000 </r>
       <r>  -12.8615    1.0000 </r>
       <r>  -12.8537    1.0000 </r>
       <r>  -12.8504    1.0000 </r>
       <r>  -12.8494    1.0000 </r>
       <r>  -12.8490    1.0000 </r>
       <r>  -12.8430    1.0000 </r>
       <r>  -12.8392    1.0000 </r>
       <r>  -12.8360    1.0000 </r>
       <r>  -12.8333    1.0000 </r>
       <r>  -12.8316    1.0000 </r>
       <r>  -12.8294    1.0000 </r>
       <r>  -12.8248    1.0000 </r>
       <r>  -12.8237    1.0000 </r>
       <r>  -12.8224    1.0000 </r>
       <r>  -12.8180    1.0000 </r>
       <r>  -12.8170    1.0000 </r>
       <r>  -12.8139    1.0000 </r>
       <r>  -12.8081    1.0000 </r>
       <r>  -12.8071    1.0000 </r>
       <r>  -12.8060    1.0000 </r>
       <r>  -12.8038    1.0000 </r>
       <r>  -12.8028    1.0000 </r>
       <r>  -12.7982    1.0000 </r>
       <r>  -12.7952    1.0000 </r>
       <r>  -12.7944    1.0000 </r>
       <r>  -12.7926    1.0000 </r>
       <r>  -12.7905    1.0000 </r>
       <r>  -12.7876    1.0000 </r>
       <r>  -12.7827    1.0000 </r>
       <r>  -12.7817    1.0000 </r>
       <r>  -12.7806    1.0000 </r>
       <r>  -12.7746    1.0000 </r>
       <r>  -12.7729    1.0000 </r>
       <r>  -12.7712    1.0000 </r>
       <r>  -12.7689    1.0000 </r>
       <r>  -12.7684    1.0000 </r>
       <r>  -12.7648    1.0000 </r>
       <r>  -12.7639    1.0000 </r>
       <r>  -12.7614    1.0000 </r>
       <r>  -12.7570    1.0000 </r>
       <r>  -12.7530    1.0000 </r>
       <r>  -12.7503    1.0000 </r>
       <r>  -12.7429    1.0000 </r>
       <r>  -12.7407    1.0000 </r>
       <r>  -12.7383    1.0000 </r>
       <r>  -12.7370    1.0000 </r>
       <r>  -12.7346    1.0000 </r>
       <r>  -12.7314    1.0000 </r>
       <r>  -12.7295    1.0000 </r>
       <r>  -12.7275    1.0000 </r>
       <r>  -12.7222    1.0000 </r>
       <r>  -12.7201    1.0000 </r>
       <r>  -12.7188    1.0000 </r>
       <r>  -12.7160    1.0000 </r>
       <r>  -12.7116    1.0000 </r>
       <r>  -12.7090    1.0000 </r>
       <r>  -12.7064    1.0000 </r>
       <r>  -12.7046    1.0000 </r>
       <r>  -12.7028    1.0000 </r>
       <r>  -12.7007    1.0000 </r>
       <r>  -12.6979    1.0000 </r>
       <r>  -12.6964    1.0000 </r>
       <r>  -12.6959    1.0000 </r>
       <r>  -12.6935    1.0000 </r>
       <r>  -12.6902    1.0000 </r>
       <r>  -12.6884    1.0000 </r>
       <r>  -12.6871    1.0000 </r>
       <r>  -12.6861    1.0000 </r>
       <r>  -12.6810    1.0000 </r>
       <r>  -12.6781    1.0000 </r>
       <r>  -12.6768    1.0000 </r>
       <r>  -12.6740    1.0000 </r>
       <r>  -12.6719    1.0000 </r>
       <r>  -12.6674    1.0000 </r>
       <r>  -12.6639    1.0000 </r>
       <r>  -12.6615    1.0000 </r>
       <r>  -12.6614    1.0000 </r>
       <r>  -12.6584    1.0000 </r>
       <r>  -12.6565    1.0000 </r>
       <r>  -12.6526    1.0000 </r>
       <r>  -12.6492    1.0000 </r>
       <r>  -12.6438    1.0000 </r>
       <r>  -12.6382    1.0000 </r>
       <r>  -12.6304    1.0000 </r>
       <r>  -12.6281    1.0000 </r>
       <r>  -12.6217    1.0000 </r>
       <r>  -12.6204    1.0000 </r>
       <r>  -12.6141    1.0000 </r>
       <r>  -12.6111    1.0000 </r>
       <r>  -12.6096    1.0000 </r>
       <r>  -12.6033    1.0000 </r>
       <r>  -12.5901    1.0000 </r>
       <r>  -12.5891    1.0000 </r>
       <r>  -12.5807    1.0000 </r>
       <r>  -12.5772    1.0000 </r>
       <r>  -12.5726    1.0000 </r>
       <r>  -12.5676    1.0000 </r>
       <r>  -12.5520    1.0000 </r>
       <r>  -12.5507    1.0000 </r>
       <r>  -12.5460    1.0000 </r>
       <r>  -12.5347    1.0000 </r>
       <r>  -12.5279    1.0000 </r>
       <r>  -12.5180    1.0000 </r>
       <r>  -12.5091    1.0000 </r>
       <r>  -12.4960    1.0000 </r>
       <r>  -12.4902    1.0000 </r>
       <r>  -12.4790    1.0000 </r>
       <r>  -12.4708    1.0000 </r>
       <r>  -12.4620    1.0000 </r>
       <r>  -12.4526    1.0000 </r>
       <r>  -12.4475    1.0000 </r>
       <r>  -12.4444    1.0000 </r>
       <r>  -12.4299    1.0000 </r>
       <r>  -12.4231    1.0000 </r>
       <r>  -12.4177    1.0000 </r>
       <r>  -12.4043    1.0000 </r>
       <r>  -12.3906    1.0000 </r>
       <r>  -12.3813    1.0000 </r>
       <r>  -12.3508    1.0000 </r>
       <r>  -12.3497    1.0000 </r>
       <r>  -12.3355    1.0000 </r>
       <r>  -12.3119    1.0000 </r>
       <r>  -12.3026    1.0000 </r>
       <r>  -12.2985    1.0000 </r>
       <r>  -12.2853    1.0000 </r>
       <r>  -12.2643    1.0000 </r>
       <r>  -12.2588    1.0000 </r>
       <r>  -12.2405    1.0000 </r>
       <r>  -12.2232    1.0000 </r>
       <r>  -12.2114    1.0000 </r>
       <r>  -12.1824    1.0000 </r>
[...]
       <r>   -12.3480   196.9462   526.6003 </r>
       <r>   -12.2135   131.0261   544.2247 </r>
       <r>   -12.0790   131.7627   561.9482 </r>
       <r>   -11.9445   112.9163   577.1366 </r>
       <r>   -11.8100   118.0905   593.0210 </r>
       <r>   -11.6754    78.9418   603.6395 </r>
       <r>   -11.5409    30.6148   607.7575 </r>
       <r>   -11.4064    18.8339   610.2909 </r>
       <r>   -11.2719    12.6576   611.9935 </r>
       <r>   -11.1374     0.0485   612.0000 </r>
       <r>   -11.0029     0.0000   612.0000 </r>
       <r>   -10.8684     0.0000   612.0000 </r>
       <r>   -10.7339     0.0000   612.0000 </r>
       <r>   -10.5994     0.0000   612.0000 </r>
       <r>   -10.4649     0.0000   612.0000 </r>
       <r>   -10.3303     0.0000   612.0000 </r>
       <r>   -10.1958     0.0000   612.0000 </r>
       <r>   -10.0613     0.0000   612.0000 </r>
       <r>    -9.9268     0.0000   612.0000 </r>
       <r>    -9.7923     0.0000   612.0000 </r>
       <r>    -9.6578     0.0000   612.0000 </r>
       <r>    -9.5233     0.0000   612.0000 </r>
       <r>    -9.3888     0.0000   612.0000 </r>
       <r>    -9.2543     0.0000   612.0000 </r>
       <r>    -9.1197     0.0000   612.0000 </r>
       <r>    -8.9852     0.0000   612.0000 </r>
       <r>    -8.8507     0.0000   612.0000 </r>
       <r>    -8.7162     0.0000   612.0000 </r>
       <r>    -8.5817     0.0000   612.0000 </r>
       <r>    -8.4472     0.0000   612.0000 </r>
       <r>    -8.3127     0.0000   612.0000 </r>
       <r>    -8.1782     0.0000   612.0000 </r>
       <r>    -8.0437     0.0000   612.0000 </r>
       <r>    -7.9092     0.0000   612.0000 </r>
       <r>    -7.7746     0.0000   612.0000 </r>
       <r>    -7.6401     0.0000   612.0000 </r>
       <r>    -7.5056     0.0000   612.0000 </r>
       <r>    -7.3711     0.0000   612.0000 </r>
       <r>    -7.2366     0.0000   612.0000 </r>
       <r>    -7.1021     0.0000   612.0000 </r>
       <r>    -6.9676     0.0000   612.0000 </r>
       <r>    -6.8331     0.0000   612.0000 </r>
       <r>    -6.6986     0.0000   612.0000 </r>
       <r>    -6.5640     0.0580   612.0078 </r>
       <r>    -6.4295    12.1588   613.6433 </r>
       <r>    -6.2950     2.6519   614.0000 </r>
       <r>    -6.1605     0.0000   614.0000 </r>
       <r>    -6.0260     0.0000   614.0000 </r>
       <r>    -5.8915     0.0000   614.0000 </r>
       <r>    -5.7570     0.0000   614.0000 </r>
       <r>    -5.6225     0.0000   614.0000 </r>
       <r>    -5.4880     0.0000   614.0000 </r>
       <r>    -5.3535     0.0001   614.0000 </r>
       <r>    -5.2189     1.4255   614.1918 </r>
       <r>    -5.0844     3.3887   614.6476 </r>
       <r>    -4.9499    16.4457   616.8597 </r>
       <r>    -4.8154    24.7323   620.1864 </r>
       <r>    -4.6809    34.3561   624.8077 </r>
       <r>    -4.5464    28.5115   628.6428 </r>
       <r>    -4.4119    42.1533   634.3129 </r>
       <r>    -4.2774    47.4642   640.6973 </r>
       <r>    -4.1429    54.3367   648.0062 </r>
       <r>    -4.0083    47.0755   654.3383 </r>
       <r>    -3.8738    43.7875   660.2282 </r>
       <r>    -3.7393    47.4275   666.6077 </r>
       <r>    -3.6048    41.0990   672.1359 </r>
       <r>    -3.4703    30.7578   676.2732 </r>
       <r>    -3.3358    30.5735   680.3857 </r>
       <r>    -3.2013    32.3184   684.7328 </r>
       <r>    -3.0668    36.7738   689.6793 </r>
       <r>    -2.9323    31.9335   693.9747 </r>
       <r>    -2.7978    37.5347   699.0235 </r>
       <r>    -2.6632    38.1929   704.1608 </r>
       <r>    -2.5287    36.5993   709.0838 </r>
       <r>    -2.3942    39.3818   714.3811 </r>
       <r>    -2.2597    41.7287   719.9941 </r>
       <r>    -2.1252    44.8594   726.0281 </r>
       <r>    -1.9907    38.1749   731.1631 </r>
       <r>    -1.8562    48.3521   737.6669 </r>
       <r>    -1.7217    77.6755   748.1151 </r>
       <r>    -1.5872    54.8228   755.4893 </r>
       <r>    -1.4526    60.0239   763.5632 </r>
       <r>    -1.3181    61.5533   771.8428 </r>
       <r>    -1.1836    60.6351   779.9988 </r>
       <r>    -1.0491    50.4868   786.7898 </r>
       <r>    -0.9146    63.3981   795.3175 </r>
       <r>    -0.7801    74.1249   805.2881 </r>
       <r>    -0.6456    66.0782   814.1764 </r>
       <r>    -0.5111    72.3319   823.9058 </r>
       <r>    -0.3766    63.0078   832.3810 </r>
       <r>    -0.2420    65.9928   841.2577 </r>
       <r>    -0.1075    71.0980   850.8211 </r>
       <r>     0.0270    72.7602   860.6081 </r>
       <r>     0.1615    76.9589   870.9599 </r>
       <r>     0.2960    67.7234   880.0694 </r>
       <r>     0.4305    66.9455   889.0743 </r>
       <r>     0.5650    80.8601   899.9509 </r>
       <r>     0.6995    91.7803   912.2963 </r>
       <r>     0.8340    92.4645   924.7337 </r>
       <r>     0.9685    88.4076   936.6255 </r>
       <r>     1.1031    90.6554   948.8196 </r>
       <r>     1.2376   120.8958   965.0814 </r>
       <r>     1.3721   114.4124   980.4711 </r>
       <r>     1.5066   132.3385   998.2720 </r>
       <r>     1.6411   111.3864  1013.2546 </r>
       <r>     1.7756    70.6557  1022.7586 </r>
       <r>     1.9101    48.5695  1029.2917 </r>
       <r>     2.0446    34.5836  1033.9435 </r>
       <r>     2.1791    14.8457  1035.9404 </r>
       <r>     2.3137    12.4802  1037.6192 </r>
       <r>     2.4482     3.9322  1038.1481 </r>
       <r>     2.5827    13.0888  1039.9086 </r>
       <r>     2.7172     0.6791  1040.0000 </r>
       <r>     2.8517     0.0000  1040.0000 </r>
       <r>     2.9862     0.0000  1040.0000 </r>
       <r>     3.1207     0.0000  1040.0000 </r>
       <r>     3.2552     0.0000  1040.0000 </r>
       <r>     3.3897     0.0000  1040.0000 </r>
       <r>     3.5242     0.0000  1040.0000 </r>
       <r>     3.6588     0.0000  1040.0000 </r>
       <r>     3.7933     0.0000  1040.0000 </r>
       <r>     3.9278     0.0000  1040.0000 </r>
       <r>     4.0623     0.0000  1040.0000 </r>
       <r>     4.1968     0.0000  1040.0000 </r>
       <r>     4.3313     0.0000  1040.0000 </r>
       <r>     4.4658     0.0000  1040.0000 </r>
       <r>     4.6003     0.0000  1040.0000 </r>
       <r>     4.7348     0.0000  1040.0000 </r>
       <r>     4.8694     0.0000  1040.0000 </r>
       <r>     5.0039     0.0000  1040.0000 </r>
       <r>     5.1384     0.0000  1040.0000 </r>
       <r>     5.2729     0.0000  1040.0000 </r>
       <r>     5.4074     0.0000  1040.0000 </r>
       <r>     5.5419     0.0000  1040.0000 </r>
       <r>     5.6764     0.0000  1040.0000 </r>
       <r>     5.8109     0.0199  1040.0027 </r>
       <r>     5.9454     6.1138  1040.8250 </r>
       <r>     6.0799     2.1672  1041.1166 </r>
       <r>     6.2145     6.5223  1041.9939 </r>
       <r>     6.3490     0.0455  1042.0000 </r>
       <r>     6.4835     0.0000  1042.0000 </r>
       <r>     6.6180     0.0000  1042.0000 </r>
       <r>     6.7525     0.5901  1042.0794 </r>
       <r>     6.8870     1.2677  1042.2499 </r>
       <r>     7.0215     0.0008  1042.2500 </r>
       <r>     7.1560     0.0000  1042.2500 </r>
       <r>     7.2905     0.0137  1042.2518 </r>
       <r>     7.4251     2.0361  1042.5257 </r>
       <r>     7.5596     1.6712  1042.7505 </r>
       <r>     7.6941     2.0555  1043.0270 </r>
       <r>     7.8286     3.5836  1043.5090 </r>
       <r>     7.9631     2.8100  1043.8870 </r>
       <r>     8.0976     4.1521  1044.4455 </r>
       <r>     8.2321     1.1224  1044.5965 </r>
       <r>     8.3666     4.5567  1045.2094 </r>
       <r>     8.5011     5.8455  1045.9957 </r>
       <r>     8.6356     8.9067  1047.1937 </r>
       <r>     8.7702     4.6639  1047.8211 </r>
       <r>     8.9047     7.7734  1048.8667 </r>
       <r>     9.0392     5.0562  1049.5468 </r>
       <r>     9.1737     8.1104  1050.6378 </r>
       <r>     9.3082     7.6832  1051.6712 </r>
       <r>     9.4427     5.8169  1052.4537 </r>
       <r>     9.5772     7.6341  1053.4805 </r>
       <r>     9.7117    10.4818  1054.8904 </r>
       <r>     9.8462    11.2691  1056.4063 </r>
       <r>     9.9808    10.9255  1057.8759 </r>
       <r>    10.1153    14.6309  1059.8439 </r>
       <r>    10.2498    27.3595  1063.5240 </r>
       <r>    10.3843    23.8735  1066.7352 </r>
       <r>    10.5188    31.3680  1070.9546 </r>
       <r>    10.6533    38.8333  1076.1781 </r>
       <r>    10.7878    36.6846  1081.1125 </r>
       <r>    10.9223    27.3558  1084.7922 </r>
       <r>    11.0568    27.4354  1088.4825 </r>
       <r>    11.1913    37.9933  1093.5930 </r>
       <r>    11.3259    24.8551  1096.9363 </r>
       <r>    11.4604    34.7740  1101.6138 </r>
       <r>    11.5949    38.8026  1106.8331 </r>
       <r>    11.7294    31.0622  1111.0113 </r>
       <r>    11.8639    42.3800  1116.7119 </r>
       <r>    11.9984    26.2307  1120.2402 </r>
       <r>    12.1329    30.9277  1124.4003 </r>
       <r>    12.2674    42.7532  1130.1511 </r>
       <r>    12.4019    43.4401  1135.9942 </r>
       <r>    12.5365    39.2088  1141.2682 </r>
       <r>    12.6710    27.0411  1144.9055 </r>
       <r>    12.8055    20.4242  1147.6528 </r>
       <r>    12.9400    27.9413  1151.4112 </r>
       <r>    13.0745    32.6405  1155.8017 </r>
       <r>    13.2090    31.7315  1160.0699 </r>
       <r>    13.3435    34.1695  1164.6661 </r>
       <r>    13.4780    26.7969  1168.2705 </r>
       <r>    13.6125    33.2405  1172.7417 </r>
       <r>    13.7470    30.9380  1176.9032 </r>
       <r>    13.8816    26.9810  1180.5324 </r>
       <r>    14.0161    29.9368  1184.5593 </r>
       <r>    14.1506    28.0087  1188.3267 </r>
       <r>    14.2851    24.0938  1191.5676 </r>
       <r>    14.4196    24.6577  1194.8843 </r>
       <r>    14.5541    25.5752  1198.3245 </r>
       <r>    14.6886    26.6560  1201.9100 </r>
       <r>    14.8231    23.9495  1205.1314 </r>
       <r>    14.9576    22.6123  1208.1730 </r>
       <r>    15.0922    23.5453  1211.3401 </r>
       <r>    15.2267    25.4734  1214.7666 </r>
       <r>    15.3612    25.0565  1218.1369 </r>
       <r>    15.4957    25.7471  1221.6002 </r>
       <r>    15.6302    20.2852  1224.3287 </r>
       <r>    15.7647    20.2548  1227.0532 </r>
       <r>    15.8992    22.3903  1230.0650 </r>
       <r>    16.0337    22.4264  1233.0815 </r>
       <r>    16.1682    16.3735  1235.2839 </r>
       <r>    16.3028    19.3785  1237.8906 </r>
       <r>    16.4373    20.4264  1240.6381 </r>
       <r>    16.5718    17.1230  1242.9414 </r>
       <r>    16.7063    19.8050  1245.6053 </r>
       <r>    16.8408    11.9711  1247.2156 </r>
       <r>    16.9753     5.8382  1248.0009 </r>
       <r>    17.1098     4.4237  1248.5959 </r>
       <r>    17.2443     2.9600  1248.9941 </r>
       <r>    17.3788     0.0441  1249.0000 </r>
       <r>    17.5133     0.1637  1249.0220 </r>
       <r>    17.6479     2.8261  1249.4021 </r>
       <r>    17.7824     2.5825  1249.7495 </r>
       <r>    17.9169     0.1583  1249.7708 </r>
       <r>    18.0514     1.6895  1249.9981 </r>
       <r>    18.1859     0.0144  1250.0000 </r>
       <r>    18.3204     0.0000  1250.0000 </r>
       <r>    18.4549     0.0000  1250.0000 </r>
       <r>    18.5894     0.0000  1250.0000 </r>
       <r>    18.7239     0.0000  1250.0000 </r>
       <r>    18.8585     0.0000  1250.0000 </r>
       <r>    18.9930     0.0000  1250.0000 </r>
       <r>    19.1275     0.0000  1250.0000 </r>
       <r>    19.2620     0.0000  1250.0000 </r>
       <r>    19.3965     0.0000  1250.0000 </r>
       <r>    19.5310     0.0000  1250.0000 </r>
       <r>    19.6655     0.0000  1250.0000 </r>
       <r>    19.8000     0.0000  1250.0000 </r>
      </set>
     </set>
    </array>
   </total>
  </dos>
 </calculation>
 <structure name="finalpos" >
  <crystal>
   <varray name="basis" >
    <v>       0.00000000      12.28047342       0.00000000 </v>
    <v>       9.14270205       0.00000000       0.00000000 </v>
    <v>       0.00000000      -2.76826177     -11.30069772 </v>
   </varray>
   <i name="volume">   1268.80515525 </i>
   <varray name="rec_basis" >
    <v>       0.00000000       0.08143009      -0.01994742 </v>
    <v>       0.10937686      -0.00000000       0.00000000 </v>
    <v>       0.00000000       0.00000000      -0.08849011 </v>
   </varray>
  </crystal>
  <varray name="positions" >
   <v>       0.65618701       0.99731715       0.15512525 </v>
   <v>       0.66027536       0.00178682       0.65685475 </v>
   <v>       0.65694367       0.33220892       0.15696583 </v>
   <v>       0.65934907       0.33537821       0.65704708 </v>
   <v>       0.65891922       0.66576957       0.15809200 </v>
   <v>       0.65983850       0.66827113       0.65672062 </v>
   <v>       0.83348961       0.15642006       0.34083750 </v>
   <v>       0.84127863       0.16821118       0.84386153 </v>
   <v>       0.84694254       0.49420788       0.34264673 </v>
   <v>       0.84071704       0.50190810       0.84355318 </v>
   <v>       0.84619331       0.82899177       0.34416429 </v>
   <v>       0.84172424       0.83567432       0.84410424 </v>
   <v>       0.58835553       0.16732455       0.39831009 </v>
   <v>       0.59011536       0.16736343       0.89734300 </v>
   <v>       0.59138127       0.50232405       0.39712104 </v>
   <v>       0.58877705       0.50131600       0.89685722 </v>
   <v>       0.59257330       0.83500718       0.39733130 </v>
   <v>       0.59090954       0.83427866       0.89739481 </v>
   <v>       0.91005138       0.00210021       0.10454288 </v>
   <v>       0.90864252       0.00087057       0.60154281 </v>
   <v>       0.90902969       0.33586687       0.10307895 </v>
   <v>       0.90938998       0.33450642       0.60261457 </v>
   <v>       0.90786140       0.66695345       0.10158329 </v>
   <v>       0.90784979       0.66629648       0.60132698 </v>
   <v>       0.15804057       0.17366702       0.15799693 </v>
   <v>       0.15870087       0.17417538       0.65555817 </v>
   <v>       0.16004611       0.50224669       0.15706328 </v>
   <v>       0.15922318       0.50472427       0.65579225 </v>
   <v>       0.15492344       0.83000742       0.15632655 </v>
   <v>       0.15510179       0.83510228       0.64884929 </v>
   <v>       0.33930850       0.00342497       0.34779727 </v>
   <v>       0.33958410       0.00138883       0.84004600 </v>
   <v>       0.34167903       0.33804057       0.34342917 </v>
   <v>       0.33945007       0.33558199       0.84427621 </v>
   <v>       0.34046572       0.66981359       0.34418850 </v>
   <v>       0.33884885       0.66870376       0.84268898 </v>
   <v>       0.09266000       0.00178848       0.89747652 </v>
   <v>       0.09875939       0.31155870       0.40065593 </v>
   <v>       0.09066013       0.33586274       0.89750007 </v>
   <v>       0.08760257       0.66433078       0.39518400 </v>
   <v>       0.09095295       0.66806690       0.89618862 </v>
   <v>       0.40576420       0.16580595       0.10198554 </v>
   <v>       0.41114335       0.17007797       0.60358495 </v>
   <v>       0.40941082       0.50181223       0.10217975 </v>
   <v>       0.40838040       0.50290914       0.60321515 </v>
   <v>       0.40421108       0.83480752       0.10227576 </v>
   <v>       0.41117344       0.83573436       0.60233034 </v>
   <v>       0.99665264       0.16978896       0.13888527 </v>
   <v>       0.99647625       0.16782345       0.62277112 </v>
   <v>       0.99657313       0.50175706       0.12557582 </v>
   <v>       0.99638956       0.50083522       0.62778863 </v>
   <v>       0.99485527       0.83370097       0.12679783 </v>
   <v>       0.99498098       0.83375353       0.62708905 </v>
   <v>       0.50265175       0.99991249       0.37291439 </v>
   <v>       0.50241541       0.00045553       0.87208726 </v>
   <v>       0.50329164       0.33560131       0.37197779 </v>
   <v>       0.50169630       0.33356195       0.87213729 </v>
   <v>       0.50368915       0.66923272       0.37217105 </v>
   <v>       0.50161293       0.66913592       0.87186867 </v>
   <v>       0.66903802       0.16512486       0.28002940 </v>
   <v>       0.67293129       0.16868215       0.78118602 </v>
   <v>       0.67390906       0.49653162       0.28086017 </v>
   <v>       0.67238448       0.50166573       0.78104407 </v>
   <v>       0.67414513       0.83161691       0.28039811 </v>
   <v>       0.67338987       0.83596822       0.78108423 </v>
   <v>       0.82479135       0.99887501       0.21828875 </v>
   <v>       0.82843743       0.00264437       0.71999285 </v>
   <v>       0.82829091       0.32667512       0.22054022 </v>
   <v>       0.82780528       0.33478447       0.71947044 </v>
   <v>       0.82764058       0.66184357       0.21886919 </v>
   <v>       0.82763216       0.66860688       0.71963132 </v>
   <v>       0.82746962       0.99565451       0.44639458 </v>
   <v>       0.83440506       0.00263188       0.94741992 </v>
   <v>       0.84042691       0.32350945       0.44356182 </v>
   <v>       0.83328389       0.33451429       0.94637768 </v>
   <v>       0.83257572       0.66022261       0.44463198 </v>
   <v>       0.83151881       0.66852007       0.94519901 </v>
   <v>       0.66562691       0.16603086       0.05427140 </v>
   <v>       0.66784536       0.16897963       0.55412257 </v>
   <v>       0.66502217       0.49901741       0.05409403 </v>
   <v>       0.66905416       0.50102640       0.55387026 </v>
   <v>       0.66777961       0.83195789       0.05380844 </v>
   <v>       0.66847712       0.83470440       0.55451948 </v>
   <v>       0.49380665       0.99946268       0.12667229 </v>
   <v>       0.49789518       0.00277072       0.62815463 </v>
   <v>       0.49365207       0.33221255       0.12677884 </v>
   <v>       0.49712162       0.33705403       0.62869828 </v>
   <v>       0.49480695       0.67037040       0.12732363 </v>
   <v>       0.49734495       0.66879634       0.62823413 </v>
   <v>       0.00446418       0.16803956       0.87366959 </v>
   <v>       0.00951024       0.48662378       0.37358218 </v>
   <v>       0.00301141       0.50202235       0.87210623 </v>
   <v>       0.00503796       0.83298024       0.37364411 </v>
   <v>       0.00463858       0.83566953       0.87303216 </v>
   <v>       0.15653433       0.01203867       0.30090717 </v>
   <v>       0.16892588       0.00247010       0.77245048 </v>
   <v>       0.17705379       0.34043026       0.27732130 </v>
   <v>       0.17257467       0.33573468       0.78151330 </v>
   <v>       0.17242304       0.66886836       0.27946534 </v>
   <v>       0.17176650       0.66955594       0.77863083 </v>
   <v>       0.32421842       0.16221512       0.22045839 </v>
   <v>       0.32566305       0.16512321       0.71704181 </v>
   <v>       0.32929513       0.50510900       0.21959288 </v>
   <v>       0.32860329       0.50399691       0.72151749 </v>
   <v>       0.32099512       0.84209723       0.22040713 </v>
   <v>       0.32253618       0.84037130       0.71315097 </v>
   <v>       0.33546654       0.17131162       0.44707556 </v>
   <v>       0.32886833       0.16592251       0.94455928 </v>
   <v>       0.33357423       0.50369981       0.44640984 </v>
   <v>       0.33139687       0.50224790       0.94617930 </v>
   <v>       0.33269093       0.83619342       0.44661755 </v>
   <v>       0.32829806       0.83638998       0.94393379 </v>
   <v>       0.16182225       0.00226817       0.05922090 </v>
   <v>       0.14579895       0.01222058       0.52783730 </v>
   <v>       0.16822153       0.33532250       0.05320329 </v>
   <v>       0.17531029       0.34033250       0.55952254 </v>
   <v>       0.16819609       0.66797897       0.05288960 </v>
   <v>       0.16800693       0.66904665       0.55212452 </v>
   <v>       0.07194391       0.04772049       0.39134104 </v>
  </varray>
 </structure>
</modeling>
