       N       E                     dE             d eps       ncg     rms          rms(c)
DAV:   1     0.219976185621E+05    0.21998E+05   -0.32120E+05 10128   0.282E+03
DAV:   2     0.487599136873E+04   -0.17122E+05   -0.16142E+05 10128   0.817E+02
DAV:   3    -0.139583083466E+03   -0.50156E+04   -0.47153E+04 12984   0.320E+02
DAV:   4    -0.767305118050E+03   -0.62772E+03   -0.61505E+03 12512   0.121E+02
DAV:   5    -0.810718811159E+03   -0.43414E+02   -0.43087E+02 14544   0.344E+01    0.612E+01
RMM:   6    -0.697049238035E+03    0.11367E+03   -0.38323E+02 13174   0.236E+01    0.167E+01
RMM:   7    -0.700623003566E+03   -0.35738E+01   -0.65976E+01 14031   0.977E+00    0.134E+01
RMM:   8    -0.700513831736E+03    0.10917E+00   -0.10715E+01 12621   0.552E+00    0.473E+00
RMM:   9    -0.699987975383E+03    0.52586E+00   -0.31440E+00 15135   0.228E+00    0.134E+00
RMM:  10    -0.700059280574E+03   -0.71305E-01   -0.10881E+00 13283   0.118E+00    0.112E+00
RMM:  11    -0.700046702637E+03    0.12578E-01   -0.22944E-01 13626   0.784E-01    0.375E-01
RMM:  12    -0.700047099236E+03   -0.39660E-03   -0.44300E-02 15063   0.284E-01    0.110E-01
RMM:  13    -0.700048614491E+03   -0.15153E-02   -0.14149E-02 15534   0.133E-01    0.238E-02
RMM:  14    -0.700048996353E+03   -0.38186E-03   -0.37318E-03 14730   0.649E-02    0.148E-02
RMM:  15    -0.700049130637E+03   -0.13428E-03   -0.13883E-03 13007   0.361E-02    0.875E-03
RMM:  16    -0.700049177611E+03   -0.46973E-04   -0.47355E-04 10668   0.209E-02    0.894E-03
RMM:  17    -0.700049193485E+03   -0.15874E-04   -0.17660E-04 10039   0.132E-02    0.135E-03
RMM:  18    -0.700049200181E+03   -0.66967E-05   -0.66896E-05  9116   0.804E-03
   1 F= -.70004920E+03 E0= -.70004920E+03  d E =-.700049E+03
       N       E                     dE             d eps       ncg     rms          rms(c)
DAV:   1    -0.678275233903E+03    0.21774E+02   -0.36355E+03 12632   0.934E+01    0.705E+00
RMM:   2    -0.696553000269E+03   -0.18278E+02   -0.19745E+02 13262   0.226E+01    0.263E+00
RMM:   3    -0.700721055557E+03   -0.41681E+01   -0.40659E+01 14882   0.871E+00    0.413E+00
RMM:   4    -0.701218930057E+03   -0.49787E+00   -0.57944E+00 15704   0.314E+00    0.370E+00
RMM:   5    -0.701102830442E+03    0.11610E+00   -0.80335E-01 13981   0.142E+00    0.213E+00
RMM:   6    -0.701095873461E+03    0.69570E-02   -0.63246E-01 13429   0.139E+00    0.117E+00
RMM:   7    -0.701084225587E+03    0.11648E-01   -0.11688E-01 14981   0.525E-01    0.604E-01
RMM:   8    -0.701075794565E+03    0.84310E-02   -0.59563E-02 13177   0.401E-01    0.241E-01
RMM:   9    -0.701076182291E+03   -0.38773E-03   -0.88228E-03 14792   0.144E-01    0.818E-02
RMM:  10    -0.701076392736E+03   -0.21045E-03   -0.37125E-03 13134   0.998E-02    0.961E-02
RMM:  11    -0.701076280363E+03    0.11237E-03   -0.99952E-04 14967   0.422E-02    0.391E-02
RMM:  12    -0.701076280685E+03   -0.32227E-06   -0.48582E-04 12799   0.341E-02    0.150E-02
RMM:  13    -0.701076284052E+03   -0.33670E-05   -0.85292E-05 10144   0.146E-02
   2 F= -.70107628E+03 E0= -.70107628E+03  d E =-.102708E+01
       N       E                     dE             d eps       ncg     rms          rms(c)
DAV:   1    -0.700378734587E+03    0.69755E+00   -0.29114E+02 12608   0.246E+01    0.354E+00
RMM:   2    -0.701532387103E+03   -0.11537E+01   -0.12072E+01 13457   0.711E+00    0.116E+00
RMM:   3    -0.701821532175E+03   -0.28915E+00   -0.29788E+00 15137   0.265E+00    0.773E-01
RMM:   4    -0.701847192651E+03   -0.25660E-01   -0.37857E-01 15543   0.882E-01    0.498E-01
RMM:   5    -0.701844470129E+03    0.27225E-02   -0.56917E-02 15203   0.350E-01    0.143E-01
RMM:   6    -0.701845235634E+03   -0.76551E-03   -0.12699E-02 14341   0.171E-01    0.136E-01
RMM:   7    -0.701845362629E+03   -0.12699E-03   -0.37458E-03 15103   0.830E-02    0.387E-02
RMM:   8    -0.701845420589E+03   -0.57960E-04   -0.88680E-04 13508   0.367E-02    0.439E-02
RMM:   9    -0.701845422000E+03   -0.14112E-05   -0.25885E-04 11407   0.208E-02    0.631E-03
RMM:  10    -0.701845429377E+03   -0.73766E-05   -0.89166E-05  9810   0.113E-02
   3 F= -.70184543E+03 E0= -.70184543E+03  d E =-.179623E+01
       N       E                     dE             d eps       ncg     rms          rms(c)
DAV:   1    -0.700780059591E+03    0.10654E+01   -0.31621E+02 11256   0.250E+01    0.320E+00
RMM:   2    -0.702087247747E+03   -0.13072E+01   -0.13796E+01 13382   0.714E+00    0.115E+00
RMM:   3    -0.702368955164E+03   -0.28171E+00   -0.31041E+00 15426   0.277E+00    0.134E+00
RMM:   4    -0.702387039935E+03   -0.18085E-01   -0.35113E-01 15501   0.924E-01    0.954E-01
RMM:   5    -0.702377978592E+03    0.90613E-02   -0.92674E-02 14673   0.438E-01    0.320E-01
RMM:   6    -0.702378501061E+03   -0.52247E-03   -0.16317E-02 14220   0.198E-01    0.237E-01
RMM:   7    -0.702378039663E+03    0.46140E-03   -0.71853E-03 14189   0.103E-01    0.795E-02
RMM:   8    -0.702378079284E+03   -0.39621E-04   -0.11520E-03 14095   0.459E-02    0.241E-02
RMM:   9    -0.702378110111E+03   -0.30827E-04   -0.41019E-04 11871   0.219E-02    0.910E-03
RMM:  10    -0.702378118173E+03   -0.80624E-05   -0.10440E-04  9678   0.128E-02    0.614E-03
RMM:  11    -0.702378121788E+03   -0.36143E-05   -0.40336E-05  8409   0.790E-03
   4 F= -.70237812E+03 E0= -.70237812E+03  d E =-.532692E+00
       N       E                     dE             d eps       ncg     rms          rms(c)
DAV:   1    -0.702355778568E+03    0.22340E-01   -0.14009E+01 11280   0.524E+00    0.762E-01
RMM:   2    -0.702404824552E+03   -0.49046E-01   -0.51959E-01 13295   0.141E+00    0.242E-01
RMM:   3    -0.702414995839E+03   -0.10171E-01   -0.11348E-01 15229   0.541E-01    0.205E-01
RMM:   4    -0.702415308884E+03   -0.31305E-03   -0.13279E-02 15160   0.189E-01    0.930E-02
RMM:   5    -0.702415349955E+03   -0.41071E-04   -0.28478E-03 15120   0.788E-02    0.245E-02
RMM:   6    -0.702415399297E+03   -0.49342E-04   -0.55937E-04 14001   0.342E-02    0.181E-02
RMM:   7    -0.702415406048E+03   -0.67508E-05   -0.15799E-04 11218   0.183E-02    0.590E-03
RMM:   8    -0.702415410208E+03   -0.41601E-05   -0.53740E-05  9218   0.107E-02
   5 F= -.70241541E+03 E0= -.70241541E+03  d E =-.569981E+00
       N       E                     dE             d eps       ncg     rms          rms(c)
DAV:   1    -0.701704699115E+03    0.71071E+00   -0.19538E+02 11376   0.210E+01    0.214E+00
RMM:   2    -0.702513029594E+03   -0.80833E+00   -0.85029E+00 13659   0.642E+00    0.737E-01
RMM:   3    -0.702719404522E+03   -0.20637E+00   -0.21863E+00 15150   0.248E+00    0.742E-01
RMM:   4    -0.702732084923E+03   -0.12680E-01   -0.25469E-01 15550   0.850E-01    0.437E-01
RMM:   5    -0.702729470376E+03    0.26145E-02   -0.49520E-02 15300   0.360E-01    0.117E-01
RMM:   6    -0.702730259761E+03   -0.78939E-03   -0.10755E-02 13899   0.174E-01    0.116E-01
RMM:   7    -0.702730392844E+03   -0.13308E-03   -0.41673E-03 15041   0.923E-02    0.426E-02
RMM:   8    -0.702730455194E+03   -0.62350E-04   -0.70595E-04 14129   0.350E-02    0.419E-02
RMM:   9    -0.702730438099E+03    0.17094E-04   -0.26204E-04 12071   0.229E-02    0.903E-03
RMM:  10    -0.702730442094E+03   -0.39944E-05   -0.64622E-05  9932   0.114E-02
   6 F= -.70273044E+03 E0= -.70273044E+03  d E =-.315032E+00
       N       E                     dE             d eps       ncg     rms          rms(c)
DAV:   1    -0.702729790440E+03    0.64766E-03   -0.21827E-01 11512   0.691E-01    0.702E-02
RMM:   2    -0.702730544777E+03   -0.75434E-03   -0.78869E-03 13494   0.190E-01    0.241E-02
RMM:   3    -0.702730714821E+03   -0.17004E-03   -0.18314E-03 14847   0.720E-02    0.228E-02
RMM:   4    -0.702730723393E+03   -0.85721E-05   -0.21245E-04 13379   0.257E-02    0.122E-02
RMM:   5    -0.702730721563E+03    0.18309E-05   -0.50534E-05  9932   0.129E-02
   7 F= -.70273072E+03 E0= -.70273072E+03  d E =-.315311E+00
       N       E                     dE             d eps       ncg     rms          rms(c)
DAV:   1    -0.702578343703E+03    0.15238E+00   -0.62082E+01 10968   0.116E+01    0.128E+00
RMM:   2    -0.702804889445E+03   -0.22655E+00   -0.23884E+00 13799   0.326E+00    0.410E-01
RMM:   3    -0.702851587432E+03   -0.46698E-01   -0.50891E-01 15369   0.121E+00    0.416E-01
RMM:   4    -0.702852713180E+03   -0.11257E-02   -0.54863E-02 15535   0.399E-01    0.209E-01
RMM:   5    -0.702851824962E+03    0.88822E-03   -0.12783E-02 14895   0.176E-01    0.821E-02
RMM:   6    -0.702851921796E+03   -0.96835E-04   -0.24137E-03 15561   0.783E-02    0.531E-02
RMM:   7    -0.702851909759E+03    0.12038E-04   -0.78828E-04 14751   0.398E-02    0.273E-02
RMM:   8    -0.702851906324E+03    0.34341E-05   -0.18822E-04 11879   0.198E-02    0.134E-02
RMM:   9    -0.702851908012E+03   -0.16874E-05   -0.60082E-05  9606   0.116E-02
   8 F= -.70285191E+03 E0= -.70285191E+03  d E =-.121186E+00
       N       E                     dE             d eps       ncg     rms          rms(c)
DAV:   1    -0.702848703960E+03    0.32024E-02   -0.12643E+00 11712   0.166E+00    0.180E-01
RMM:   2    -0.702853035718E+03   -0.43318E-02   -0.45630E-02 13549   0.449E-01    0.588E-02
RMM:   3    -0.702853931661E+03   -0.89594E-03   -0.98076E-03 15314   0.169E-01    0.584E-02
RMM:   4    -0.702853950950E+03   -0.19289E-04   -0.10719E-03 15166   0.571E-02    0.302E-02
RMM:   5    -0.702853932037E+03    0.18913E-04   -0.27235E-04 13464   0.265E-02    0.114E-02
RMM:   6    -0.702853934006E+03   -0.19694E-05   -0.48829E-05  9577   0.122E-02
   9 F= -.70285393E+03 E0= -.70285393E+03  d E =-.123212E+00
       N       E                     dE             d eps       ncg     rms          rms(c)
DAV:   1    -0.702723366407E+03    0.13057E+00   -0.51649E+01 10904   0.105E+01    0.116E+00
RMM:   2    -0.702894033730E+03   -0.17067E+00   -0.17923E+00 13225   0.285E+00    0.371E-01
RMM:   3    -0.702937111552E+03   -0.43078E-01   -0.44951E-01 15279   0.113E+00    0.358E-01
RMM:   4    -0.702939712447E+03   -0.26009E-02   -0.49154E-02 15463   0.370E-01    0.207E-01
RMM:   5    -0.702939332025E+03    0.38042E-03   -0.10862E-02 14959   0.163E-01    0.708E-02
RMM:   6    -0.702939527752E+03   -0.19573E-03   -0.24584E-03 15383   0.744E-02    0.554E-02
RMM:   7    -0.702939545854E+03   -0.18102E-04   -0.71768E-04 14770   0.359E-02    0.165E-02
RMM:   8    -0.702939559699E+03   -0.13845E-04   -0.18303E-04 10949   0.172E-02    0.122E-02
RMM:   9    -0.702939561644E+03   -0.19443E-05   -0.58079E-05  9103   0.113E-02
  10 F= -.70293956E+03 E0= -.70293956E+03  d E =-.856276E-01
       N       E                     dE             d eps       ncg     rms          rms(c)
DAV:   1    -0.702922504978E+03    0.17055E-01   -0.59569E+00 11472   0.356E+00    0.392E-01
RMM:   2    -0.702941632177E+03   -0.19127E-01   -0.20055E-01 13221   0.939E-01    0.125E-01
RMM:   3    -0.702946124196E+03   -0.44920E-02   -0.47041E-02 15269   0.365E-01    0.118E-01
RMM:   4    -0.702946372813E+03   -0.24862E-03   -0.51453E-03 15393   0.120E-01    0.657E-02
RMM:   5    -0.702946341669E+03    0.31143E-04   -0.11865E-03 14859   0.526E-02    0.250E-02
RMM:   6    -0.702946359934E+03   -0.18265E-04   -0.26096E-04 13194   0.239E-02    0.172E-02
RMM:   7    -0.702946361981E+03   -0.20469E-05   -0.74303E-05  9756   0.125E-02
  11 F= -.70294636E+03 E0= -.70294636E+03  d E =-.924280E-01
       N       E                     dE             d eps       ncg     rms          rms(c)
DAV:   1    -0.702805795472E+03    0.14056E+00   -0.48311E+01 10759   0.995E+00    0.114E+00
RMM:   2    -0.702961771455E+03   -0.15598E+00   -0.16502E+00 13213   0.263E+00    0.348E-01
RMM:   3    -0.702996121646E+03   -0.34350E-01   -0.36841E-01 15277   0.102E+00    0.354E-01
RMM:   4    -0.702997147804E+03   -0.10262E-02   -0.39122E-02 15366   0.334E-01    0.179E-01
RMM:   5    -0.702996646752E+03    0.50105E-03   -0.92406E-03 14720   0.151E-01    0.693E-02
RMM:   6    -0.702996759743E+03   -0.11299E-03   -0.19919E-03 15589   0.676E-02    0.435E-02
RMM:   7    -0.702996765487E+03   -0.57437E-05   -0.54274E-04 14282   0.314E-02    0.171E-02
RMM:   8    -0.702996770576E+03   -0.50892E-05   -0.14898E-04 10677   0.165E-02    0.102E-02
RMM:   9    -0.702996772781E+03   -0.22049E-05   -0.48756E-05  9175   0.105E-02
  12 F= -.70299677E+03 E0= -.70299677E+03  d E =-.504108E-01
       N       E                     dE             d eps       ncg     rms          rms(c)
DAV:   1    -0.702996589204E+03    0.18137E-03   -0.77488E-02 11464   0.399E-01    0.455E-02
RMM:   2    -0.702996829324E+03   -0.24012E-03   -0.25388E-03 13071   0.102E-01    0.139E-02
RMM:   3    -0.702996883206E+03   -0.53882E-04   -0.58812E-04 14790   0.403E-02    0.137E-02
RMM:   4    -0.702996885248E+03   -0.20418E-05   -0.63701E-05 10180   0.143E-02
  13 F= -.70299689E+03 E0= -.70299689E+03  d E =-.505233E-01
       N       E                     dE             d eps       ncg     rms          rms(c)
DAV:   1    -0.702940674598E+03    0.56209E-01   -0.20988E+01 10695   0.656E+00    0.756E-01
RMM:   2    -0.703005406253E+03   -0.64732E-01   -0.68746E-01 13019   0.170E+00    0.231E-01
RMM:   3    -0.703021046113E+03   -0.15640E-01   -0.16737E-01 15314   0.675E-01    0.235E-01
RMM:   4    -0.703021690161E+03   -0.64405E-03   -0.17009E-02 15347   0.216E-01    0.128E-01
RMM:   5    -0.703021522283E+03    0.16788E-03   -0.44273E-03 14797   0.990E-02    0.631E-02
RMM:   6    -0.703021554473E+03   -0.32191E-04   -0.90273E-04 15443   0.436E-02    0.326E-02
RMM:   7    -0.703021563605E+03   -0.91322E-05   -0.27414E-04 12360   0.208E-02    0.103E-02
RMM:   8    -0.703021568381E+03   -0.47758E-05   -0.70261E-05  9371   0.126E-02
  14 F= -.70302157E+03 E0= -.70302157E+03  d E =-.246831E-01
       N       E                     dE             d eps       ncg     rms          rms(c)
DAV:   1    -0.703020866070E+03    0.69754E-03   -0.31171E-01 11864   0.798E-01    0.884E-02
RMM:   2    -0.703021813845E+03   -0.94777E-03   -0.10045E-02 12969   0.205E-01    0.279E-02
RMM:   3    -0.703022045304E+03   -0.23146E-03   -0.24973E-03 15257   0.818E-02    0.290E-02
RMM:   4    -0.703022055297E+03   -0.99932E-05   -0.25662E-04 12959   0.266E-02    0.164E-02
RMM:   5    -0.703022053232E+03    0.20649E-05   -0.82484E-05 10601   0.159E-02
  15 F= -.70302205E+03 E0= -.70302205E+03  d E =-.251680E-01
       N       E                     dE             d eps       ncg     rms          rms(c)
DAV:   1    -0.702998759737E+03    0.23296E-01   -0.85141E+00 10856   0.430E+00    0.466E-01
RMM:   2    -0.703027089581E+03   -0.28330E-01   -0.29968E-01 13401   0.114E+00    0.143E-01
RMM:   3    -0.703033075966E+03   -0.59864E-02   -0.64578E-02 15307   0.434E-01    0.147E-01
RMM:   4    -0.703033316736E+03   -0.24077E-03   -0.70634E-03 15407   0.145E-01    0.796E-02
RMM:   5    -0.703033235880E+03    0.80856E-04   -0.18115E-03 14901   0.659E-02    0.343E-02
RMM:   6    -0.703033255605E+03   -0.19725E-04   -0.37403E-04 14533   0.293E-02    0.216E-02
RMM:   7    -0.703033256901E+03   -0.12955E-05   -0.11247E-04 10414   0.149E-02    0.686E-03
RMM:   8    -0.703033258797E+03   -0.18965E-05   -0.33116E-05  8589   0.952E-03
  16 F= -.70303326E+03 E0= -.70303326E+03  d E =-.112056E-01
       N       E                     dE             d eps       ncg     rms          rms(c)
DAV:   1    -0.703033181977E+03    0.74924E-04   -0.45534E-02 11600   0.314E-01    0.322E-02
RMM:   2    -0.703033331826E+03   -0.14985E-03   -0.15843E-03 13358   0.816E-02    0.104E-02
RMM:   3    -0.703033361818E+03   -0.29992E-04   -0.33623E-04 14449   0.312E-02    0.109E-02
RMM:   4    -0.703033362838E+03   -0.10198E-05   -0.39256E-05  8640   0.120E-02
  17 F= -.70303336E+03 E0= -.70303336E+03  d E =-.113096E-01
       N       E                     dE             d eps       ncg     rms          rms(c)
DAV:   1    -0.703020908061E+03    0.12454E-01   -0.44375E+00 10720   0.308E+00    0.335E-01
RMM:   2    -0.703035140670E+03   -0.14233E-01   -0.15092E-01 13168   0.804E-01    0.106E-01
RMM:   3    -0.703038287902E+03   -0.31472E-02   -0.34620E-02 15328   0.313E-01    0.111E-01
RMM:   4    -0.703038383607E+03   -0.95705E-04   -0.35272E-03 15337   0.101E-01    0.589E-02
RMM:   5    -0.703038341855E+03    0.41752E-04   -0.98029E-04 14866   0.474E-02    0.321E-02
RMM:   6    -0.703038344106E+03   -0.22510E-05   -0.18254E-04 12850   0.203E-02    0.163E-02
RMM:   7    -0.703038345005E+03   -0.89962E-06   -0.66061E-05  9469   0.113E-02
  18 F= -.70303835E+03 E0= -.70303835E+03  d E =-.498217E-02
       N       E                     dE             d eps       ncg     rms          rms(c)
DAV:   1    -0.703038321119E+03    0.22987E-04   -0.35517E-03 11304   0.908E-02    0.129E-02
RMM:   2    -0.703038335439E+03   -0.14320E-04   -0.15382E-04 12418   0.274E-02    0.404E-03
RMM:   3    -0.703038337551E+03   -0.21120E-05   -0.32560E-05  7166   0.115E-02
  19 F= -.70303834E+03 E0= -.70303834E+03  d E =-.497471E-02
       N       E                     dE             d eps       ncg     rms          rms(c)
DAV:   1    -0.703033121847E+03    0.52136E-02   -0.19240E+00 10904   0.205E+00    0.220E-01
RMM:   2    -0.703039341651E+03   -0.62198E-02   -0.65950E-02 13177   0.542E-01    0.703E-02
RMM:   3    -0.703040761660E+03   -0.14200E-02   -0.15501E-02 15229   0.213E-01    0.721E-02
RMM:   4    -0.703040816362E+03   -0.54702E-04   -0.17042E-03 15321   0.707E-02    0.400E-02
RMM:   5    -0.703040790702E+03    0.25659E-04   -0.44211E-04 14066   0.327E-02    0.195E-02
RMM:   6    -0.703040792780E+03   -0.20771E-05   -0.80022E-05 10406   0.144E-02
  20 F= -.70304079E+03 E0= -.70304079E+03  d E =-.245523E-02
       N       E                     dE             d eps       ncg     rms          rms(c)
DAV:   1    -0.703040792792E+03   -0.20891E-05   -0.62682E-04 13504   0.434E-02    0.437E-03
RMM:   2    -0.703040796805E+03   -0.40133E-05   -0.46758E-05  8466   0.135E-02
  21 F= -.70304080E+03 E0= -.70304080E+03  d E =-.245925E-02
       N       E                     dE             d eps       ncg     rms          rms(c)
DAV:   1    -0.703037955927E+03    0.28369E-02   -0.10657E+00 11192   0.155E+00    0.153E-01
RMM:   2    -0.703041422418E+03   -0.34665E-02   -0.36251E-02 13242   0.410E-01    0.514E-02
RMM:   3    -0.703042234107E+03   -0.81169E-03   -0.85140E-03 15198   0.160E-01    0.494E-02
RMM:   4    -0.703042283739E+03   -0.49632E-04   -0.10104E-03 15223   0.540E-02    0.275E-02
RMM:   5    -0.703042277819E+03    0.59207E-05   -0.22959E-04 12762   0.241E-02    0.123E-02
RMM:   6    -0.703042279824E+03   -0.20057E-05   -0.44926E-05  9174   0.112E-02
  22 F= -.70304228E+03 E0= -.70304228E+03  d E =-.148302E-02
       N       E                     dE             d eps       ncg     rms          rms(c)
DAV:   1    -0.703042282911E+03   -0.50925E-05   -0.38162E-03 11928   0.942E-02    0.785E-03
RMM:   2    -0.703042299061E+03   -0.16150E-04   -0.16932E-04 12925   0.286E-02    0.366E-03
RMM:   3    -0.703042302304E+03   -0.32427E-05   -0.43697E-05  8237   0.121E-02
  23 F= -.70304230E+03 E0= -.70304230E+03  d E =-.150550E-02
       N       E                     dE             d eps       ncg     rms          rms(c)
DAV:   1    -0.703040837014E+03    0.14620E-02   -0.55160E-01 11054   0.109E+00    0.118E-01
RMM:   2    -0.703042628861E+03   -0.17918E-02   -0.18891E-02 13204   0.285E-01    0.381E-02
RMM:   3    -0.703043006268E+03   -0.37741E-03   -0.40791E-03 15219   0.110E-01    0.382E-02
RMM:   4    -0.703043018299E+03   -0.12031E-04   -0.47830E-04 14922   0.373E-02    0.185E-02
RMM:   5    -0.703043015733E+03    0.25660E-05   -0.11142E-04 11517   0.172E-02    0.814E-03
RMM:   6    -0.703043016771E+03   -0.10380E-05   -0.23028E-05  7969   0.863E-03
  24 F= -.70304302E+03 E0= -.70304302E+03  d E =-.714467E-03
       N       E                     dE             d eps       ncg     rms          rms(c)
DAV:   1    -0.703043017723E+03   -0.19900E-05   -0.66741E-04 11360   0.407E-02    0.352E-03
RMM:   2    -0.703043021133E+03   -0.34102E-05   -0.38634E-05  7129   0.153E-02
  25 F= -.70304302E+03 E0= -.70304302E+03  d E =-.718829E-03
       N       E                     dE             d eps       ncg     rms          rms(c)
DAV:   1    -0.703042087700E+03    0.93002E-03   -0.33805E-01 10940   0.853E-01    0.918E-02
RMM:   2    -0.703043151999E+03   -0.10643E-02   -0.11219E-02 13133   0.221E-01    0.289E-02
RMM:   3    -0.703043399423E+03   -0.24742E-03   -0.26220E-03 15232   0.869E-02    0.286E-02
RMM:   4    -0.703043409650E+03   -0.10226E-04   -0.29071E-04 13664   0.291E-02    0.143E-02
RMM:   5    -0.703043408512E+03    0.11374E-05   -0.75436E-05 10564   0.152E-02
  26 F= -.70304341E+03 E0= -.70304341E+03  d E =-.387379E-03
       N       E                     dE             d eps       ncg     rms          rms(c)
DAV:   1    -0.703043410824E+03   -0.11744E-05   -0.48900E-04 11768   0.330E-02    0.643E-03
RMM:   2    -0.703043412596E+03   -0.17721E-05   -0.21437E-05  6164   0.101E-02
  27 F= -.70304341E+03 E0= -.70304341E+03  d E =-.391463E-03
       N       E                     dE             d eps       ncg     rms          rms(c)
DAV:   1    -0.703043001558E+03    0.40927E-03   -0.16859E-01 10696   0.594E-01    0.676E-02
RMM:   2    -0.703043530458E+03   -0.52890E-03   -0.55731E-03 12989   0.153E-01    0.210E-02
RMM:   3    -0.703043653953E+03   -0.12349E-03   -0.13269E-03 15109   0.606E-02    0.207E-02
RMM:   4    -0.703043660194E+03   -0.62417E-05   -0.14563E-04 12350   0.202E-02    0.112E-02
RMM:   5    -0.703043659580E+03    0.61479E-06   -0.39887E-05  9099   0.116E-02
  28 F= -.70304366E+03 E0= -.70304366E+03  d E =-.246984E-03
       N       E                     dE             d eps       ncg     rms          rms(c)
DAV:   1    -0.703043569127E+03    0.91067E-04   -0.28944E-02 11328   0.246E-01    0.297E-02
RMM:   2    -0.703043662940E+03   -0.93813E-04   -0.98992E-04 12917   0.650E-02    0.891E-03
RMM:   3    -0.703043685639E+03   -0.22698E-04   -0.24914E-04 13149   0.265E-02    0.831E-03
RMM:   4    -0.703043687221E+03   -0.15825E-05   -0.32895E-05  7547   0.122E-02
  29 F= -.70304369E+03 E0= -.70304369E+03  d E =-.274625E-03
       N       E                     dE             d eps       ncg     rms          rms(c)
DAV:   1    -0.703043664744E+03    0.20894E-04   -0.43265E-03 10668   0.968E-02    0.980E-03
RMM:   2    -0.703043680223E+03   -0.15479E-04   -0.16340E-04 11524   0.257E-02    0.361E-03
RMM:   3    -0.703043682070E+03   -0.18466E-05   -0.32471E-05  7245   0.107E-02
  30 F= -.70304368E+03 E0= -.70304368E+03  d E =-.269474E-03
       N       E                     dE             d eps       ncg     rms          rms(c)
DAV:   1    -0.703043678640E+03    0.15828E-05   -0.18756E-03 10962   0.627E-02    0.834E-03
RMM:   2    -0.703043685885E+03   -0.72453E-05   -0.75355E-05  9550   0.167E-02
  31 F= -.70304369E+03 E0= -.70304369E+03  d E =-.273289E-03
       N       E                     dE             d eps       ncg     rms          rms(c)
DAV:   1    -0.703043683794E+03   -0.51538E-05   -0.43476E-04 10270   0.301E-02    0.418E-03
RMM:   2    -0.703043684972E+03   -0.11782E-05   -0.13718E-05  5869   0.891E-03
  32 F= -.70304368E+03 E0= -.70304368E+03  d E =-.272376E-03
       N       E                     dE             d eps       ncg     rms          rms(c)
DAV:   1    -0.703043685108E+03   -0.13141E-05   -0.92545E-05  9608   0.172E-02    0.189E-03
RMM:   2    -0.703043686222E+03   -0.11136E-05   -0.12315E-05  5304   0.751E-03
  33 F= -.70304369E+03 E0= -.70304369E+03  d E =-.273626E-03
       N       E                     dE             d eps       ncg     rms          rms(c)
DAV:   1    -0.703043377726E+03    0.30738E-03   -0.13066E-01 10606   0.506E-01    0.601E-02
RMM:   2    -0.703043732952E+03   -0.35523E-03   -0.37528E-03 12213   0.125E-01    0.194E-02
RMM:   3    -0.703043838222E+03   -0.10527E-03   -0.11099E-03 14828   0.545E-02    0.179E-02
RMM:   4    -0.703043842980E+03   -0.47582E-05   -0.10644E-04 11616   0.179E-02    0.844E-03
RMM:   5    -0.703043843604E+03   -0.62394E-06   -0.27769E-05  8194   0.969E-03
  34 F= -.70304384E+03 E0= -.70304384E+03  d E =-.157382E-03
       N       E                     dE             d eps       ncg     rms          rms(c)
DAV:   1    -0.703043503622E+03    0.33936E-03   -0.10960E-01 10840   0.463E-01    0.567E-02
RMM:   2    -0.703043808492E+03   -0.30487E-03   -0.32215E-03 12365   0.114E-01    0.176E-02
RMM:   3    -0.703043894468E+03   -0.85976E-04   -0.90129E-04 14873   0.486E-02    0.161E-02
RMM:   4    -0.703043897957E+03   -0.34884E-05   -0.85888E-05 10994   0.160E-02
  35 F= -.70304390E+03 E0= -.70304390E+03  d E =-.211735E-03
       N       E                     dE             d eps       ncg     rms          rms(c)
DAV:   1    -0.703043794802E+03    0.99666E-04   -0.23259E-02 10552   0.215E-01    0.227E-02
RMM:   2    -0.703043864625E+03   -0.69822E-04   -0.73651E-04 12279   0.564E-02    0.788E-03
RMM:   3    -0.703043883220E+03   -0.18596E-04   -0.19926E-04 12663   0.241E-02    0.899E-03
RMM:   4    -0.703043883421E+03   -0.20117E-06   -0.22368E-05  6947   0.100E-02
  36 F= -.70304388E+03 E0= -.70304388E+03  d E =-.197200E-03
       N       E                     dE             d eps       ncg     rms          rms(c)
DAV:   1    -0.703043866340E+03    0.16880E-04   -0.79216E-03 10448   0.125E-01    0.133E-02
RMM:   2    -0.703043889549E+03   -0.23209E-04   -0.24358E-04 11918   0.314E-02    0.449E-03
RMM:   3    -0.703043895268E+03   -0.57190E-05   -0.63139E-05  8729   0.135E-02
  37 F= -.70304390E+03 E0= -.70304390E+03  d E =-.209046E-03
       N       E                     dE             d eps       ncg     rms          rms(c)
DAV:   1    -0.703043881769E+03    0.77802E-05   -0.19211E-03 10630   0.614E-02    0.886E-03
RMM:   2    -0.703043887667E+03   -0.58979E-05   -0.62643E-05  8493   0.156E-02
  38 F= -.70304389E+03 E0= -.70304389E+03  d E =-.201445E-03
       N       E                     dE             d eps       ncg     rms          rms(c)
DAV:   1    -0.703043891189E+03   -0.94202E-05   -0.96053E-04 10105   0.440E-02    0.610E-03
RMM:   2    -0.703043893966E+03   -0.27770E-05   -0.32194E-05  6707   0.141E-02
  39 F= -.70304389E+03 E0= -.70304389E+03  d E =-.207744E-03
       N       E                     dE             d eps       ncg     rms          rms(c)
DAV:   1    -0.703043888779E+03    0.24100E-05   -0.22099E-04  9356   0.238E-02    0.286E-03
RMM:   2    -0.703043890524E+03   -0.17453E-05   -0.18961E-05  5874   0.982E-03
  40 F= -.70304389E+03 E0= -.70304389E+03  d E =-.204303E-03
       N       E                     dE             d eps       ncg     rms          rms(c)
DAV:   1    -0.703043890656E+03   -0.18772E-05   -0.72998E-05  9370   0.180E-02    0.152E-03
RMM:   2    -0.703043891445E+03   -0.78863E-06   -0.81661E-06  5344   0.538E-03
  41 F= -.70304389E+03 E0= -.70304389E+03  d E =-.205223E-03
       N       E                     dE             d eps       ncg     rms          rms(c)
DAV:   1    -0.703043731742E+03    0.15891E-03   -0.64663E-02 10692   0.368E-01    0.420E-02
RMM:   2    -0.703043943563E+03   -0.21182E-03   -0.22404E-03 13137   0.968E-02    0.129E-02
RMM:   3    -0.703043989371E+03   -0.45808E-04   -0.50726E-04 14712   0.377E-02    0.129E-02
RMM:   4    -0.703043990853E+03   -0.14824E-05   -0.55570E-05  9710   0.136E-02
  42 F= -.70304399E+03 E0= -.70304399E+03  d E =-.994086E-04
       N       E                     dE             d eps       ncg     rms          rms(c)
DAV:   1    -0.703043984368E+03    0.50033E-05   -0.51566E-04 13983   0.460E-02    0.321E-03
RMM:   2    -0.703043987598E+03   -0.32301E-05   -0.35019E-05  7789   0.116E-02
  43 F= -.70304399E+03 E0= -.70304399E+03  d E =-.961530E-04
       N       E                     dE             d eps       ncg     rms          rms(c)
DAV:   1    -0.703043988669E+03   -0.43015E-05   -0.33184E-04 11044   0.268E-02    0.483E-03
RMM:   2    -0.703043989972E+03   -0.13030E-05   -0.14869E-05  6415   0.805E-03
  44 F= -.70304399E+03 E0= -.70304399E+03  d E =-.985274E-04
       N       E                     dE             d eps       ncg     rms          rms(c)
DAV:   1    -0.703043975055E+03    0.13614E-04   -0.15730E-02 10894   0.185E-01    0.203E-02
RMM:   2    -0.703044029432E+03   -0.54377E-04   -0.56937E-04 13210   0.495E-02    0.625E-03
RMM:   3    -0.703044040054E+03   -0.10622E-04   -0.12270E-04 12614   0.192E-02    0.626E-03
RMM:   4    -0.703044040604E+03   -0.55005E-06   -0.17370E-05  6240   0.934E-03
  45 F= -.70304404E+03 E0= -.70304404E+03  d E =-.506320E-04
       N       E                     dE             d eps       ncg     rms          rms(c)
DAV:   1    -0.703044036888E+03    0.31663E-05   -0.25893E-03 11648   0.756E-02    0.905E-03
RMM:   2    -0.703044046726E+03   -0.98380E-05   -0.10393E-04 11109   0.222E-02    0.281E-03
RMM:   3    -0.703044047998E+03   -0.12721E-05   -0.22926E-05  6476   0.957E-03
  46 F= -.70304405E+03 E0= -.70304405E+03  d E =-.580258E-04
       N       E                     dE             d eps       ncg     rms          rms(c)
DAV:   1    -0.703044023318E+03    0.23408E-04   -0.16296E-02 10622   0.181E-01    0.211E-02
RMM:   2    -0.703044074751E+03   -0.51432E-04   -0.54674E-04 12573   0.492E-02    0.676E-03
RMM:   3    -0.703044087597E+03   -0.12847E-04   -0.14356E-04 12210   0.204E-02    0.685E-03
RMM:   4    -0.703044087992E+03   -0.39439E-06   -0.18671E-05  6649   0.957E-03
  47 F= -.70304409E+03 E0= -.70304409E+03  d E =-.399940E-04
       N       E                     dE             d eps       ncg     rms          rms(c)
DAV:   1    -0.703044065617E+03    0.21980E-04   -0.85991E-03 11024   0.131E-01    0.164E-02
RMM:   2    -0.703044091094E+03   -0.25477E-04   -0.27169E-04 12205   0.347E-02    0.503E-03
RMM:   3    -0.703044097756E+03   -0.66617E-05   -0.77615E-05  9702   0.150E-02
  48 F= -.70304410E+03 E0= -.70304410E+03  d E =-.497581E-04
       N       E                     dE             d eps       ncg     rms          rms(c)
DAV:   1    -0.703044080717E+03    0.10377E-04   -0.28743E-03 10704   0.768E-02    0.102E-02
RMM:   2    -0.703044090989E+03   -0.10271E-04   -0.11023E-04 11122   0.223E-02    0.284E-03
RMM:   3    -0.703044092325E+03   -0.13361E-05   -0.23476E-05  6661   0.963E-03
  49 F= -.70304409E+03 E0= -.70304409E+03  d E =-.443269E-04
       N       E                     dE             d eps       ncg     rms          rms(c)
DAV:   1    -0.703044090661E+03    0.32796E-06   -0.14486E-03 10396   0.537E-02    0.742E-03
RMM:   2    -0.703044096269E+03   -0.56088E-05   -0.58650E-05  8648   0.147E-02
  50 F= -.70304410E+03 E0= -.70304410E+03  d E =-.482716E-04
       N       E                     dE             d eps       ncg     rms          rms(c)
DAV:   1    -0.703044093552E+03   -0.28909E-05   -0.34157E-04 10184   0.279E-02    0.386E-03
RMM:   2    -0.703044094909E+03   -0.13570E-05   -0.16133E-05  5627   0.991E-03
  51 F= -.70304409E+03 E0= -.70304409E+03  d E =-.469107E-04
       N       E                     dE             d eps       ncg     rms          rms(c)
DAV:   1    -0.703044095372E+03   -0.18205E-05   -0.12813E-04  8847   0.201E-02    0.203E-03
RMM:   2    -0.703044096749E+03   -0.13771E-05   -0.14654E-05  5609   0.828E-03
  52 F= -.70304410E+03 E0= -.70304410E+03  d E =-.487513E-04
       N       E                     dE             d eps       ncg     rms          rms(c)
DAV:   1    -0.703044096120E+03   -0.74806E-06   -0.59847E-06  5893   0.109E-02    0.134E-03
RMM:   2    -0.703044096315E+03   -0.19468E-06   -0.24800E-06  4965   0.308E-03
  53 F= -.70304410E+03 E0= -.70304410E+03  d E =-.483170E-04
       N       E                     dE             d eps       ncg     rms          rms(c)
DAV:   1    -0.703044096634E+03   -0.51408E-06   -0.16205E-06  5294   0.369E-03    0.108E-03
RMM:   2    -0.703044096708E+03   -0.73916E-07   -0.11172E-06  5104   0.247E-03
  54 F= -.70304410E+03 E0= -.70304410E+03  d E =-.487103E-04
       N       E                     dE             d eps       ncg     rms          rms(c)
DAV:   1    -0.703044072379E+03    0.24255E-04   -0.12360E-02 10724   0.161E-01    0.184E-02
RMM:   2    -0.703044110439E+03   -0.38060E-04   -0.40150E-04 12747   0.412E-02    0.585E-03
RMM:   3    -0.703044119068E+03   -0.86291E-05   -0.10154E-04 11525   0.171E-02    0.553E-03
RMM:   4    -0.703044119395E+03   -0.32654E-06   -0.13936E-05  6311   0.837E-03
  55 F= -.70304412E+03 E0= -.70304412E+03  d E =-.226869E-04
       N       E                     dE             d eps       ncg     rms          rms(c)
DAV:   1    -0.703044118129E+03    0.93951E-06   -0.64472E-04 11392   0.387E-02    0.544E-03
RMM:   2    -0.703044120737E+03   -0.26084E-05   -0.29359E-05  6499   0.136E-02
  56 F= -.70304412E+03 E0= -.70304412E+03  d E =-.240293E-04
