<?xml version="1.0" encoding="ISO-8859-1"?>
<modeling>
 <generator>
  <i name="program" type="string">vasp </i>
  <i name="version" type="string">6.4.2  </i>
  <i name="subversion" type="string">20Jul23 (build Nov 12 2023 22:16:35) complex                          parallel </i>
  <i name="platform" type="string">LinuxNV </i>
  <i name="date" type="string">2025 03 12 </i>
  <i name="time" type="string">04:06:15 </i>
 </generator>
 <incar>
  <i type="int" name="ISTART">     0</i>
  <i type="string" name="PREC">Normal</i>
  <i type="string" name="ALGO">Fast</i>
  <i type="int" name="ISPIN">     1</i>
  <i type="int" name="ICHARG">     2</i>
  <i type="int" name="IBRION">     2</i>
  <i name="EDIFF">      0.00001000</i>
  <i name="EDIFFG">     -0.00500000</i>
  <i type="int" name="NSW">   300</i>
  <i type="int" name="ISIF">     2</i>
  <i name="ENCUT">    450.00000000</i>
  <i name="NELECT">   1056.00000000</i>
  <i type="string" name="LREAL">Auto</i>
  <i type="logical" name="LPLANE"> T  </i>
  <i type="int" name="ISMEAR">     0</i>
  <i name="SIGMA">      0.05000000</i>
  <i type="logical" name="LWAVE"> F  </i>
  <i type="logical" name="LCHARG"> F  </i>
 </incar>
 <primitive_cell>
  <structure name="primitive_cell" >
   <crystal>
    <varray name="basis" >
     <v>       0.00000000      12.28047342       0.00000000 </v>
     <v>       9.14270205       0.00000000       0.00000000 </v>
     <v>       0.00000000      -2.76826177     -11.30069772 </v>
    </varray>
    <i name="volume">   1268.80515525 </i>
    <varray name="rec_basis" >
     <v>       0.00000000       0.08143009      -0.01994742 </v>
     <v>       0.10937686      -0.00000000       0.00000000 </v>
     <v>       0.00000000       0.00000000      -0.08849011 </v>
    </varray>
   </crystal>
   <varray name="positions" >
    <v>       0.65883830       0.00000000       0.15736517 </v>
    <v>       0.65883830       0.00000000       0.65736517 </v>
    <v>       0.65883830       0.33333333       0.15736517 </v>
    <v>       0.65883830       0.33333333       0.65736517 </v>
    <v>       0.65883830       0.66666667       0.15736517 </v>
    <v>       0.65883830       0.66666667       0.65736517 </v>
    <v>       0.84116170       0.16666667       0.34263483 </v>
    <v>       0.84116170       0.16666667       0.84263483 </v>
    <v>       0.84116170       0.50000000       0.34263483 </v>
    <v>       0.84116170       0.50000000       0.84263483 </v>
    <v>       0.84116170       0.83333333       0.34263483 </v>
    <v>       0.84116170       0.83333333       0.84263483 </v>
    <v>       0.59047440       0.16666667       0.39739300 </v>
    <v>       0.59047440       0.16666667       0.89739300 </v>
    <v>       0.59047440       0.50000000       0.39739300 </v>
    <v>       0.59047440       0.50000000       0.89739300 </v>
    <v>       0.59047440       0.83333333       0.39739300 </v>
    <v>       0.59047440       0.83333333       0.89739300 </v>
    <v>       0.90952560       0.00000000       0.10260700 </v>
    <v>       0.90952560       0.00000000       0.60260700 </v>
    <v>       0.90952560       0.33333333       0.10260700 </v>
    <v>       0.90952560       0.33333333       0.60260700 </v>
    <v>       0.90952560       0.66666667       0.10260700 </v>
    <v>       0.90952560       0.66666667       0.60260700 </v>
    <v>       0.15883830       0.16666667       0.15736517 </v>
    <v>       0.15883830       0.16666667       0.65736517 </v>
    <v>       0.15883830       0.50000000       0.15736517 </v>
    <v>       0.15883830       0.50000000       0.65736517 </v>
    <v>       0.15883830       0.83333333       0.15736517 </v>
    <v>       0.15883830       0.83333333       0.65736517 </v>
    <v>       0.34116170       0.00000000       0.34263483 </v>
    <v>       0.34116170       0.00000000       0.84263483 </v>
    <v>       0.34116170       0.33333333       0.34263483 </v>
    <v>       0.34116170       0.33333333       0.84263483 </v>
    <v>       0.34116170       0.66666667       0.34263483 </v>
    <v>       0.34116170       0.66666667       0.84263483 </v>
    <v>       0.09047440       0.00000000       0.39739300 </v>
    <v>       0.09047440       0.00000000       0.89739300 </v>
    <v>       0.09047440       0.33333333       0.39739300 </v>
    <v>       0.09047440       0.33333333       0.89739300 </v>
    <v>       0.09047440       0.66666667       0.39739300 </v>
    <v>       0.09047440       0.66666667       0.89739300 </v>
    <v>       0.40952560       0.16666667       0.10260700 </v>
    <v>       0.40952560       0.16666667       0.60260700 </v>
    <v>       0.40952560       0.50000000       0.10260700 </v>
    <v>       0.40952560       0.50000000       0.60260700 </v>
    <v>       0.40952560       0.83333333       0.10260700 </v>
    <v>       0.40952560       0.83333333       0.60260700 </v>
    <v>       0.99646913       0.16666667       0.12833205 </v>
    <v>       0.99646913       0.16666667       0.62833205 </v>
    <v>       0.99646913       0.50000000       0.12833205 </v>
    <v>       0.99646913       0.50000000       0.62833205 </v>
    <v>       0.99646913       0.83333333       0.12833205 </v>
    <v>       0.99646913       0.83333333       0.62833205 </v>
    <v>       0.50353087       0.00000000       0.37166795 </v>
    <v>       0.50353087       0.00000000       0.87166795 </v>
    <v>       0.50353087       0.33333333       0.37166795 </v>
    <v>       0.50353087       0.33333333       0.87166795 </v>
    <v>       0.50353087       0.66666667       0.37166795 </v>
    <v>       0.50353087       0.66666667       0.87166795 </v>
    <v>       0.67337106       0.16666667       0.28161508 </v>
    <v>       0.67337106       0.16666667       0.78161508 </v>
    <v>       0.67337106       0.50000000       0.28161508 </v>
    <v>       0.67337106       0.50000000       0.78161508 </v>
    <v>       0.67337106       0.83333333       0.28161508 </v>
    <v>       0.67337106       0.83333333       0.78161508 </v>
    <v>       0.82662894       0.00000000       0.21838492 </v>
    <v>       0.82662894       0.00000000       0.71838492 </v>
    <v>       0.82662894       0.33333333       0.21838492 </v>
    <v>       0.82662894       0.33333333       0.71838492 </v>
    <v>       0.82662894       0.66666667       0.21838492 </v>
    <v>       0.82662894       0.66666667       0.71838492 </v>
    <v>       0.83549502       0.00000000       0.44542296 </v>
    <v>       0.83549502       0.00000000       0.94542296 </v>
    <v>       0.83549502       0.33333333       0.44542296 </v>
    <v>       0.83549502       0.33333333       0.94542296 </v>
    <v>       0.83549502       0.66666667       0.44542296 </v>
    <v>       0.83549502       0.66666667       0.94542296 </v>
    <v>       0.66450498       0.16666667       0.05457704 </v>
    <v>       0.66450498       0.16666667       0.55457704 </v>
    <v>       0.66450498       0.50000000       0.05457704 </v>
    <v>       0.66450498       0.50000000       0.55457704 </v>
    <v>       0.66450498       0.83333333       0.05457704 </v>
    <v>       0.66450498       0.83333333       0.55457704 </v>
    <v>       0.49646913       0.00000000       0.12833205 </v>
    <v>       0.49646913       0.00000000       0.62833205 </v>
    <v>       0.49646913       0.33333333       0.12833205 </v>
    <v>       0.49646913       0.33333333       0.62833205 </v>
    <v>       0.49646913       0.66666667       0.12833205 </v>
    <v>       0.49646913       0.66666667       0.62833205 </v>
    <v>       0.00353087       0.16666667       0.37166795 </v>
    <v>       0.00353087       0.16666667       0.87166795 </v>
    <v>       0.00353087       0.50000000       0.37166795 </v>
    <v>       0.00353087       0.50000000       0.87166795 </v>
    <v>       0.00353087       0.83333333       0.37166795 </v>
    <v>       0.00353087       0.83333333       0.87166795 </v>
    <v>       0.17337106       0.00000000       0.78161508 </v>
    <v>       0.17337106       0.33333333       0.28161508 </v>
    <v>       0.17337106       0.33333333       0.78161508 </v>
    <v>       0.17337106       0.66666667       0.28161508 </v>
    <v>       0.17337106       0.66666667       0.78161508 </v>
    <v>       0.32662894       0.16666667       0.21838492 </v>
    <v>       0.32662894       0.16666667       0.71838492 </v>
    <v>       0.32662894       0.50000000       0.21838492 </v>
    <v>       0.32662894       0.50000000       0.71838492 </v>
    <v>       0.32662894       0.83333333       0.21838492 </v>
    <v>       0.32662894       0.83333333       0.71838492 </v>
    <v>       0.33549502       0.16666667       0.44542296 </v>
    <v>       0.33549502       0.16666667       0.94542296 </v>
    <v>       0.33549502       0.50000000       0.44542296 </v>
    <v>       0.33549502       0.50000000       0.94542296 </v>
    <v>       0.33549502       0.83333333       0.44542296 </v>
    <v>       0.33549502       0.83333333       0.94542296 </v>
    <v>       0.16450498       0.00000000       0.05457704 </v>
    <v>       0.16450498       0.00000000       0.55457704 </v>
    <v>       0.16450498       0.33333333       0.05457704 </v>
    <v>       0.16450498       0.33333333       0.55457704 </v>
    <v>       0.16450498       0.66666667       0.05457704 </v>
    <v>       0.16450498       0.66666667       0.55457704 </v>
    <v>       0.17337106       0.00000000       0.28161508 </v>
   </varray>
  </structure>
  <varray name="primitive_index" >
   <v type="int" >        1 </v>
   <v type="int" >        2 </v>
   <v type="int" >        3 </v>
   <v type="int" >        4 </v>
   <v type="int" >        5 </v>
   <v type="int" >        6 </v>
   <v type="int" >        7 </v>
   <v type="int" >        8 </v>
   <v type="int" >        9 </v>
   <v type="int" >       10 </v>
   <v type="int" >       11 </v>
   <v type="int" >       12 </v>
   <v type="int" >       13 </v>
   <v type="int" >       14 </v>
   <v type="int" >       15 </v>
   <v type="int" >       16 </v>
   <v type="int" >       17 </v>
   <v type="int" >       18 </v>
   <v type="int" >       19 </v>
   <v type="int" >       20 </v>
   <v type="int" >       21 </v>
   <v type="int" >       22 </v>
   <v type="int" >       23 </v>
   <v type="int" >       24 </v>
   <v type="int" >       25 </v>
   <v type="int" >       26 </v>
   <v type="int" >       27 </v>
   <v type="int" >       28 </v>
   <v type="int" >       29 </v>
   <v type="int" >       30 </v>
   <v type="int" >       31 </v>
   <v type="int" >       32 </v>
   <v type="int" >       33 </v>
   <v type="int" >       34 </v>
   <v type="int" >       35 </v>
   <v type="int" >       36 </v>
   <v type="int" >       37 </v>
   <v type="int" >       38 </v>
   <v type="int" >       39 </v>
   <v type="int" >       40 </v>
   <v type="int" >       41 </v>
   <v type="int" >       42 </v>
   <v type="int" >       43 </v>
   <v type="int" >       44 </v>
   <v type="int" >       45 </v>
   <v type="int" >       46 </v>
   <v type="int" >       47 </v>
   <v type="int" >       48 </v>
   <v type="int" >       49 </v>
   <v type="int" >       50 </v>
   <v type="int" >       51 </v>
   <v type="int" >       52 </v>
   <v type="int" >       53 </v>
   <v type="int" >       54 </v>
   <v type="int" >       55 </v>
   <v type="int" >       56 </v>
   <v type="int" >       57 </v>
   <v type="int" >       58 </v>
   <v type="int" >       59 </v>
   <v type="int" >       60 </v>
   <v type="int" >       61 </v>
   <v type="int" >       62 </v>
   <v type="int" >       63 </v>
   <v type="int" >       64 </v>
   <v type="int" >       65 </v>
   <v type="int" >       66 </v>
   <v type="int" >       67 </v>
   <v type="int" >       68 </v>
   <v type="int" >       69 </v>
   <v type="int" >       70 </v>
   <v type="int" >       71 </v>
   <v type="int" >       72 </v>
   <v type="int" >       73 </v>
   <v type="int" >       74 </v>
   <v type="int" >       75 </v>
   <v type="int" >       76 </v>
   <v type="int" >       77 </v>
   <v type="int" >       78 </v>
   <v type="int" >       79 </v>
   <v type="int" >       80 </v>
   <v type="int" >       81 </v>
   <v type="int" >       82 </v>
   <v type="int" >       83 </v>
   <v type="int" >       84 </v>
   <v type="int" >       85 </v>
   <v type="int" >       86 </v>
   <v type="int" >       87 </v>
   <v type="int" >       88 </v>
   <v type="int" >       89 </v>
   <v type="int" >       90 </v>
   <v type="int" >       91 </v>
   <v type="int" >       92 </v>
   <v type="int" >       93 </v>
   <v type="int" >       94 </v>
   <v type="int" >       95 </v>
   <v type="int" >       96 </v>
   <v type="int" >       97 </v>
   <v type="int" >       98 </v>
   <v type="int" >       99 </v>
   <v type="int" >      100 </v>
   <v type="int" >      101 </v>
   <v type="int" >      102 </v>
   <v type="int" >      103 </v>
   <v type="int" >      104 </v>
   <v type="int" >      105 </v>
   <v type="int" >      106 </v>
   <v type="int" >      107 </v>
   <v type="int" >      108 </v>
   <v type="int" >      109 </v>
   <v type="int" >      110 </v>
   <v type="int" >      111 </v>
   <v type="int" >      112 </v>
   <v type="int" >      113 </v>
   <v type="int" >      114 </v>
   <v type="int" >      115 </v>
   <v type="int" >      116 </v>
   <v type="int" >      117 </v>
   <v type="int" >      118 </v>
   <v type="int" >      119 </v>
   <v type="int" >      120 </v>
  </varray>
 </primitive_cell>
 <kpoints>
  <generation param="Gamma">
   <v type="int" name="divisions">       2        2        2 </v>
   <v name="usershift">      0.00000000       0.00000000       0.00000000 </v>
   <v name="genvec1">      0.50000000       0.00000000       0.00000000 </v>
   <v name="genvec2">      0.00000000       0.50000000       0.00000000 </v>
   <v name="genvec3">      0.00000000       0.00000000       0.50000000 </v>
   <v name="shift">      0.00000000       0.00000000       0.00000000 </v>
  </generation>
  <varray name="kpointlist" >
   <v>       0.00000000       0.00000000       0.00000000 </v>
   <v>       0.50000000       0.00000000       0.00000000 </v>
   <v>       0.00000000       0.50000000       0.00000000 </v>
   <v>       0.50000000       0.50000000       0.00000000 </v>
   <v>       0.00000000       0.00000000       0.50000000 </v>
   <v>       0.50000000       0.00000000       0.50000000 </v>
   <v>       0.00000000       0.50000000       0.50000000 </v>
   <v>       0.50000000       0.50000000       0.50000000 </v>
  </varray>
  <varray name="weights" >
   <v>       0.12500000 </v>
   <v>       0.12500000 </v>
   <v>       0.12500000 </v>
   <v>       0.12500000 </v>
   <v>       0.12500000 </v>
   <v>       0.12500000 </v>
   <v>       0.12500000 </v>
   <v>       0.12500000 </v>
  </varray>
 </kpoints>
 <parameters>
  <separator name="general" >
   <i type="string" name="SYSTEM">unknown system</i>
   <i type="logical" name="LCOMPAT"> F  </i>
  </separator>
  <separator name="electronic" >
   <i type="string" name="PREC">normal</i>
   <i name="ENMAX">    450.00000000</i>
   <i name="ENAUG">    605.39200000</i>
   <i name="EDIFF">      0.00001000</i>
   <i type="int" name="IALGO">    68</i>
   <i type="int" name="IWAVPR">    11</i>
   <i type="int" name="NBANDS">   633</i>
   <i type="int" name="NBANDSLOW">    -1</i>
   <i type="int" name="NBANDSHIGH">    -1</i>
   <i name="NELECT">   1056.00000000</i>
   <i type="int" name="TURBO">     0</i>
   <i type="int" name="IRESTART">     0</i>
   <i type="int" name="NREBOOT">     0</i>
   <i type="int" name="NMIN">     0</i>
   <i name="EREF">      0.00000000</i>
   <separator name="electronic smearing" >
    <i type="int" name="ISMEAR">     0</i>
    <i name="SIGMA">      0.05000000</i>
    <i name="KSPACING">      0.50000000</i>
    <i type="logical" name="KGAMMA"> T  </i>
    <i type="logical" name="KBLOWUP"> T  </i>
   </separator>
   <separator name="electronic projectors" >
    <i type="logical" name="LREAL"> T  </i>
    <v name="ROPT">     -0.00050000     -0.00050000     -0.00050000</v>
    <i type="int" name="LMAXPAW">  -100</i>
    <i type="int" name="LMAXMIX">     2</i>
    <i type="logical" name="NLSPLINE"> F  </i>
   </separator>
   <separator name="electronic startup" >
    <i type="int" name="ISTART">     0</i>
    <i type="int" name="ICHARG">     2</i>
    <i type="int" name="INIWAV">     1</i>
   </separator>
   <separator name="electronic spin" >
    <i type="int" name="ISPIN">     1</i>
    <i type="logical" name="LNONCOLLINEAR"> F  </i>
    <v name="MAGMOM">      1.00000000      1.00000000      1.00000000      1.00000000      1.00000000      1.00000000      1.00000000      1.00000000      1.00000000      1.00000000      1.00000000      1.00000000      1.00000000      1.00000000      1.00000000      1.00000000      1.00000000      1.00000000      1.00000000      1.00000000
      1.00000000      1.00000000      1.00000000      1.00000000      1.00000000      1.00000000      1.00000000      1.00000000      1.00000000      1.00000000      1.00000000      1.00000000      1.00000000      1.00000000      1.00000000      1.00000000      1.00000000      1.00000000      1.00000000      1.00000000
      1.00000000      1.00000000      1.00000000      1.00000000      1.00000000      1.00000000      1.00000000      1.00000000      1.00000000      1.00000000      1.00000000      1.00000000      1.00000000      1.00000000      1.00000000      1.00000000      1.00000000      1.00000000      1.00000000      1.00000000
      1.00000000      1.00000000      1.00000000      1.00000000      1.00000000      1.00000000      1.00000000      1.00000000      1.00000000      1.00000000      1.00000000      1.00000000      1.00000000      1.00000000      1.00000000      1.00000000      1.00000000      1.00000000      1.00000000      1.00000000
      1.00000000      1.00000000      1.00000000      1.00000000      1.00000000      1.00000000      1.00000000      1.00000000      1.00000000      1.00000000      1.00000000      1.00000000      1.00000000      1.00000000      1.00000000      1.00000000      1.00000000      1.00000000      1.00000000      1.00000000
      1.00000000      1.00000000      1.00000000      1.00000000      1.00000000      1.00000000      1.00000000      1.00000000      1.00000000      1.00000000      1.00000000      1.00000000      1.00000000      1.00000000      1.00000000      1.00000000      1.00000000      1.00000000      1.00000000      1.00000000
</v>
    <i name="NUPDOWN">     -1.00000000</i>
    <i type="logical" name="LSORBIT"> F  </i>
    <v name="SAXIS">      0.00000000      0.00000000      1.00000000</v>
    <i type="logical" name="LSPIRAL"> F  </i>
    <v name="QSPIRAL">      0.00000000      0.00000000      0.00000000</v>
    <i type="logical" name="LZEROZ"> F  </i>
   </separator>
   <separator name="electronic exchange-correlation" >
    <i type="logical" name="LASPH"> F  </i>
    <i type="logical" name="LMETAGGA"> F  </i>
   </separator>
   <separator name="electronic convergence" >
    <i type="int" name="NELM">    60</i>
    <i type="int" name="NELMDL">    -5</i>
    <i type="int" name="NELMIN">     2</i>
    <i name="ENINI">    450.00000000</i>
    <separator name="electronic convergence detail" >
     <i type="logical" name="LDIAG"> T  </i>
     <i type="logical" name="LSUBROT"> F  </i>
     <i name="WEIMIN">      0.00100000</i>
     <i name="EBREAK">      0.00000000</i>
     <i name="DEPER">      0.30000000</i>
     <i type="int" name="NRMM">     4</i>
     <i name="TIME">      0.40000000</i>
    </separator>
   </separator>
   <separator name="electronic mixer" >
    <i name="AMIX">      0.40000000</i>
    <i name="BMIX">      1.00000000</i>
    <i name="AMIN">      0.10000000</i>
    <i name="AMIX_MAG">      1.60000000</i>
    <i name="BMIX_MAG">      1.00000000</i>
    <separator name="electronic mixer details" >
     <i type="int" name="IMIX">     4</i>
     <i type="logical" name="MIXFIRST"> F  </i>
     <i type="int" name="MAXMIX">   -45</i>
     <i name="WC">    100.00000000</i>
     <i type="int" name="INIMIX">     1</i>
     <i type="int" name="MIXPRE">     1</i>
     <i type="int" name="MREMOVE">     5</i>
    </separator>
   </separator>
   <separator name="electronic dipolcorrection" >
    <i type="logical" name="LDIPOL"> F  </i>
    <i type="logical" name="LMONO"> F  </i>
    <i type="int" name="IDIPOL">     0</i>
    <i name="EPSILON">      1.00000000</i>
    <v name="DIPOL">   -100.00000000   -100.00000000   -100.00000000</v>
    <i name="EFIELD">      0.00000000</i>
   </separator>
  </separator>
  <separator name="grids" >
   <i type="int" name="NGX">    64</i>
   <i type="int" name="NGY">    48</i>
   <i type="int" name="NGZ">    60</i>
   <i type="int" name="NGXF">   128</i>
   <i type="int" name="NGYF">    96</i>
   <i type="int" name="NGZF">   120</i>
   <i type="logical" name="ADDGRID"> F  </i>
  </separator>
  <separator name="ionic" >
   <i type="int" name="NSW">   300</i>
   <i type="int" name="IBRION">     2</i>
   <i type="int" name="MDALGO">     0</i>
   <i type="int" name="ISIF">     2</i>
   <i name="PSTRESS">      0.00000000</i>
   <i name="EDIFFG">     -0.00500000</i>
   <i type="int" name="NFREE">     1</i>
   <i name="POTIM">      0.50000000</i>
   <i name="SMASS">     -3.00000000</i>
   <i name="SCALEE">      1.00000000</i>
  </separator>
  <separator name="ionic md" >
   <i name="TEBEG">      0.00010000</i>
   <i name="TEEND">      0.00010000</i>
   <i type="int" name="NBLOCK">     1</i>
   <i type="int" name="KBLOCK">   300</i>
   <i type="int" name="NPACO">   256</i>
   <i name="APACO">     10.00000000</i>
  </separator>
  <separator name="symmetry" >
   <i type="int" name="ISYM">     2</i>
   <i name="SYMPREC">      0.00001000</i>
  </separator>
  <separator name="dos" >
   <i type="int" name="LORBIT">     0</i>
   <v name="RWIGS">     -1.00000000     -1.00000000     -1.00000000</v>
   <i type="int" name="NEDOS">   301</i>
   <i name="EMIN">     10.00000000</i>
   <i name="EMAX">    -10.00000000</i>
   <i name="EFERMI">      0.00000000</i>
  </separator>
  <separator name="writing" >
   <i type="int" name="NWRITE">     2</i>
   <i type="logical" name="LWAVE"> F  </i>
   <i type="logical" name="LDOWNSAMPLE"> F  </i>
   <i type="logical" name="LCHARG"> F  </i>
   <i type="logical" name="LPARD"> F  </i>
   <i type="logical" name="LVTOT"> F  </i>
   <i type="logical" name="LVHAR"> F  </i>
   <i type="logical" name="LELF"> F  </i>
   <i type="logical" name="LOPTICS"> F  </i>
   <v name="STM">      0.00000000      0.00000000      0.00000000      0.00000000      0.00000000      0.00000000      0.00000000</v>
  </separator>
  <separator name="performance" >
   <i type="int" name="NPAR">     1</i>
   <i type="int" name="NSIM">     4</i>
   <i type="int" name="NBLK">    -1</i>
   <i type="logical" name="LPLANE"> T  </i>
   <i type="logical" name="LSCALAPACK"> T  </i>
   <i type="logical" name="LSCAAWARE"> F  </i>
   <i type="logical" name="LSCALU"> F  </i>
   <i type="logical" name="LASYNC"> F  </i>
   <i type="logical" name="LORBITALREAL"> F  </i>
  </separator>
  <separator name="miscellaneous" >
   <i type="int" name="IDIOT">     3</i>
   <i type="int" name="PHON_NSTRUCT">    -1</i>
   <i type="logical" name="LMUSIC"> F  </i>
   <v name="POMASS">     69.72300000     16.00000000     30.97400000</v>
   <v name="DARWINR">      0.00000000      0.00000000      0.00000000</v>
   <v name="DARWINV">      1.00000000      1.00000000      1.00000000</v>
   <i type="logical" name="LCORR"> T  </i>
  </separator>
  <i type="logical" name="GGA_COMPAT"> T  </i>
  <i type="logical" name="LBERRY"> F  </i>
  <i type="int" name="ICORELEVEL">     0</i>
  <i type="logical" name="LDAU"> F  </i>
  <i type="int" name="I_CONSTRAINED_M">     0</i>
  <separator name="electronic exchange-correlation" >
   <i type="string" name="GGA">--</i>
   <i type="int" name="VOSKOWN">     0</i>
   <i type="logical" name="LHFCALC"> F  </i>
   <i type="string" name="PRECFOCK"></i>
   <i type="logical" name="LSYMGRAD"> F  </i>
   <i type="logical" name="LHFONE"> F  </i>
   <i type="logical" name="LRHFCALC"> F  </i>
   <i type="logical" name="LTHOMAS"> F  </i>
   <i type="logical" name="LMODELHF"> F  </i>
   <i type="logical" name="LFOCKACE"> F  </i>
   <i name="ENCUT4O">     -1.00000000</i>
   <i type="int" name="EXXOEP">     0</i>
   <i type="int" name="FOURORBIT">     0</i>
   <i name="AEXX">      0.00000000</i>
   <i name="HFALPHA">      0.00000000</i>
   <i name="MCALPHA">      0.00000000</i>
   <i name="ALDAX">      1.00000000</i>
   <i name="AGGAX">      1.00000000</i>
   <i name="ALDAC">      1.00000000</i>
   <i name="AGGAC">      1.00000000</i>
   <i type="int" name="NKREDX">     1</i>
   <i type="int" name="NKREDY">     1</i>
   <i type="int" name="NKREDZ">     1</i>
   <i type="logical" name="SHIFTRED"> F  </i>
   <i type="logical" name="ODDONLY"> F  </i>
   <i type="logical" name="EVENONLY"> F  </i>
   <i type="int" name="LMAXFOCK">     0</i>
   <i type="int" name="NMAXFOCKAE">     0</i>
   <i type="logical" name="LFOCKAEDFT"> F  </i>
   <i name="HFSCREEN">      0.00000000</i>
   <i name="HFSCREENC">      0.00000000</i>
   <i type="int" name="NBANDSGWLOW">     0</i>
  </separator>
  <separator name="vdW DFT" >
   <i type="logical" name="LUSE_VDW"> F  </i>
   <i type="int" name="IVDW_NL">     1</i>
   <i type="logical" name="LSPIN_VDW"> F  </i>
   <i name="Zab_VDW">     -0.84910000</i>
   <i name="PARAM1">      0.12340000</i>
   <i name="PARAM2">      1.00000000</i>
   <i name="PARAM3">      0.00000000</i>
  </separator>
  <separator name="model GW" >
   <i type="int" name="MODEL_GW">     0</i>
   <i name="MODEL_EPS0">      6.34402578</i>
   <i name="MODEL_ALPHA">      1.00000000</i>
  </separator>
  <separator name="linear response parameters" >
   <i type="logical" name="LEPSILON"> F  </i>
   <i type="logical" name="LRPA"> F  </i>
   <i type="logical" name="LNABLA"> F  </i>
   <i type="logical" name="LVEL"> F  </i>
   <i name="CSHIFT">      0.10000000</i>
   <i name="OMEGAMAX">     -1.00000000</i>
   <i name="DEG_THRESHOLD">      0.00200000</i>
   <i name="RTIME">     -0.10000000</i>
   <i name="WPLASMAI">      0.00000000</i>
   <v name="DFIELD">      0.00000000      0.00000000      0.00000000</v>
   <v name="WPLASMA">      0.00000000      0.00000000      0.00000000      0.00000000      0.00000000      0.00000000      0.00000000      0.00000000      0.00000000</v>
  </separator>
  <separator name="orbital magnetization" >
   <i type="logical" name="NUCIND"> F  </i>
   <v name="MAGPOS">      0.00000000      0.00000000      0.00000000</v>
   <i type="logical" name="LNICSALL"> T  </i>
   <i type="logical" name="ORBITALMAG"> F  </i>
   <i type="logical" name="LMAGBLOCH"> F  </i>
   <i type="logical" name="LCHIMAG"> F  </i>
   <i type="logical" name="LGAUGE"> T  </i>
   <i type="int" name="MAGATOM">     0</i>
   <v name="MAGDIPOL">      0.00000000      0.00000000      0.00000000</v>
   <v name="AVECCONST">      0.00000000      0.00000000      0.00000000</v>
  </separator>
  <separator name="response functions" >
   <i type="logical" name="LALL_IN_ONE"> F  </i>
   <i type="int" name="IALL_IN_ONE">    -1</i>
   <i type="int" name="NBANDS_WAVE">    -1</i>
   <i type="logical" name="LFINITE_TEMPERATURE"> F  </i>
   <i type="logical" name="LADDER"> F  </i>
   <i type="logical" name="LRPAFORCE"> F  </i>
   <i type="logical" name="LFXC"> F  </i>
   <i type="logical" name="LHARTREE"> T  </i>
   <i type="int" name="IBSE">     0</i>
   <v type="int" name="KPOINT">    -1     0     0     0</v>
   <i type="logical" name="LTCTC"> F  </i>
   <i type="logical" name="LTCTE"> F  </i>
   <i type="logical" name="LTETE"> F  </i>
   <i type="logical" name="LTRIPLET"> F  </i>
   <i type="logical" name="LFXCEPS"> F  </i>
   <i type="logical" name="LFXHEG"> F  </i>
   <i type="int" name="NATURALO">     2</i>
   <i type="logical" name="LHOLEGF"> F  </i>
   <i type="logical" name="L2ORDER"> F  </i>
   <i type="logical" name="LDMP1"> F  </i>
   <i type="logical" name="LMP2LT"> F  </i>
   <i type="logical" name="LSMP2LT"> F  </i>
   <i type="logical" name="LGWLF"> F  </i>
   <i name="ENCUTGW">     -1.60000002</i>
   <i name="ENCUTGWSOFT">     -1.60000002</i>
   <i name="ENCUTLF">     -1.00000000</i>
   <i type="logical" name="LESF_SPLINES"> F  </i>
   <i type="int" name="LMAXMP2">    -1</i>
   <i name="SCISSOR">      0.00000000</i>
   <i type="int" name="NOMEGA">     0</i>
   <i type="int" name="NOMEGAR">     0</i>
   <i type="int" name="NBANDSGW">    -1</i>
   <i type="int" name="NBANDSO">    -1</i>
   <i type="int" name="NBANDSV">    -1</i>
   <i type="int" name="NELMGW">     1</i>
   <i type="int" name="NELMHF">     1</i>
   <i type="int" name="DIM">     3</i>
   <i type="int" name="IESPILON">     4</i>
   <i type="int" name="ANTIRES">     0</i>
   <i name="OMEGAMAX">    -30.00000000</i>
   <i name="OMEGAMIN">    -30.00000000</i>
   <i name="OMEGATL">   -200.00000000</i>
   <i type="int" name="OMEGAGRID">     0</i>
   <i name="CSHIFT">     -0.10000000</i>
   <i type="logical" name="LSELFENERGY"> F  </i>
   <i type="logical" name="LSPECTRAL"> F  </i>
   <i type="logical" name="LSPECTRALGW"> F  </i>
   <i type="logical" name="LSINGLES"> F  </i>
   <i type="logical" name="LFERMIGW"> F  </i>
   <i type="logical" name="ODDONLYGW"> F  </i>
   <i type="logical" name="EVENONLYGW"> F  </i>
   <i type="int" name="NKREDLFX">     1</i>
   <i type="int" name="NKREDLFY">     1</i>
   <i type="int" name="NKREDLFZ">     1</i>
   <i type="int" name="MAXMEM">  2800</i>
   <i type="int" name="TELESCOPE">     0</i>
   <i type="int" name="NTAUPAR">    -1</i>
   <i type="int" name="NOMEGAPAR">    -1</i>
   <i name="DAMP_NEWTON">      0.80000001</i>
   <i name="LAMBDA">      1.00000000</i>
  </separator>
  <separator name="External order field" >
   <i name="OFIELD_KAPPA">      0.00000000</i>
   <v name="OFIELD_K">      0.00000000      0.00000000      0.00000000</v>
   <i name="OFIELD_Q6_NEAR">      0.00000000</i>
   <i name="OFIELD_Q6_FAR">      0.00000000</i>
   <i name="OFIELD_A">      0.00000000</i>
  </separator>
  <separator name="optional k-points parameters" >
   <i type="int" name="KPOINTS_OPT_MODE">     1</i>
   <i type="logical" name="LKPOINTS_OPT"> F  </i>
  </separator>
 </parameters>
 <atominfo>
  <atoms>     120 </atoms>
  <types>       3 </types>
  <array name="atoms" >
   <dimension dim="1">ion</dimension>
   <field type="string">element</field>
   <field type="int">atomtype</field>
   <set>
    <rc><c>Ga</c><c>   1</c></rc>
    <rc><c>Ga</c><c>   1</c></rc>
    <rc><c>Ga</c><c>   1</c></rc>
    <rc><c>Ga</c><c>   1</c></rc>
    <rc><c>Ga</c><c>   1</c></rc>
    <rc><c>Ga</c><c>   1</c></rc>
    <rc><c>Ga</c><c>   1</c></rc>
    <rc><c>Ga</c><c>   1</c></rc>
    <rc><c>Ga</c><c>   1</c></rc>
    <rc><c>Ga</c><c>   1</c></rc>
    <rc><c>Ga</c><c>   1</c></rc>
    <rc><c>Ga</c><c>   1</c></rc>
    <rc><c>Ga</c><c>   1</c></rc>
    <rc><c>Ga</c><c>   1</c></rc>
    <rc><c>Ga</c><c>   1</c></rc>
    <rc><c>Ga</c><c>   1</c></rc>
    <rc><c>Ga</c><c>   1</c></rc>
    <rc><c>Ga</c><c>   1</c></rc>
    <rc><c>Ga</c><c>   1</c></rc>
    <rc><c>Ga</c><c>   1</c></rc>
    <rc><c>Ga</c><c>   1</c></rc>
    <rc><c>Ga</c><c>   1</c></rc>
    <rc><c>Ga</c><c>   1</c></rc>
    <rc><c>Ga</c><c>   1</c></rc>
    <rc><c>Ga</c><c>   1</c></rc>
    <rc><c>Ga</c><c>   1</c></rc>
    <rc><c>Ga</c><c>   1</c></rc>
    <rc><c>Ga</c><c>   1</c></rc>
    <rc><c>Ga</c><c>   1</c></rc>
    <rc><c>Ga</c><c>   1</c></rc>
    <rc><c>Ga</c><c>   1</c></rc>
    <rc><c>Ga</c><c>   1</c></rc>
    <rc><c>Ga</c><c>   1</c></rc>
    <rc><c>Ga</c><c>   1</c></rc>
    <rc><c>Ga</c><c>   1</c></rc>
    <rc><c>Ga</c><c>   1</c></rc>
    <rc><c>Ga</c><c>   1</c></rc>
    <rc><c>Ga</c><c>   1</c></rc>
    <rc><c>Ga</c><c>   1</c></rc>
    <rc><c>Ga</c><c>   1</c></rc>
    <rc><c>Ga</c><c>   1</c></rc>
    <rc><c>Ga</c><c>   1</c></rc>
    <rc><c>Ga</c><c>   1</c></rc>
    <rc><c>Ga</c><c>   1</c></rc>
    <rc><c>Ga</c><c>   1</c></rc>
    <rc><c>Ga</c><c>   1</c></rc>
    <rc><c>Ga</c><c>   1</c></rc>
    <rc><c>Ga</c><c>   1</c></rc>
    <rc><c>O </c><c>   2</c></rc>
    <rc><c>O </c><c>   2</c></rc>
    <rc><c>O </c><c>   2</c></rc>
    <rc><c>O </c><c>   2</c></rc>
    <rc><c>O </c><c>   2</c></rc>
    <rc><c>O </c><c>   2</c></rc>
    <rc><c>O </c><c>   2</c></rc>
    <rc><c>O </c><c>   2</c></rc>
    <rc><c>O </c><c>   2</c></rc>
    <rc><c>O </c><c>   2</c></rc>
    <rc><c>O </c><c>   2</c></rc>
    <rc><c>O </c><c>   2</c></rc>
    <rc><c>O </c><c>   2</c></rc>
    <rc><c>O </c><c>   2</c></rc>
    <rc><c>O </c><c>   2</c></rc>
    <rc><c>O </c><c>   2</c></rc>
    <rc><c>O </c><c>   2</c></rc>
    <rc><c>O </c><c>   2</c></rc>
    <rc><c>O </c><c>   2</c></rc>
    <rc><c>O </c><c>   2</c></rc>
    <rc><c>O </c><c>   2</c></rc>
    <rc><c>O </c><c>   2</c></rc>
    <rc><c>O </c><c>   2</c></rc>
    <rc><c>O </c><c>   2</c></rc>
    <rc><c>O </c><c>   2</c></rc>
    <rc><c>O </c><c>   2</c></rc>
    <rc><c>O </c><c>   2</c></rc>
    <rc><c>O </c><c>   2</c></rc>
    <rc><c>O </c><c>   2</c></rc>
    <rc><c>O </c><c>   2</c></rc>
    <rc><c>O </c><c>   2</c></rc>
    <rc><c>O </c><c>   2</c></rc>
    <rc><c>O </c><c>   2</c></rc>
    <rc><c>O </c><c>   2</c></rc>
    <rc><c>O </c><c>   2</c></rc>
    <rc><c>O </c><c>   2</c></rc>
    <rc><c>O </c><c>   2</c></rc>
    <rc><c>O </c><c>   2</c></rc>
    <rc><c>O </c><c>   2</c></rc>
    <rc><c>O </c><c>   2</c></rc>
    <rc><c>O </c><c>   2</c></rc>
    <rc><c>O </c><c>   2</c></rc>
    <rc><c>O </c><c>   2</c></rc>
    <rc><c>O </c><c>   2</c></rc>
    <rc><c>O </c><c>   2</c></rc>
    <rc><c>O </c><c>   2</c></rc>
    <rc><c>O </c><c>   2</c></rc>
    <rc><c>O </c><c>   2</c></rc>
    <rc><c>O </c><c>   2</c></rc>
    <rc><c>O </c><c>   2</c></rc>
    <rc><c>O </c><c>   2</c></rc>
    <rc><c>O </c><c>   2</c></rc>
    <rc><c>O </c><c>   2</c></rc>
    <rc><c>O </c><c>   2</c></rc>
    <rc><c>O </c><c>   2</c></rc>
    <rc><c>O </c><c>   2</c></rc>
    <rc><c>O </c><c>   2</c></rc>
    <rc><c>O </c><c>   2</c></rc>
    <rc><c>O </c><c>   2</c></rc>
    <rc><c>O </c><c>   2</c></rc>
    <rc><c>O </c><c>   2</c></rc>
    <rc><c>O </c><c>   2</c></rc>
    <rc><c>O </c><c>   2</c></rc>
    <rc><c>O </c><c>   2</c></rc>
    <rc><c>O </c><c>   2</c></rc>
    <rc><c>O </c><c>   2</c></rc>
    <rc><c>O </c><c>   2</c></rc>
    <rc><c>O </c><c>   2</c></rc>
    <rc><c>O </c><c>   2</c></rc>
    <rc><c>O </c><c>   2</c></rc>
    <rc><c>O </c><c>   2</c></rc>
    <rc><c>P </c><c>   3</c></rc>
   </set>
  </array>
  <array name="atomtypes" >
   <dimension dim="1">type</dimension>
   <field type="int">atomspertype</field>
   <field type="string">element</field>
   <field>mass</field>
   <field>valence</field>
   <field type="string">pseudopotential</field>
   <set>
    <rc><c>  48</c><c>Ga</c><c>     69.72300000</c><c>     13.00000000</c><c>  PAW_PBE Ga_d 06Jul2010                </c></rc>
    <rc><c>  71</c><c>O </c><c>     16.00000000</c><c>      6.00000000</c><c>   PAW_PBE O 08Apr2002                  </c></rc>
    <rc><c>   1</c><c>P </c><c>     30.97400000</c><c>      5.00000000</c><c>  PAW_PBE P 06Sep2000                   </c></rc>
   </set>
  </array>
 </atominfo>
 <structure name="initialpos" >
  <crystal>
   <varray name="basis" >
    <v>       0.00000000      12.28047342       0.00000000 </v>
    <v>       9.14270205       0.00000000       0.00000000 </v>
    <v>       0.00000000      -2.76826177     -11.30069772 </v>
   </varray>
   <i name="volume">   1268.80515525 </i>
   <varray name="rec_basis" >
    <v>       0.00000000       0.08143009      -0.01994742 </v>
    <v>       0.10937686      -0.00000000       0.00000000 </v>
    <v>       0.00000000       0.00000000      -0.08849011 </v>
   </varray>
  </crystal>
  <varray name="positions" >
   <v>       0.65883830       0.00000000       0.15736517 </v>
   <v>       0.65883830       0.00000000       0.65736517 </v>
   <v>       0.65883830       0.33333333       0.15736517 </v>
   <v>       0.65883830       0.33333333       0.65736517 </v>
   <v>       0.65883830       0.66666667       0.15736517 </v>
   <v>       0.65883830       0.66666667       0.65736517 </v>
   <v>       0.84116170       0.16666667       0.34263483 </v>
   <v>       0.84116170       0.16666667       0.84263483 </v>
   <v>       0.84116170       0.50000000       0.34263483 </v>
   <v>       0.84116170       0.50000000       0.84263483 </v>
   <v>       0.84116170       0.83333333       0.34263483 </v>
   <v>       0.84116170       0.83333333       0.84263483 </v>
   <v>       0.59047440       0.16666667       0.39739300 </v>
   <v>       0.59047440       0.16666667       0.89739300 </v>
   <v>       0.59047440       0.50000000       0.39739300 </v>
   <v>       0.59047440       0.50000000       0.89739300 </v>
   <v>       0.59047440       0.83333333       0.39739300 </v>
   <v>       0.59047440       0.83333333       0.89739300 </v>
   <v>       0.90952560       0.00000000       0.10260700 </v>
   <v>       0.90952560       0.00000000       0.60260700 </v>
   <v>       0.90952560       0.33333333       0.10260700 </v>
   <v>       0.90952560       0.33333333       0.60260700 </v>
   <v>       0.90952560       0.66666667       0.10260700 </v>
   <v>       0.90952560       0.66666667       0.60260700 </v>
   <v>       0.15883830       0.16666667       0.15736517 </v>
   <v>       0.15883830       0.16666667       0.65736517 </v>
   <v>       0.15883830       0.50000000       0.15736517 </v>
   <v>       0.15883830       0.50000000       0.65736517 </v>
   <v>       0.15883830       0.83333333       0.15736517 </v>
   <v>       0.15883830       0.83333333       0.65736517 </v>
   <v>       0.34116170       0.00000000       0.34263483 </v>
   <v>       0.34116170       0.00000000       0.84263483 </v>
   <v>       0.34116170       0.33333333       0.34263483 </v>
   <v>       0.34116170       0.33333333       0.84263483 </v>
   <v>       0.34116170       0.66666667       0.34263483 </v>
   <v>       0.34116170       0.66666667       0.84263483 </v>
   <v>       0.09047440       0.00000000       0.39739300 </v>
   <v>       0.09047440       0.00000000       0.89739300 </v>
   <v>       0.09047440       0.33333333       0.39739300 </v>
   <v>       0.09047440       0.33333333       0.89739300 </v>
   <v>       0.09047440       0.66666667       0.39739300 </v>
   <v>       0.09047440       0.66666667       0.89739300 </v>
   <v>       0.40952560       0.16666667       0.10260700 </v>
   <v>       0.40952560       0.16666667       0.60260700 </v>
   <v>       0.40952560       0.50000000       0.10260700 </v>
   <v>       0.40952560       0.50000000       0.60260700 </v>
   <v>       0.40952560       0.83333333       0.10260700 </v>
   <v>       0.40952560       0.83333333       0.60260700 </v>
   <v>       0.99646913       0.16666667       0.12833205 </v>
   <v>       0.99646913       0.16666667       0.62833205 </v>
   <v>       0.99646913       0.50000000       0.12833205 </v>
   <v>       0.99646913       0.50000000       0.62833205 </v>
   <v>       0.99646913       0.83333333       0.12833205 </v>
   <v>       0.99646913       0.83333333       0.62833205 </v>
   <v>       0.50353087       0.00000000       0.37166795 </v>
   <v>       0.50353087       0.00000000       0.87166795 </v>
   <v>       0.50353087       0.33333333       0.37166795 </v>
   <v>       0.50353087       0.33333333       0.87166795 </v>
   <v>       0.50353087       0.66666667       0.37166795 </v>
   <v>       0.50353087       0.66666667       0.87166795 </v>
   <v>       0.67337106       0.16666667       0.28161508 </v>
   <v>       0.67337106       0.16666667       0.78161508 </v>
   <v>       0.67337106       0.50000000       0.28161508 </v>
   <v>       0.67337106       0.50000000       0.78161508 </v>
   <v>       0.67337106       0.83333333       0.28161508 </v>
   <v>       0.67337106       0.83333333       0.78161508 </v>
   <v>       0.82662894       0.00000000       0.21838492 </v>
   <v>       0.82662894       0.00000000       0.71838492 </v>
   <v>       0.82662894       0.33333333       0.21838492 </v>
   <v>       0.82662894       0.33333333       0.71838492 </v>
   <v>       0.82662894       0.66666667       0.21838492 </v>
   <v>       0.82662894       0.66666667       0.71838492 </v>
   <v>       0.83549502       0.00000000       0.44542296 </v>
   <v>       0.83549502       0.00000000       0.94542296 </v>
   <v>       0.83549502       0.33333333       0.44542296 </v>
   <v>       0.83549502       0.33333333       0.94542296 </v>
   <v>       0.83549502       0.66666667       0.44542296 </v>
   <v>       0.83549502       0.66666667       0.94542296 </v>
   <v>       0.66450498       0.16666667       0.05457704 </v>
   <v>       0.66450498       0.16666667       0.55457704 </v>
   <v>       0.66450498       0.50000000       0.05457704 </v>
   <v>       0.66450498       0.50000000       0.55457704 </v>
   <v>       0.66450498       0.83333333       0.05457704 </v>
   <v>       0.66450498       0.83333333       0.55457704 </v>
   <v>       0.49646913       0.00000000       0.12833205 </v>
   <v>       0.49646913       0.00000000       0.62833205 </v>
   <v>       0.49646913       0.33333333       0.12833205 </v>
   <v>       0.49646913       0.33333333       0.62833205 </v>
   <v>       0.49646913       0.66666667       0.12833205 </v>
   <v>       0.49646913       0.66666667       0.62833205 </v>
   <v>       0.00353087       0.16666667       0.37166795 </v>
   <v>       0.00353087       0.16666667       0.87166795 </v>
   <v>       0.00353087       0.50000000       0.37166795 </v>
   <v>       0.00353087       0.50000000       0.87166795 </v>
   <v>       0.00353087       0.83333333       0.37166795 </v>
   <v>       0.00353087       0.83333333       0.87166795 </v>
   <v>       0.17337106       0.00000000       0.78161508 </v>
   <v>       0.17337106       0.33333333       0.28161508 </v>
   <v>       0.17337106       0.33333333       0.78161508 </v>
   <v>       0.17337106       0.66666667       0.28161508 </v>
   <v>       0.17337106       0.66666667       0.78161508 </v>
   <v>       0.32662894       0.16666667       0.21838492 </v>
   <v>       0.32662894       0.16666667       0.71838492 </v>
   <v>       0.32662894       0.50000000       0.21838492 </v>
   <v>       0.32662894       0.50000000       0.71838492 </v>
   <v>       0.32662894       0.83333333       0.21838492 </v>
   <v>       0.32662894       0.83333333       0.71838492 </v>
   <v>       0.33549502       0.16666667       0.44542296 </v>
   <v>       0.33549502       0.16666667       0.94542296 </v>
   <v>       0.33549502       0.50000000       0.44542296 </v>
   <v>       0.33549502       0.50000000       0.94542296 </v>
   <v>       0.33549502       0.83333333       0.44542296 </v>
   <v>       0.33549502       0.83333333       0.94542296 </v>
   <v>       0.16450498       0.00000000       0.05457704 </v>
   <v>       0.16450498       0.00000000       0.55457704 </v>
   <v>       0.16450498       0.33333333       0.05457704 </v>
   <v>       0.16450498       0.33333333       0.55457704 </v>
   <v>       0.16450498       0.66666667       0.05457704 </v>
   <v>       0.16450498       0.66666667       0.55457704 </v>
   <v>       0.17337106       0.00000000       0.28161508 </v>
  </varray>
 </structure>
 <calculation>
  <scstep>
   <time name="dav">    1.76    1.76</time>
   <time name="total">    1.90    1.90</time>
   <energy>
    <i name="alphaZ">   5529.70323211 </i>
    <i name="ewald"> -88613.97284171 </i>
    <i name="hartreedc"> -33357.61279048 </i>
    <i name="XCdc">   4126.66573044 </i>
    <i name="pawpsdc"> 101696.24768859 </i>
    <i name="pawaedc">-117826.33756962 </i>
    <i name="eentropy">     -0.01019443 </i>
    <i name="bandstr">  16427.11653467 </i>
    <i name="atom"> 134015.81877255 </i>
    <i name="e_fr_energy">  21997.61856212 </i>
    <i name="e_wo_entrp">  21997.62875655 </i>
    <i name="e_0_energy">  21997.62365933 </i>
   </energy>
  </scstep>
  <scstep>
   <time name="dav">    1.71    1.71</time>
   <time name="total">    1.71    1.71</time>
   <energy>
    <i name="e_fr_energy">   4875.99136873 </i>
    <i name="e_wo_entrp">   4876.01252482 </i>
    <i name="e_0_energy">   4876.00194678 </i>
   </energy>
  </scstep>
  <scstep>
   <time name="dav">    2.11    2.11</time>
   <time name="total">    2.11    2.11</time>
   <energy>
    <i name="e_fr_energy">   -139.58308347 </i>
    <i name="e_wo_entrp">   -139.58308347 </i>
    <i name="e_0_energy">   -139.58308347 </i>
   </energy>
  </scstep>
  <scstep>
   <time name="dav">    2.04    2.04</time>
   <time name="total">    2.04    2.04</time>
   <energy>
    <i name="e_fr_energy">   -767.30511805 </i>
    <i name="e_wo_entrp">   -767.30511805 </i>
    <i name="e_0_energy">   -767.30511805 </i>
   </energy>
  </scstep>
  <scstep>
   <time name="dav">    2.30    2.30</time>
   <time name="total">    2.58    2.58</time>
   <energy>
    <i name="e_fr_energy">   -810.71881116 </i>
    <i name="e_wo_entrp">   -810.71881116 </i>
    <i name="e_0_energy">   -810.71881116 </i>
   </energy>
  </scstep>
  <scstep>
   <time name="diag">    0.24    0.24</time>
   <time name="diis">    2.47    2.47</time>
   <time name="orth">    0.03    0.03</time>
   <time name="total">    3.13    3.13</time>
   <energy>
    <i name="e_fr_energy">   -697.04923804 </i>
    <i name="e_wo_entrp">   -697.04923804 </i>
    <i name="e_0_energy">   -697.04923804 </i>
   </energy>
  </scstep>
  <scstep>
   <time name="diag">    0.24    0.24</time>
   <time name="diis">    2.66    2.66</time>
   <time name="orth">    0.03    0.03</time>
   <time name="total">    3.32    3.32</time>
   <energy>
    <i name="e_fr_energy">   -700.62300357 </i>
    <i name="e_wo_entrp">   -700.62300357 </i>
    <i name="e_0_energy">   -700.62300357 </i>
   </energy>
  </scstep>
  <scstep>
   <time name="diag">    0.24    0.24</time>
   <time name="diis">    2.36    2.36</time>
   <time name="orth">    0.03    0.03</time>
   <time name="total">    3.02    3.02</time>
   <energy>
    <i name="e_fr_energy">   -700.51383174 </i>
    <i name="e_wo_entrp">   -700.51383174 </i>
    <i name="e_0_energy">   -700.51383174 </i>
   </energy>
  </scstep>
  <scstep>
   <time name="diag">    0.24    0.24</time>
   <time name="diis">    2.83    2.89</time>
   <time name="orth">    0.03    0.03</time>
   <time name="total">    3.49    3.55</time>
   <energy>
    <i name="e_fr_energy">   -699.98797538 </i>
    <i name="e_wo_entrp">   -699.98797538 </i>
    <i name="e_0_energy">   -699.98797538 </i>
   </energy>
  </scstep>
  <scstep>
   <time name="diag">    0.24    0.24</time>
   <time name="diis">    2.50    2.50</time>
   <time name="orth">    0.03    0.03</time>
   <time name="total">    3.17    3.17</time>
   <energy>
    <i name="e_fr_energy">   -700.05928057 </i>
    <i name="e_wo_entrp">   -700.05928057 </i>
    <i name="e_0_energy">   -700.05928057 </i>
   </energy>
  </scstep>
  <scstep>
   <time name="diag">    0.24    0.24</time>
   <time name="diis">    2.59    2.59</time>
   <time name="orth">    0.03    0.03</time>
   <time name="total">    3.25    3.25</time>
   <energy>
    <i name="e_fr_energy">   -700.04670264 </i>
    <i name="e_wo_entrp">   -700.04670264 </i>
    <i name="e_0_energy">   -700.04670264 </i>
   </energy>
  </scstep>
  <scstep>
   <time name="diag">    0.24    0.24</time>
   <time name="diis">    2.89    2.89</time>
   <time name="orth">    0.03    0.03</time>
   <time name="total">    3.55    3.55</time>
   <energy>
    <i name="e_fr_energy">   -700.04709924 </i>
    <i name="e_wo_entrp">   -700.04709924 </i>
    <i name="e_0_energy">   -700.04709924 </i>
   </energy>
  </scstep>
  <scstep>
   <time name="diag">    0.24    0.24</time>
   <time name="diis">    2.96    2.96</time>
   <time name="orth">    0.03    0.03</time>
   <time name="total">    3.63    3.63</time>
   <energy>
    <i name="e_fr_energy">   -700.04861449 </i>
    <i name="e_wo_entrp">   -700.04861449 </i>
    <i name="e_0_energy">   -700.04861449 </i>
   </energy>
  </scstep>
  <scstep>
   <time name="diag">    0.24    0.24</time>
   <time name="diis">    2.80    2.80</time>
   <time name="orth">    0.03    0.03</time>
   <time name="total">    3.47    3.47</time>
   <energy>
    <i name="e_fr_energy">   -700.04899635 </i>
    <i name="e_wo_entrp">   -700.04899635 </i>
    <i name="e_0_energy">   -700.04899635 </i>
   </energy>
  </scstep>
  <scstep>
   <time name="diag">    0.24    0.24</time>
   <time name="diis">    2.48    2.48</time>
   <time name="orth">    0.03    0.03</time>
   <time name="total">    3.15    3.15</time>
   <energy>
    <i name="e_fr_energy">   -700.04913064 </i>
    <i name="e_wo_entrp">   -700.04913064 </i>
    <i name="e_0_energy">   -700.04913064 </i>
   </energy>
  </scstep>
  <scstep>
   <time name="diag">    0.24    0.24</time>
   <time name="diis">    2.04    2.04</time>
   <time name="orth">    0.03    0.04</time>
   <time name="total">    2.71    2.71</time>
   <energy>
    <i name="e_fr_energy">   -700.04917761 </i>
    <i name="e_wo_entrp">   -700.04917761 </i>
    <i name="e_0_energy">   -700.04917761 </i>
   </energy>
  </scstep>
  <scstep>
   <time name="diag">    0.24    0.24</time>
   <time name="diis">    1.92    1.92</time>
   <time name="orth">    0.03    0.03</time>
   <time name="total">    2.60    2.60</time>
   <energy>
    <i name="e_fr_energy">   -700.04919348 </i>
    <i name="e_wo_entrp">   -700.04919348 </i>
    <i name="e_0_energy">   -700.04919348 </i>
   </energy>
  </scstep>
  <scstep>
   <time name="diag">    0.24    0.24</time>
   <time name="diis">    1.74    1.74</time>
   <time name="orth">    0.03    0.03</time>
   <time name="total">    2.13    2.13</time>
   <energy>
    <i name="alphaZ">   5529.70323211 </i>
    <i name="ewald"> -88613.97284171 </i>
    <i name="hartreedc"> -33824.36307023 </i>
    <i name="XCdc">   4190.58885346 </i>
    <i name="pawpsdc"> 121295.18132932 </i>
    <i name="pawaedc">-137688.49883773 </i>
    <i name="eentropy">     -0.00000000 </i>
    <i name="bandstr">  -5604.50663796 </i>
    <i name="atom"> 134015.81877255 </i>
    <i name="e_fr_energy">   -700.04920018 </i>
    <i name="e_wo_entrp">   -700.04920018 </i>
    <i name="e_0_energy">   -700.04920018 </i>
   </energy>
  </scstep>
  <structure>
   <crystal>
    <varray name="basis" >
     <v>       0.00000000      12.28047342       0.00000000 </v>
     <v>       9.14270205       0.00000000       0.00000000 </v>
     <v>       0.00000000      -2.76826177     -11.30069772 </v>
    </varray>
    <i name="volume">   1268.80515525 </i>
    <varray name="rec_basis" >
     <v>       0.00000000       0.08143009      -0.01994742 </v>
     <v>       0.10937686      -0.00000000       0.00000000 </v>
     <v>       0.00000000       0.00000000      -0.08849011 </v>
    </varray>
   </crystal>
   <varray name="positions" >
    <v>       0.65883830       0.00000000       0.15736517 </v>
    <v>       0.65883830       0.00000000       0.65736517 </v>
    <v>       0.65883830       0.33333333       0.15736517 </v>
    <v>       0.65883830       0.33333333       0.65736517 </v>
    <v>       0.65883830       0.66666667       0.15736517 </v>
    <v>       0.65883830       0.66666667       0.65736517 </v>
    <v>       0.84116170       0.16666667       0.34263483 </v>
    <v>       0.84116170       0.16666667       0.84263483 </v>
    <v>       0.84116170       0.50000000       0.34263483 </v>
    <v>       0.84116170       0.50000000       0.84263483 </v>
    <v>       0.84116170       0.83333333       0.34263483 </v>
    <v>       0.84116170       0.83333333       0.84263483 </v>
    <v>       0.59047440       0.16666667       0.39739300 </v>
    <v>       0.59047440       0.16666667       0.89739300 </v>
    <v>       0.59047440       0.50000000       0.39739300 </v>
    <v>       0.59047440       0.50000000       0.89739300 </v>
    <v>       0.59047440       0.83333333       0.39739300 </v>
    <v>       0.59047440       0.83333333       0.89739300 </v>
    <v>       0.90952560       0.00000000       0.10260700 </v>
    <v>       0.90952560       0.00000000       0.60260700 </v>
    <v>       0.90952560       0.33333333       0.10260700 </v>
    <v>       0.90952560       0.33333333       0.60260700 </v>
    <v>       0.90952560       0.66666667       0.10260700 </v>
    <v>       0.90952560       0.66666667       0.60260700 </v>
    <v>       0.15883830       0.16666667       0.15736517 </v>
    <v>       0.15883830       0.16666667       0.65736517 </v>
    <v>       0.15883830       0.50000000       0.15736517 </v>
    <v>       0.15883830       0.50000000       0.65736517 </v>
    <v>       0.15883830       0.83333333       0.15736517 </v>
    <v>       0.15883830       0.83333333       0.65736517 </v>
    <v>       0.34116170       0.00000000       0.34263483 </v>
    <v>       0.34116170       0.00000000       0.84263483 </v>
    <v>       0.34116170       0.33333333       0.34263483 </v>
    <v>       0.34116170       0.33333333       0.84263483 </v>
    <v>       0.34116170       0.66666667       0.34263483 </v>
    <v>       0.34116170       0.66666667       0.84263483 </v>
    <v>       0.09047440       0.00000000       0.39739300 </v>
    <v>       0.09047440       0.00000000       0.89739300 </v>
    <v>       0.09047440       0.33333333       0.39739300 </v>
    <v>       0.09047440       0.33333333       0.89739300 </v>
    <v>       0.09047440       0.66666667       0.39739300 </v>
    <v>       0.09047440       0.66666667       0.89739300 </v>
    <v>       0.40952560       0.16666667       0.10260700 </v>
    <v>       0.40952560       0.16666667       0.60260700 </v>
    <v>       0.40952560       0.50000000       0.10260700 </v>
    <v>       0.40952560       0.50000000       0.60260700 </v>
    <v>       0.40952560       0.83333333       0.10260700 </v>
    <v>       0.40952560       0.83333333       0.60260700 </v>
    <v>       0.99646913       0.16666667       0.12833205 </v>
    <v>       0.99646913       0.16666667       0.62833205 </v>
    <v>       0.99646913       0.50000000       0.12833205 </v>
    <v>       0.99646913       0.50000000       0.62833205 </v>
    <v>       0.99646913       0.83333333       0.12833205 </v>
    <v>       0.99646913       0.83333333       0.62833205 </v>
    <v>       0.50353087       0.00000000       0.37166795 </v>
    <v>       0.50353087       0.00000000       0.87166795 </v>
    <v>       0.50353087       0.33333333       0.37166795 </v>
    <v>       0.50353087       0.33333333       0.87166795 </v>
    <v>       0.50353087       0.66666667       0.37166795 </v>
    <v>       0.50353087       0.66666667       0.87166795 </v>
    <v>       0.67337106       0.16666667       0.28161508 </v>
    <v>       0.67337106       0.16666667       0.78161508 </v>
    <v>       0.67337106       0.50000000       0.28161508 </v>
    <v>       0.67337106       0.50000000       0.78161508 </v>
    <v>       0.67337106       0.83333333       0.28161508 </v>
    <v>       0.67337106       0.83333333       0.78161508 </v>
    <v>       0.82662894       0.00000000       0.21838492 </v>
    <v>       0.82662894       0.00000000       0.71838492 </v>
    <v>       0.82662894       0.33333333       0.21838492 </v>
    <v>       0.82662894       0.33333333       0.71838492 </v>
    <v>       0.82662894       0.66666667       0.21838492 </v>
    <v>       0.82662894       0.66666667       0.71838492 </v>
    <v>       0.83549502       0.00000000       0.44542296 </v>
    <v>       0.83549502       0.00000000       0.94542296 </v>
    <v>       0.83549502       0.33333333       0.44542296 </v>
    <v>       0.83549502       0.33333333       0.94542296 </v>
    <v>       0.83549502       0.66666667       0.44542296 </v>
    <v>       0.83549502       0.66666667       0.94542296 </v>
    <v>       0.66450498       0.16666667       0.05457704 </v>
    <v>       0.66450498       0.16666667       0.55457704 </v>
    <v>       0.66450498       0.50000000       0.05457704 </v>
    <v>       0.66450498       0.50000000       0.55457704 </v>
    <v>       0.66450498       0.83333333       0.05457704 </v>
    <v>       0.66450498       0.83333333       0.55457704 </v>
    <v>       0.49646913       0.00000000       0.12833205 </v>
    <v>       0.49646913       0.00000000       0.62833205 </v>
    <v>       0.49646913       0.33333333       0.12833205 </v>
    <v>       0.49646913       0.33333333       0.62833205 </v>
    <v>       0.49646913       0.66666667       0.12833205 </v>
    <v>       0.49646913       0.66666667       0.62833205 </v>
    <v>       0.00353087       0.16666667       0.37166795 </v>
    <v>       0.00353087       0.16666667       0.87166795 </v>
    <v>       0.00353087       0.50000000       0.37166795 </v>
    <v>       0.00353087       0.50000000       0.87166795 </v>
    <v>       0.00353087       0.83333333       0.37166795 </v>
    <v>       0.00353087       0.83333333       0.87166795 </v>
    <v>       0.17337106       0.00000000       0.78161508 </v>
    <v>       0.17337106       0.33333333       0.28161508 </v>
    <v>       0.17337106       0.33333333       0.78161508 </v>
    <v>       0.17337106       0.66666667       0.28161508 </v>
    <v>       0.17337106       0.66666667       0.78161508 </v>
    <v>       0.32662894       0.16666667       0.21838492 </v>
    <v>       0.32662894       0.16666667       0.71838492 </v>
    <v>       0.32662894       0.50000000       0.21838492 </v>
    <v>       0.32662894       0.50000000       0.71838492 </v>
    <v>       0.32662894       0.83333333       0.21838492 </v>
    <v>       0.32662894       0.83333333       0.71838492 </v>
    <v>       0.33549502       0.16666667       0.44542296 </v>
    <v>       0.33549502       0.16666667       0.94542296 </v>
    <v>       0.33549502       0.50000000       0.44542296 </v>
    <v>       0.33549502       0.50000000       0.94542296 </v>
    <v>       0.33549502       0.83333333       0.44542296 </v>
    <v>       0.33549502       0.83333333       0.94542296 </v>
    <v>       0.16450498       0.00000000       0.05457704 </v>
    <v>       0.16450498       0.00000000       0.55457704 </v>
    <v>       0.16450498       0.33333333       0.05457704 </v>
    <v>       0.16450498       0.33333333       0.55457704 </v>
    <v>       0.16450498       0.66666667       0.05457704 </v>
    <v>       0.16450498       0.66666667       0.55457704 </v>
    <v>       0.17337106       0.00000000       0.28161508 </v>
   </varray>
  </structure>
  <varray name="forces" >
   <v>       0.00000000      -0.05406833      -0.00675343 </v>
   <v>       0.00000000      -0.11252606       0.09405734 </v>
   <v>       0.00178133      -0.06580880      -0.00118286 </v>
   <v>       0.00562690      -0.11133027       0.09111329 </v>
   <v>      -0.00178133      -0.06580880      -0.00118286 </v>
   <v>      -0.00562690      -0.11133027       0.09111329 </v>
   <v>      -0.00692738       0.46842311      -0.07038570 </v>
   <v>      -0.01567200       0.14820147      -0.19235047 </v>
   <v>       0.00000000       0.19339300      -0.02945425 </v>
   <v>       0.00000000       0.06648585      -0.15633413 </v>
   <v>       0.00692738       0.46842311      -0.07038570 </v>
   <v>       0.01567200       0.14820147      -0.19235047 </v>
   <v>      -0.01653748      -0.17871086       0.06523982 </v>
   <v>      -0.01016481      -0.02764475      -0.06401056 </v>
   <v>       0.00000000      -0.11623279       0.04333750 </v>
   <v>       0.00000000      -0.01060996      -0.05873711 </v>
   <v>       0.01653748      -0.17871086       0.06523982 </v>
   <v>       0.01016481      -0.02764475      -0.06401056 </v>
   <v>       0.00000000       0.41858615      -0.19005559 </v>
   <v>       0.00000000       0.13821608       0.12679522 </v>
   <v>      -0.26222394       0.24445861      -0.09745362 </v>
   <v>      -0.04895332       0.08591529       0.12028797 </v>
   <v>       0.26222394       0.24445861      -0.09745362 </v>
   <v>       0.04895332       0.08591529       0.12028797 </v>
   <v>       2.27761151       0.08093979       1.90130506 </v>
   <v>      -0.27142539       0.03850980       0.27645961 </v>
   <v>       0.00000000      -0.06591437      -0.35423277 </v>
   <v>       0.00000000       0.00524531       0.18800297 </v>
   <v>      -2.27761151       0.08093979       1.90130506 </v>
   <v>       0.27142539       0.03850980       0.27645961 </v>
   <v>       0.00000000       4.04466466      -1.61856747 </v>
   <v>       0.00000000      -0.13611439      -0.04411984 </v>
   <v>      -0.31771317      -0.24492912       0.12224892 </v>
   <v>      -0.08673163      -0.01937062      -0.05196066 </v>
   <v>       0.31771317      -0.24492912       0.12224892 </v>
   <v>       0.08673163      -0.01937062      -0.05196066 </v>
   <v>       0.00000000      -5.54776893      -5.80303593 </v>
   <v>       0.00000000       0.24825812      -0.47566349 </v>
   <v>      -0.31741192       0.11839213       0.29586287 </v>
   <v>      -0.10233066      -0.00472423      -0.19818991 </v>
   <v>       0.31741192       0.11839213       0.29586287 </v>
   <v>       0.10233066      -0.00472423      -0.19818991 </v>
   <v>       0.01915753      -0.38437248      -0.33760249 </v>
   <v>       0.01561180      -0.15837777       0.40795152 </v>
   <v>       0.00000000      -0.09817113      -0.15297041 </v>
   <v>       0.00000000      -0.02201159       0.21266473 </v>
   <v>      -0.01915753      -0.38437248      -0.33760249 </v>
   <v>      -0.01561180      -0.15837777       0.40795152 </v>
   <v>       0.53642733      -1.14941884       0.65132396 </v>
   <v>       0.04824981      -0.13667050      -0.07054488 </v>
   <v>       0.00000000      -0.15716503       0.06209489 </v>
   <v>       0.00000000      -0.06773400      -0.06076475 </v>
   <v>      -0.53642733      -1.14941884       0.65132396 </v>
   <v>      -0.04824981      -0.13667050      -0.07054488 </v>
   <v>       0.00000000       0.13662471      -0.03968585 </v>
   <v>       0.00000000       0.07846806       0.02877702 </v>
   <v>       0.06676151       0.22947362      -0.04214929 </v>
   <v>       0.01604845       0.06034058       0.03035340 </v>
   <v>      -0.06676151       0.22947362      -0.04214929 </v>
   <v>      -0.01604845       0.06034058       0.03035340 </v>
   <v>       0.01167515      -0.01964312       0.00849481 </v>
   <v>       0.00668723      -0.02861182       0.01901921 </v>
   <v>       0.00000000      -0.01728910       0.01493278 </v>
   <v>       0.00000000      -0.02900199       0.01740090 </v>
   <v>      -0.01167515      -0.01964312       0.00849481 </v>
   <v>      -0.00668723      -0.02861182       0.01901921 </v>
   <v>       0.00000000      -0.20995113      -0.00147029 </v>
   <v>       0.00000000      -0.03042281       0.00464412 </v>
   <v>       0.08176723      -0.15814706      -0.00296888 </v>
   <v>       0.01536129      -0.02064641       0.00055587 </v>
   <v>      -0.08176723      -0.15814706      -0.00296888 </v>
   <v>      -0.01536129      -0.02064641       0.00055587 </v>
   <v>       0.00000000      -0.29278595      -0.11914653 </v>
   <v>       0.00000000      -0.25822069       0.17649112 </v>
   <v>       0.08579819      -0.29829255      -0.12502544 </v>
   <v>       0.08607814      -0.25392465       0.17470385 </v>
   <v>      -0.08579819      -0.29829255      -0.12502544 </v>
   <v>      -0.08607814      -0.25392465       0.17470385 </v>
   <v>       0.01122236       0.16741949       0.09576885 </v>
   <v>       0.00566859       0.20106017      -0.03414763 </v>
   <v>       0.00000000       0.18573770       0.10104806 </v>
   <v>       0.00000000       0.19890534      -0.03728874 </v>
   <v>      -0.01122236       0.16741949       0.09576885 </v>
   <v>      -0.00566859       0.20106017      -0.03414763 </v>
   <v>       0.00000000       0.23608272       0.02686228 </v>
   <v>       0.00000000       0.14813610      -0.15203781 </v>
   <v>       0.11948399       0.24397483       0.02173266 </v>
   <v>       0.08888214       0.16245978      -0.16674948 </v>
   <v>      -0.11948399       0.24397483       0.02173266 </v>
   <v>      -0.08888214       0.16245978      -0.16674948 </v>
   <v>       0.70020499      -1.20665223      -0.25990648 </v>
   <v>       0.09965081      -0.13843171       0.16501657 </v>
   <v>       0.00000000      -0.16881080      -0.00231173 </v>
   <v>       0.00000000      -0.03512141       0.09411632 </v>
   <v>      -0.70020499      -1.20665223      -0.25990648 </v>
   <v>      -0.09965081      -0.13843171       0.16501657 </v>
   <v>       0.00000000       0.01518791       0.05091637 </v>
   <v>       1.00637443      -0.01827142      -0.18649358 </v>
   <v>       0.04044069      -0.02506075       0.00964118 </v>
   <v>      -1.00637443      -0.01827142      -0.18649358 </v>
   <v>      -0.04044069      -0.02506075       0.00964118 </v>
   <v>       1.16515175       1.81683361       0.74547226 </v>
   <v>       0.04606443       0.08305224      -0.14119779 </v>
   <v>       0.00000000       0.20177755       0.06865493 </v>
   <v>       0.00000000       0.05041594      -0.08330869 </v>
   <v>      -1.16515175       1.81683361       0.74547226 </v>
   <v>      -0.04606443       0.08305224      -0.14119779 </v>
   <v>       0.84817952       0.36264810      -1.01082224 </v>
   <v>       0.04408592      -0.06516992       0.11075246 </v>
   <v>       0.00000000      -0.07850911      -0.17815739 </v>
   <v>       0.00000000      -0.13688346       0.04641296 </v>
   <v>      -0.84817952       0.36264810      -1.01082224 </v>
   <v>      -0.04408592      -0.06516992       0.11075246 </v>
   <v>       0.00000000       0.58726749       2.26126743 </v>
   <v>       0.00000000      -0.16404837      -0.98870626 </v>
   <v>       0.04004323       0.14442864       0.16920485 </v>
   <v>       0.09938178       0.14109959      -0.16979813 </v>
   <v>      -0.04004323       0.14442864       0.16920485 </v>
   <v>      -0.09938178       0.14109959      -0.16979813 </v>
   <v>       0.00000000       0.68906680       2.41518773 </v>
  </varray>
  <varray name="stress" >
   <v>     105.13122881       0.00000000       0.00000000 </v>
   <v>       0.00000000     113.40903625       6.75094002 </v>
   <v>       0.00000000       6.75094277     108.52427736 </v>
  </varray>
  <energy>
   <i name="e_fr_energy">   -700.04920018 </i>
   <i name="e_wo_entrp">   -700.04920018 </i>
   <i name="e_0_energy">   -700.04920018 </i>
  </energy>
  <time name="totalsc">   60.45   60.52</time>
 </calculation>
 <calculation>
  <scstep>
   <time name="dav">    2.08    2.08</time>
   <time name="total">    2.46    2.46</time>
   <energy>
    <i name="alphaZ">   5529.70323211 </i>
    <i name="ewald"> -88483.03763786 </i>
    <i name="hartreedc"> -33939.11991935 </i>
    <i name="XCdc">   4190.35488719 </i>
    <i name="pawpsdc"> 121294.77980682 </i>
    <i name="pawaedc">-137688.09144419 </i>
    <i name="eentropy">     -0.01078989 </i>
    <i name="bandstr">  -5598.67214127 </i>
    <i name="atom"> 134015.81877255 </i>
    <i name="e_fr_energy">   -678.27523390 </i>
    <i name="e_wo_entrp">   -678.26444401 </i>
    <i name="e_0_energy">   -678.26983896 </i>
   </energy>
  </scstep>
  <scstep>
   <time name="diag">    0.24    0.24</time>
   <time name="diis">    2.51    2.51</time>
   <time name="orth">    0.03    0.03</time>
   <time name="total">    3.17    3.17</time>
   <energy>
    <i name="e_fr_energy">   -696.55300027 </i>
    <i name="e_wo_entrp">   -696.55300027 </i>
    <i name="e_0_energy">   -696.55300027 </i>
   </energy>
  </scstep>
  <scstep>
   <time name="diag">    0.24    0.24</time>
   <time name="diis">    2.81    2.81</time>
   <time name="orth">    0.03    0.03</time>
   <time name="total">    3.46    3.46</time>
   <energy>
    <i name="e_fr_energy">   -700.72105556 </i>
    <i name="e_wo_entrp">   -700.72105556 </i>
    <i name="e_0_energy">   -700.72105556 </i>
   </energy>
  </scstep>
  <scstep>
   <time name="diag">    0.24    0.24</time>
   <time name="diis">    3.00    3.00</time>
   <time name="orth">    0.03    0.03</time>
   <time name="total">    3.66    3.66</time>
   <energy>
    <i name="e_fr_energy">   -701.21893006 </i>
    <i name="e_wo_entrp">   -701.21893006 </i>
    <i name="e_0_energy">   -701.21893006 </i>
   </energy>
  </scstep>
  <scstep>
   <time name="diag">    0.24    0.24</time>
   <time name="diis">    2.64    2.64</time>
   <time name="orth">    0.03    0.04</time>
   <time name="total">    3.31    3.31</time>
   <energy>
    <i name="e_fr_energy">   -701.10283044 </i>
    <i name="e_wo_entrp">   -701.10283044 </i>
    <i name="e_0_energy">   -701.10283044 </i>
   </energy>
  </scstep>
  <scstep>
   <time name="diag">    0.24    0.24</time>
   <time name="diis">    2.53    2.53</time>
   <time name="orth">    0.03    0.03</time>
   <time name="total">    3.19    3.19</time>
   <energy>
    <i name="e_fr_energy">   -701.09587346 </i>
    <i name="e_wo_entrp">   -701.09587346 </i>
    <i name="e_0_energy">   -701.09587346 </i>
   </energy>
  </scstep>
  <scstep>
   <time name="diag">    0.24    0.24</time>
   <time name="diis">    2.85    2.85</time>
   <time name="orth">    0.03    0.03</time>
   <time name="total">    3.51    3.51</time>
   <energy>
    <i name="e_fr_energy">   -701.08422559 </i>
    <i name="e_wo_entrp">   -701.08422559 </i>
    <i name="e_0_energy">   -701.08422559 </i>
   </energy>
  </scstep>
  <scstep>
   <time name="diag">    0.24    0.24</time>
   <time name="diis">    2.48    2.48</time>
   <time name="orth">    0.03    0.03</time>
   <time name="total">    3.14    3.14</time>
   <energy>
    <i name="e_fr_energy">   -701.07579457 </i>
    <i name="e_wo_entrp">   -701.07579457 </i>
    <i name="e_0_energy">   -701.07579457 </i>
   </energy>
  </scstep>
  <scstep>
   <time name="diag">    0.24    0.24</time>
   <time name="diis">    2.80    2.80</time>
   <time name="orth">    0.03    0.03</time>
   <time name="total">    3.47    3.47</time>
   <energy>
    <i name="e_fr_energy">   -701.07618229 </i>
    <i name="e_wo_entrp">   -701.07618229 </i>
    <i name="e_0_energy">   -701.07618229 </i>
   </energy>
  </scstep>
  <scstep>
   <time name="diag">    0.24    0.24</time>
   <time name="diis">    2.50    2.50</time>
   <time name="orth">    0.03    0.03</time>
   <time name="total">    3.17    3.17</time>
   <energy>
    <i name="e_fr_energy">   -701.07639274 </i>
    <i name="e_wo_entrp">   -701.07639274 </i>
    <i name="e_0_energy">   -701.07639274 </i>
   </energy>
  </scstep>
  <scstep>
   <time name="diag">    0.24    0.24</time>
   <time name="diis">    3.18    3.18</time>
   <time name="orth">    0.03    0.03</time>
   <time name="total">    3.85    3.85</time>
   <energy>
    <i name="e_fr_energy">   -701.07628036 </i>
    <i name="e_wo_entrp">   -701.07628036 </i>
    <i name="e_0_energy">   -701.07628036 </i>
   </energy>
  </scstep>
  <scstep>
   <time name="diag">    0.24    0.24</time>
   <time name="diis">    2.39    2.39</time>
   <time name="orth">    0.03    0.03</time>
   <time name="total">    3.07    3.07</time>
   <energy>
    <i name="e_fr_energy">   -701.07628069 </i>
    <i name="e_wo_entrp">   -701.07628069 </i>
    <i name="e_0_energy">   -701.07628069 </i>
   </energy>
  </scstep>
  <scstep>
   <time name="diag">    0.24    0.24</time>
   <time name="diis">    1.93    1.93</time>
   <time name="orth">    0.03    0.03</time>
   <time name="total">    2.31    2.31</time>
   <energy>
    <i name="alphaZ">   5529.70323211 </i>
    <i name="ewald"> -88483.03763786 </i>
    <i name="hartreedc"> -33956.48468879 </i>
    <i name="XCdc">   4191.05716010 </i>
    <i name="pawpsdc"> 120877.82959358 </i>
    <i name="pawaedc">-137273.42421245 </i>
    <i name="eentropy">     -0.00000000 </i>
    <i name="bandstr">  -5602.53850329 </i>
    <i name="atom"> 134015.81877255 </i>
    <i name="e_fr_energy">   -701.07628405 </i>
    <i name="e_wo_entrp">   -701.07628405 </i>
    <i name="e_0_energy">   -701.07628405 </i>
   </energy>
  </scstep>
  <structure>
   <crystal>
    <varray name="basis" >
     <v>       0.00000000      12.28047342       0.00000000 </v>
     <v>       9.14270205       0.00000000       0.00000000 </v>
     <v>       0.00000000      -2.76826177     -11.30069772 </v>
    </varray>
    <i name="volume">   1268.80515525 </i>
    <varray name="rec_basis" >
     <v>       0.00000000       0.08143009      -0.01994742 </v>
     <v>       0.10937686      -0.00000000       0.00000000 </v>
     <v>       0.00000000       0.00000000      -0.08849011 </v>
    </varray>
   </crystal>
   <varray name="positions" >
    <v>       0.65863240       0.00000000       0.15739400 </v>
    <v>       0.65830574       0.00000000       0.65696364 </v>
    <v>       0.65858091       0.33334273       0.15737022 </v>
    <v>       0.65831327       0.33336302       0.65697621 </v>
    <v>       0.65858091       0.66665727       0.15737022 </v>
    <v>       0.65831327       0.66663698       0.65697621 </v>
    <v>       0.84306959       0.16663011       0.34293531 </v>
    <v>       0.84192900       0.16658397       0.84345597 </v>
    <v>       0.84194977       0.50000000       0.34276057 </v>
    <v>       0.84157333       0.50000000       0.84330222 </v>
    <v>       0.84306959       0.83336989       0.34293531 </v>
    <v>       0.84192900       0.83341603       0.84345597 </v>
    <v>       0.58970957       0.16657940       0.39711449 </v>
    <v>       0.59042740       0.16661303       0.89766626 </v>
    <v>       0.58997609       0.50000000       0.39720799 </v>
    <v>       0.59048924       0.50000000       0.89764375 </v>
    <v>       0.58970957       0.83342060       0.39711449 </v>
    <v>       0.59042740       0.83338697       0.89766626 </v>
    <v>       0.91135287       0.00000000       0.10341835 </v>
    <v>       0.90994655       0.00000000       0.60206571 </v>
    <v>       0.91057971       0.33194967       0.10302303 </v>
    <v>       0.90974735       0.33307502       0.60209349 </v>
    <v>       0.91057971       0.66805033       0.10302303 </v>
    <v>       0.90974735       0.66692498       0.60209349 </v>
    <v>       0.15732661       0.17868478       0.14924850 </v>
    <v>       0.15872354       0.16523446       0.65618496 </v>
    <v>       0.15892025       0.50000000       0.15887739 </v>
    <v>       0.15867799       0.50000000       0.65656259 </v>
    <v>       0.15732661       0.82131522       0.14924850 </v>
    <v>       0.15872354       0.83476554       0.65618496 </v>
    <v>       0.35860835       0.00000000       0.34954449 </v>
    <v>       0.34066944       0.00000000       0.84282318 </v>
    <v>       0.34008188       0.33165688       0.34211295 </v>
    <v>       0.34113561       0.33287568       0.84285665 </v>
    <v>       0.34008188       0.66834312       0.34211295 </v>
    <v>       0.34113561       0.66712432       0.84285665 </v>
    <v>       0.07426488       0.00000000       0.42216615 </v>
    <v>       0.09190740       0.00000000       0.89942361 </v>
    <v>       0.09065478       0.33165847       0.39612996 </v>
    <v>       0.09064656       0.33279337       0.89823907 </v>
    <v>       0.09065478       0.66834153       0.39612996 </v>
    <v>       0.09064656       0.66720663       0.89823907 </v>
    <v>       0.40834051       0.16676775       0.10404822 </v>
    <v>       0.40851085       0.16674904       0.60086546 </v>
    <v>       0.40928715       0.50000000       0.10326003 </v>
    <v>       0.40923448       0.50000000       0.60169913 </v>
    <v>       0.40834051       0.83323225       0.10404822 </v>
    <v>       0.40851085       0.83325096       0.60086546 </v>
    <v>       0.99132697       0.16949720       0.12555154 </v>
    <v>       0.99600012       0.16692126       0.62863320 </v>
    <v>       0.99579197       0.50000000       0.12806696 </v>
    <v>       0.99626152       0.50000000       0.62859145 </v>
    <v>       0.99132697       0.83050280       0.12555154 </v>
    <v>       0.99600012       0.83307874       0.62863320 </v>
    <v>       0.50410578       0.00000000       0.37183737 </v>
    <v>       0.50381143       0.00000000       0.87154511 </v>
    <v>       0.50447290       0.33368561       0.37184789 </v>
    <v>       0.50373870       0.33341802       0.87153838 </v>
    <v>       0.50447290       0.66631439       0.37184789 </v>
    <v>       0.50373870       0.66658198       0.87153838 </v>
    <v>       0.67328572       0.16672827       0.28157882 </v>
    <v>       0.67324036       0.16670195       0.78153389 </v>
    <v>       0.67328878       0.50000000       0.28155133 </v>
    <v>       0.67324039       0.50000000       0.78154080 </v>
    <v>       0.67328572       0.83327173       0.28157882 </v>
    <v>       0.67324036       0.83329805       0.78153389 </v>
    <v>       0.82580558       0.00000000       0.21839120 </v>
    <v>       0.82650495       0.00000000       0.71836509 </v>
    <v>       0.82601053       0.33376479       0.21839759 </v>
    <v>       0.82654729       0.33341439       0.71838255 </v>
    <v>       0.82601053       0.66623521       0.21839759 </v>
    <v>       0.82654729       0.66658561       0.71838255 </v>
    <v>       0.83445950       0.00000000       0.44593160 </v>
    <v>       0.83431078       0.00000000       0.94466952 </v>
    <v>       0.83444352       0.33378606       0.44595669 </v>
    <v>       0.83432938       0.33378754       0.94467715 </v>
    <v>       0.83444352       0.66621394       0.44595669 </v>
    <v>       0.83432938       0.66621246       0.94467715 </v>
    <v>       0.66507051       0.16672588       0.05416820 </v>
    <v>       0.66532769       0.16669658       0.55472282 </v>
    <v>       0.66513739       0.50000000       0.05414567 </v>
    <v>       0.66532224       0.50000000       0.55473623 </v>
    <v>       0.66507051       0.83327412       0.05416820 </v>
    <v>       0.66532769       0.83330342       0.55472282 </v>
    <v>       0.49737071       0.00000000       0.12821737 </v>
    <v>       0.49719738       0.00000000       0.62898109 </v>
    <v>       0.49740665       0.33396381       0.12823927 </v>
    <v>       0.49726780       0.33380233       0.62904390 </v>
    <v>       0.49740665       0.66603619       0.12823927 </v>
    <v>       0.49726780       0.66619767       0.62904390 </v>
    <v>      -0.00095923       0.17036139       0.37277750 </v>
    <v>       0.00282826       0.16719249       0.87096350 </v>
    <v>       0.00286994       0.50000000       0.37167782 </v>
    <v>       0.00330233       0.50000000       0.87126617 </v>
    <v>      -0.00095923       0.82963861       0.37277750 </v>
    <v>       0.00282826       0.83280751       0.87096350 </v>
    <v>       0.17338173       0.00000000       0.78139772 </v>
    <v>       0.17347875       0.33864360       0.28241122 </v>
    <v>       0.17326334       0.33354672       0.78157392 </v>
    <v>       0.17347875       0.66135640       0.28241122 </v>
    <v>       0.17326334       0.66645328       0.78157392 </v>
    <v>       0.33304881       0.17281474       0.21520250 </v>
    <v>       0.32709107       0.16690973       0.71898769 </v>
    <v>       0.32735553       0.50000000       0.21809183 </v>
    <v>       0.32690716       0.50000000       0.71874056 </v>
    <v>       0.33304881       0.82718526       0.21520250 </v>
    <v>       0.32709107       0.83309027       0.71898769 </v>
    <v>       0.33789238       0.17114220       0.44973816 </v>
[...]
       <r>    -9.7447     0.0000   142.0000 </r>
       <r>    -9.6349     0.0000   142.0000 </r>
       <r>    -9.5251     0.0000   142.0000 </r>
       <r>    -9.4152     0.0000   142.0000 </r>
       <r>    -9.3054     0.0000   142.0000 </r>
       <r>    -9.1956     0.0103   142.0011 </r>
       <r>    -9.0857    25.7646   144.8308 </r>
       <r>    -8.9759   208.8230   167.7654 </r>
       <r>    -8.8661   552.8132   228.4798 </r>
       <r>    -8.7563   704.6662   305.8718 </r>
       <r>    -8.6464   632.8414   375.3755 </r>
       <r>    -8.5366   709.1720   453.2624 </r>
       <r>    -8.4268   453.2238   503.0391 </r>
       <r>    -8.3170   220.1334   527.2159 </r>
       <r>    -8.2071   238.3417   553.3924 </r>
       <r>    -8.0973   183.0338   573.4947 </r>
       <r>    -7.9875   107.4020   585.2904 </r>
       <r>    -7.8776   122.1337   598.7041 </r>
       <r>    -7.7678   120.6174   611.9513 </r>
       <r>    -7.6580    61.6269   618.7196 </r>
       <r>    -7.5482    28.3503   621.8333 </r>
       <r>    -7.4383     1.5177   622.0000 </r>
       <r>    -7.3285     0.0002   622.0000 </r>
       <r>    -7.2187     0.0000   622.0000 </r>
       <r>    -7.1088     0.0000   622.0000 </r>
       <r>    -6.9990     0.0000   622.0000 </r>
       <r>    -6.8892     0.0000   622.0000 </r>
       <r>    -6.7794     0.0000   622.0000 </r>
       <r>    -6.6695     0.0000   622.0000 </r>
       <r>    -6.5597     0.0000   622.0000 </r>
       <r>    -6.4499     0.0000   622.0000 </r>
       <r>    -6.3400     0.0000   622.0000 </r>
       <r>    -6.2302     0.0000   622.0000 </r>
       <r>    -6.1204     0.0000   622.0000 </r>
       <r>    -6.0106     0.0000   622.0000 </r>
       <r>    -5.9007     0.0000   622.0000 </r>
       <r>    -5.7909     0.0000   622.0000 </r>
       <r>    -5.6811     0.0000   622.0000 </r>
       <r>    -5.5713     0.0000   622.0000 </r>
       <r>    -5.4614     0.0000   622.0000 </r>
       <r>    -5.3516     0.0000   622.0000 </r>
       <r>    -5.2418     0.0000   622.0000 </r>
       <r>    -5.1319     0.0000   622.0000 </r>
       <r>    -5.0221     0.0000   622.0000 </r>
       <r>    -4.9123     0.0000   622.0000 </r>
       <r>    -4.8025     0.0001   622.0000 </r>
       <r>    -4.6926     1.3851   622.1521 </r>
       <r>    -4.5828    15.8540   623.8933 </r>
       <r>    -4.4730     0.9711   624.0000 </r>
       <r>    -4.3631     0.0000   624.0000 </r>
       <r>    -4.2533     0.0000   624.0000 </r>
       <r>    -4.1435     0.0000   624.0000 </r>
       <r>    -4.0337     0.0000   624.0000 </r>
       <r>    -3.9238     0.0000   624.0000 </r>
       <r>    -3.8140     0.0000   624.0000 </r>
       <r>    -3.7042     0.0000   624.0000 </r>
       <r>    -3.5943     0.0000   624.0000 </r>
       <r>    -3.4845     0.0000   624.0000 </r>
       <r>    -3.3747     0.0000   624.0000 </r>
       <r>    -3.2649     0.0010   624.0001 </r>
       <r>    -3.1550     2.0765   624.2282 </r>
       <r>    -3.0452     9.2750   625.2468 </r>
       <r>    -2.9354    18.0939   627.2340 </r>
       <r>    -2.8256    25.5172   630.0365 </r>
       <r>    -2.7157    35.2929   633.9127 </r>
       <r>    -2.6059    28.3260   637.0237 </r>
       <r>    -2.4961    43.8416   641.8387 </r>
       <r>    -2.3862    41.1397   646.3570 </r>
       <r>    -2.2764    48.3710   651.6695 </r>
       <r>    -2.1666    61.4078   658.4138 </r>
       <r>    -2.0568    49.1868   663.8159 </r>
       <r>    -1.9469    44.1209   668.6616 </r>
       <r>    -1.8371    55.6323   674.7716 </r>
       <r>    -1.7273    48.1765   680.0627 </r>
       <r>    -1.6174    32.5466   683.6372 </r>
       <r>    -1.5076    33.9169   687.3622 </r>
       <r>    -1.3978    33.0187   690.9886 </r>
       <r>    -1.2880    30.1718   694.3023 </r>
       <r>    -1.1781    37.0476   698.3712 </r>
       <r>    -1.0683    34.4926   702.1594 </r>
       <r>    -0.9585    38.8200   706.4230 </r>
       <r>    -0.8486    34.6350   710.2269 </r>
       <r>    -0.7388    37.3244   714.3261 </r>
       <r>    -0.6290    33.2911   717.9824 </r>
       <r>    -0.5192    37.3396   722.0833 </r>
       <r>    -0.4093    41.2607   726.6149 </r>
       <r>    -0.2995    47.0663   731.7841 </r>
       <r>    -0.1897    47.4990   737.0008 </r>
       <r>    -0.0799    34.2000   740.7570 </r>
       <r>     0.0300    47.9054   746.0183 </r>
       <r>     0.1398    67.5483   753.4370 </r>
       <r>     0.2496    79.4592   762.1638 </r>
       <r>     0.3595    64.5229   769.2503 </r>
       <r>     0.4693    61.3180   775.9847 </r>
       <r>     0.5791    70.1050   783.6842 </r>
       <r>     0.6889    55.6259   789.7935 </r>
       <r>     0.7988    62.5521   796.6634 </r>
       <r>     0.9086    61.7446   803.4447 </r>
       <r>     1.0184    83.7555   812.6434 </r>
       <r>     1.1283    74.2575   820.7990 </r>
       <r>     1.2381    81.2400   829.7214 </r>
       <r>     1.3479    73.7693   837.8233 </r>
       <r>     1.4577    71.9547   845.7259 </r>
       <r>     1.5676    66.7985   853.0623 </r>
       <r>     1.6774    74.6489   861.2608 </r>
       <r>     1.7872    73.8910   869.3761 </r>
       <r>     1.8971    91.6434   879.4411 </r>
       <r>     2.0069    81.3544   888.3761 </r>
       <r>     2.1167    62.9845   895.2936 </r>
       <r>     2.2265    48.4600   900.6158 </r>
       <r>     2.3364    69.9446   908.2977 </r>
       <r>     2.4462    88.3010   917.9956 </r>
       <r>     2.5560   101.2088   929.1112 </r>
       <r>     2.6658    92.1227   939.2288 </r>
       <r>     2.7757   100.9158   950.3122 </r>
       <r>     2.8855   102.2927   961.5468 </r>
       <r>     2.9953   104.1266   972.9828 </r>
       <r>     3.1052   114.2030   985.5255 </r>
       <r>     3.2150   134.1802  1000.2623 </r>
       <r>     3.3248   111.2758  1012.4835 </r>
       <r>     3.4346    89.9772  1022.3655 </r>
       <r>     3.5445    76.9200  1030.8134 </r>
       <r>     3.6543    60.4790  1037.4557 </r>
       <r>     3.7641    58.9463  1043.9297 </r>
       <r>     3.8740    51.7329  1049.6114 </r>
       <r>     3.9838     3.5372  1049.9999 </r>
       <r>     4.0936     0.0010  1050.0000 </r>
       <r>     4.2034     0.0000  1050.0000 </r>
       <r>     4.3133     0.0000  1050.0000 </r>
       <r>     4.4231     0.0007  1050.0001 </r>
       <r>     4.5329     1.5129  1050.1662 </r>
       <r>     4.6427     9.3155  1051.1893 </r>
       <r>     4.7526     7.1158  1051.9708 </r>
       <r>     4.8624     0.2655  1052.0000 </r>
       <r>     4.9722     0.1115  1052.0122 </r>
       <r>     5.0821     8.2753  1052.9211 </r>
       <r>     5.1919    15.7251  1054.6482 </r>
       <r>     5.3017     9.2727  1055.6666 </r>
       <r>     5.4115     3.0341  1055.9998 </r>
       <r>     5.5214     0.0019  1056.0000 </r>
       <r>     5.6312     0.0000  1056.0000 </r>
       <r>     5.7410     0.0000  1056.0000 </r>
       <r>     5.8509     0.0000  1056.0000 </r>
       <r>     5.9607     0.0000  1056.0000 </r>
       <r>     6.0705     0.0000  1056.0000 </r>
       <r>     6.1803     0.0083  1056.0009 </r>
       <r>     6.2902     1.5014  1056.1658 </r>
       <r>     6.4000     0.7662  1056.2499 </r>
       <r>     6.5098     0.0005  1056.2500 </r>
       <r>     6.6197     0.0000  1056.2500 </r>
       <r>     6.7295     0.0000  1056.2500 </r>
       <r>     6.8393     0.0000  1056.2500 </r>
       <r>     6.9491     0.0000  1056.2500 </r>
       <r>     7.0590     0.2067  1056.2727 </r>
       <r>     7.1688     4.7998  1056.7999 </r>
       <r>     7.2786     3.0219  1057.1317 </r>
       <r>     7.3884     1.3680  1057.2820 </r>
       <r>     7.4983     2.8648  1057.5966 </r>
       <r>     7.6081     5.5930  1058.2109 </r>
       <r>     7.7179     0.3561  1058.2500 </r>
       <r>     7.8278     0.0460  1058.2551 </r>
       <r>     7.9376     4.1646  1058.7124 </r>
       <r>     8.0474     7.3912  1059.5242 </r>
       <r>     8.1572     6.3687  1060.2237 </r>
       <r>     8.2671     5.8403  1060.8651 </r>
       <r>     8.3769     6.8511  1061.6175 </r>
       <r>     8.4867     3.8870  1062.0444 </r>
       <r>     8.5966     5.0983  1062.6044 </r>
       <r>     8.7064    10.4010  1063.7467 </r>
       <r>     8.8162     8.7323  1064.7057 </r>
       <r>     8.9260     5.2627  1065.2837 </r>
       <r>     9.0359     8.2878  1066.1940 </r>
       <r>     9.1457    16.2204  1067.9754 </r>
       <r>     9.2555    14.1301  1069.5273 </r>
       <r>     9.3654    17.2958  1071.4269 </r>
       <r>     9.4752    18.1398  1073.4191 </r>
       <r>     9.5850    24.7069  1076.1326 </r>
       <r>     9.6948    30.2536  1079.4553 </r>
       <r>     9.8047    33.7507  1083.1621 </r>
       <r>     9.9145    38.5038  1087.3909 </r>
       <r>    10.0243    43.2399  1092.1398 </r>
       <r>    10.1341    39.3765  1096.4645 </r>
       <r>    10.2440    35.4743  1100.3605 </r>
       <r>    10.3538    38.0252  1104.5368 </r>
       <r>    10.4636    32.6545  1108.1231 </r>
       <r>    10.5735    27.3727  1111.1294 </r>
       <r>    10.6833    35.2214  1114.9977 </r>
       <r>    10.7931    51.1128  1120.6113 </r>
       <r>    10.9029    37.8719  1124.7707 </r>
       <r>    11.0128    30.8209  1128.1557 </r>
       <r>    11.1226    36.0380  1132.1137 </r>
       <r>    11.2324    35.3129  1135.9920 </r>
       <r>    11.3423    32.7452  1139.5884 </r>
       <r>    11.4521    42.1704  1144.2199 </r>
       <r>    11.5619    31.6106  1147.6916 </r>
       <r>    11.6717    36.3852  1151.6877 </r>
       <r>    11.7816    38.3537  1155.9000 </r>
       <r>    11.8914    32.6010  1159.4805 </r>
       <r>    12.0012    21.3775  1161.8284 </r>
       <r>    12.1111    17.9574  1163.8006 </r>
       <r>    12.2209    24.1086  1166.4484 </r>
       <r>    12.3307    33.1774  1170.0922 </r>
       <r>    12.4405    36.2601  1174.0746 </r>
       <r>    12.5504    37.0276  1178.1413 </r>
       <r>    12.6602    44.6233  1183.0421 </r>
       <r>    12.7700    44.0526  1187.8803 </r>
       <r>    12.8798    37.9197  1192.0450 </r>
       <r>    12.9897    38.9892  1196.3271 </r>
       <r>    13.0995    38.4702  1200.5522 </r>
       <r>    13.2093    31.9111  1204.0569 </r>
       <r>    13.3192    38.8366  1208.3223 </r>
       <r>    13.4290    42.7652  1213.0191 </r>
       <r>    13.5388    45.7478  1218.0435 </r>
       <r>    13.6486    37.4505  1222.1566 </r>
       <r>    13.7585    42.1309  1226.7837 </r>
       <r>    13.8683    36.5996  1230.8034 </r>
       <r>    13.9781    37.9677  1234.9733 </r>
       <r>    14.0880    35.1391  1238.8326 </r>
       <r>    14.1978    43.3486  1243.5935 </r>
       <r>    14.3076    30.4328  1246.9358 </r>
       <r>    14.4174    41.6783  1251.5133 </r>
       <r>    14.5273    24.1279  1254.1632 </r>
       <r>    14.6371    35.8235  1258.0976 </r>
       <r>    14.7469    38.3387  1262.3083 </r>
       <r>    14.8568    27.4372  1265.3217 </r>
       <r>    14.9666     6.1142  1265.9932 </r>
       <r>    15.0764     0.0623  1266.0000 </r>
       <r>    15.1862     0.0000  1266.0000 </r>
       <r>    15.2961     0.0000  1266.0000 </r>
       <r>    15.4059     0.0000  1266.0000 </r>
       <r>    15.5157     0.0000  1266.0000 </r>
       <r>    15.6255     0.0000  1266.0000 </r>
       <r>    15.7354     0.0000  1266.0000 </r>
       <r>    15.8452     0.0000  1266.0000 </r>
       <r>    15.9550     0.0000  1266.0000 </r>
       <r>    16.0649     0.0000  1266.0000 </r>
       <r>    16.1747     0.0000  1266.0000 </r>
       <r>    16.2845     0.0000  1266.0000 </r>
       <r>    16.3943     0.0000  1266.0000 </r>
      </set>
     </set>
    </array>
   </total>
  </dos>
 </calculation>
 <structure name="finalpos" >
  <crystal>
   <varray name="basis" >
    <v>       0.00000000      12.28047342       0.00000000 </v>
    <v>       9.14270205       0.00000000       0.00000000 </v>
    <v>       0.00000000      -2.76826177     -11.30069772 </v>
   </varray>
   <i name="volume">   1268.80515525 </i>
   <varray name="rec_basis" >
    <v>       0.00000000       0.08143009      -0.01994742 </v>
    <v>       0.10937686      -0.00000000       0.00000000 </v>
    <v>       0.00000000       0.00000000      -0.08849011 </v>
   </varray>
  </crystal>
  <varray name="positions" >
   <v>       0.66050800      -0.00000000       0.15551579 </v>
   <v>       0.65874487      -0.00000000       0.65746193 </v>
   <v>       0.66016030       0.33494225       0.15511037 </v>
   <v>       0.66027753       0.33370282       0.65676405 </v>
   <v>       0.66016030       0.66505775       0.15511037 </v>
   <v>       0.66027753       0.66629718       0.65676405 </v>
   <v>       0.83478553       0.16916744       0.34376899 </v>
   <v>       0.83972740       0.16663187       0.84465807 </v>
   <v>       0.84065339       0.50000000       0.34369363 </v>
   <v>       0.83961174       0.50000000       0.84129976 </v>
   <v>       0.83478553       0.83083256       0.34376899 </v>
   <v>       0.83972740       0.83336813       0.84465807 </v>
   <v>       0.59153674       0.16879266       0.39829790 </v>
   <v>       0.59147078       0.16679186       0.89794384 </v>
   <v>       0.59570684       0.50000000       0.39812619 </v>
   <v>       0.59296016       0.50000000       0.89705339 </v>
   <v>       0.59153674       0.83120734       0.39829790 </v>
   <v>       0.59147078       0.83320814       0.89794384 </v>
   <v>       0.90999856      -0.00000000       0.10334339 </v>
   <v>       0.90693539      -0.00000000       0.60424689 </v>
   <v>       0.90455112       0.33471718       0.09989155 </v>
   <v>       0.90748755       0.33349461       0.60046142 </v>
   <v>       0.90455112       0.66528282       0.09989155 </v>
   <v>       0.90748755       0.66650539       0.60046142 </v>
   <v>       0.16071833       0.17076746       0.14764933 </v>
   <v>       0.15893829       0.16839468       0.66009840 </v>
   <v>       0.15734398       0.50000000       0.15960931 </v>
   <v>       0.15895295       0.50000000       0.65391569 </v>
   <v>       0.16071833       0.82923254       0.14764933 </v>
   <v>       0.15893829       0.83160532       0.66009840 </v>
   <v>       0.35034331      -0.00000000       0.35376785 </v>
   <v>       0.34102578      -0.00000000       0.84558497 </v>
   <v>       0.34292015       0.33429149       0.34082932 </v>
   <v>       0.34217205       0.33409951       0.84323596 </v>
   <v>       0.34292015       0.66570851       0.34082932 </v>
   <v>       0.34217205       0.66590049       0.84323596 </v>
   <v>       0.06839284      -0.00000000       0.41609533 </v>
   <v>       0.08845761      -0.00000000       0.89433934 </v>
   <v>       0.09100419       0.33285566       0.39575661 </v>
   <v>       0.08884782       0.33378042       0.89552482 </v>
   <v>       0.09100419       0.66714434       0.39575661 </v>
   <v>       0.08884782       0.66621958       0.89552482 </v>
   <v>       0.41314040       0.16848462       0.10187079 </v>
   <v>       0.41258898       0.16935298       0.60727808 </v>
   <v>       0.40982436       0.50000000       0.10202346 </v>
   <v>       0.41051520       0.50000000       0.60138938 </v>
   <v>       0.41314040       0.83151538       0.10187079 </v>
   <v>       0.41258898       0.83064702       0.60727808 </v>
   <v>       0.99101069       0.17074213       0.11754560 </v>
   <v>       0.99485522       0.16680872       0.62890975 </v>
   <v>       0.99324636       0.50000000       0.12534644 </v>
   <v>       0.99566552       0.50000000       0.62595585 </v>
   <v>       0.99101069       0.82925787       0.11754560 </v>
   <v>       0.99485522       0.83319128       0.62890975 </v>
   <v>       0.50739183      -0.00000000       0.37160873 </v>
   <v>       0.50421287      -0.00000000       0.87278905 </v>
   <v>       0.50725910       0.33592495       0.37225591 </v>
   <v>       0.50492050       0.33401818       0.87323239 </v>
   <v>       0.50725910       0.66407505       0.37225591 </v>
   <v>       0.50492050       0.66598182       0.87323239 </v>
   <v>       0.67087491       0.16629201       0.27919196 </v>
   <v>       0.67215424       0.16649234       0.78041027 </v>
   <v>       0.67304016       0.50000000       0.27811270 </v>
   <v>       0.67306394       0.50000000       0.77954039 </v>
   <v>       0.67087491       0.83370799       0.27919196 </v>
   <v>       0.67215424       0.83350766       0.78041027 </v>
   <v>       0.82782272      -0.00000000       0.22100709 </v>
   <v>       0.82623012      -0.00000000       0.72059926 </v>
   <v>       0.82635204       0.33406528       0.21984575 </v>
   <v>       0.82739812       0.33271967       0.71890861 </v>
   <v>       0.82635204       0.66593472       0.21984575 </v>
   <v>       0.82739812       0.66728033       0.71890861 </v>
   <v>       0.83036963      -0.00000000       0.44720481 </v>
   <v>       0.83040048      -0.00000000       0.94580191 </v>
   <v>       0.82362535       0.33617633       0.44656324 </v>
   <v>       0.82819960       0.33506402       0.94306484 </v>
   <v>       0.82362535       0.66382367       0.44656324 </v>
   <v>       0.82819960       0.66493598       0.94306484 </v>
   <v>       0.66991592       0.16692145       0.05385570 </v>
   <v>       0.66768918       0.16610758       0.55482313 </v>
   <v>       0.67278810       0.50000000       0.05242007 </v>
   <v>       0.66916291       0.50000000       0.55530060 </v>
   <v>       0.66991592       0.83307855       0.05385570 </v>
   <v>       0.66768918       0.83389242       0.55482313 </v>
   <v>       0.49880058      -0.00000000       0.12463991 </v>
   <v>       0.49720683      -0.00000000       0.62967755 </v>
   <v>       0.50003842       0.33601684       0.12301548 </v>
   <v>       0.49969712       0.33569533       0.63282576 </v>
   <v>       0.50003842       0.66398316       0.12301548 </v>
   <v>       0.49969712       0.66430467       0.63282576 </v>
   <v>      -0.00667163       0.17634524       0.38340834 </v>
   <v>       0.00167314       0.16728463       0.87032794 </v>
   <v>       0.00222326       0.50000000       0.37462305 </v>
   <v>       0.00163120       0.50000000       0.87039925 </v>
   <v>      -0.00667163       0.82365476       0.38340834 </v>
   <v>       0.00167314       0.83271537       0.87032794 </v>
   <v>       0.17376646      -0.00000000       0.78228125 </v>
   <v>       0.17336927       0.34217921       0.28171865 </v>
   <v>       0.17236481       0.33413888       0.78035810 </v>
   <v>       0.17336927       0.65782079       0.28171865 </v>
   <v>       0.17236481       0.66586112       0.78035810 </v>
   <v>       0.33439210       0.17980462       0.21668715 </v>
   <v>       0.32807258       0.16743354       0.72093055 </v>
   <v>       0.32874097       0.50000000       0.21762074 </v>
   <v>       0.32733448       0.50000000       0.71815892 </v>
   <v>       0.33439210       0.82019538       0.21668715 </v>
   <v>       0.32807258       0.83256646       0.72093055 </v>
   <v>       0.34465684       0.17469324       0.45075071 </v>
   <v>       0.33542792       0.16851828       0.94554846 </v>
   <v>       0.33637679       0.50000000       0.44540851 </v>
   <v>       0.33270727       0.50000000       0.94501386 </v>
   <v>       0.34465684       0.82530676       0.45075071 </v>
   <v>       0.33542792       0.83148172       0.94554846 </v>
   <v>       0.17547241      -0.00000000       0.04342363 </v>
   <v>       0.16385266      -0.00000000       0.56285086 </v>
   <v>       0.16613637       0.33751953       0.05141818 </v>
   <v>       0.16716154       0.33208927       0.55376900 </v>
   <v>       0.16613637       0.66248047       0.05141818 </v>
   <v>       0.16716154       0.66791073       0.55376900 </v>
   <v>       0.16671645      -0.00000000       0.28573925 </v>
  </varray>
 </structure>
</modeling>
