       N       E                     dE             d eps       ncg     rms          ort
DAV:   1    -0.213647147335E+05   -0.21365E+05   -0.54505E+05  5000   0.752E+03
DAV:   2    -0.656634551439E+05   -0.44299E+05   -0.42757E+05  5000   0.123E+03
DAV:   3    -0.706670510588E+05   -0.50036E+04   -0.45603E+04  5000   0.376E+02
DAV:   4    -0.714151905049E+05   -0.74814E+03   -0.66239E+03  5000   0.120E+02
DAV:   5    -0.390197489584E+05    0.32395E+05   -0.72725E+02  5000   0.599E+01
SDA:   6     0.296417494715E+05    0.68661E+05   -0.72725E+02  5000   0.882E+05 0.000E+00
CGA:   7     0.114690317172E+05   -0.18173E+05   -0.19929E+05  5000   0.624E+05-0.240E+05
CGA:   8     0.594152668776E+04   -0.55275E+04   -0.60608E+04  5000   0.234E+05 0.428E+04
CGA:   9     0.407188863120E+04   -0.18696E+04   -0.26361E+04  5000   0.188E+05 0.179E+03
CGA:  10     0.219614255365E+04   -0.18757E+04   -0.23535E+04  5000   0.856E+04 0.198E+04
CGA:  11     0.936595940725E+03   -0.12595E+04   -0.14006E+04  5000   0.479E+04 0.109E+04
CGA:  12     0.637211448903E+02   -0.87287E+03   -0.90750E+03  5000   0.175E+04 0.725E+03
CGA:  13    -0.473143550126E+03   -0.53686E+03   -0.52321E+03  5000   0.875E+03 0.117E+03
CGA:  14    -0.737470410394E+03   -0.26433E+03   -0.26150E+03  5000   0.428E+03 0.509E+01
CGA:  15    -0.863028743009E+03   -0.12556E+03   -0.12661E+03  5000   0.228E+03-0.121E+02
CGA:  16    -0.915760475418E+03   -0.52732E+02   -0.52048E+02  5000   0.107E+03 0.102E+02
CGA:  17    -0.944192130067E+03   -0.28432E+02   -0.28363E+02  5000   0.541E+02 0.626E+00
CGA:  18    -0.958980738268E+03   -0.14789E+02   -0.14750E+02  5000   0.279E+02 0.369E+00
CGA:  19    -0.966895922961E+03   -0.79152E+01   -0.79034E+01  5000   0.158E+02 0.116E+00
CGA:  20    -0.971401453136E+03   -0.45055E+01   -0.45075E+01  5000   0.780E+01-0.193E-01
CGA:  21    -0.973631599194E+03   -0.22301E+01   -0.22297E+01  5000   0.413E+01 0.134E-01
CGA:  22    -0.974812597476E+03   -0.11810E+01   -0.11789E+01  5000   0.207E+01 0.306E-01
CGA:  23    -0.975388692327E+03   -0.57609E+00   -0.57544E+00  5000   0.118E+01 0.107E-01
CGA:  24    -0.975694426388E+03   -0.30573E+00   -0.30567E+00  5000   0.564E+00 0.154E-02
CGA:  25    -0.975846046769E+03   -0.15162E+00   -0.15165E+00  5000   0.302E+00-0.586E-03
CGA:  26    -0.975937875122E+03   -0.91828E-01   -0.91876E-01  5000   0.163E+00-0.419E-03
CGA:  27    -0.975986679826E+03   -0.48805E-01   -0.48807E-01  5000   0.857E-01 0.139E-04
CGA:  28    -0.976012702124E+03   -0.26022E-01   -0.26028E-01  5000   0.498E-01-0.770E-04
CGA:  29    -0.976025937306E+03   -0.13235E-01   -0.13237E-01  5000   0.243E-01-0.667E-04
CGA:  30    -0.976032488924E+03   -0.65516E-02   -0.65503E-02  5000   0.129E-01 0.459E-04
CGA:  31    -0.976036235584E+03   -0.37467E-02   -0.37428E-02  5000   0.679E-02 0.820E-04
CGA:  32    -0.976038331577E+03   -0.20960E-02   -0.20936E-02  5000   0.386E-02 0.391E-04
CGA:  33    -0.976039563315E+03   -0.12317E-02   -0.12322E-02  5000   0.223E-02-0.703E-05
CGA:  34    -0.976040206792E+03   -0.64348E-03   -0.64376E-03  5000   0.119E-02-0.730E-05
CGA:  35    -0.976040533176E+03   -0.32638E-03   -0.32627E-03  5000   0.636E-03 0.511E-05
CGA:  36    -0.976040709771E+03   -0.17660E-03   -0.17652E-03  5000   0.332E-03 0.354E-05
SDA:  37    -0.976040808654E+03   -0.98883E-04   -0.99051E-04  5000   0.188E-03-0.403E-05
CGA:  38    -0.976040894101E+03   -0.85447E-04   -0.86676E-04  5000   0.949E-04-0.603E-05
CGA:  39    -0.976040924037E+03   -0.29936E-04   -0.29951E-04  5000   0.345E-04-0.260E-06
CGA:  40    -0.976040934167E+03   -0.10130E-04   -0.10090E-04  5000   0.112E-04 0.169E-05
CGA:  41    -0.976040937623E+03   -0.34562E-05   -0.34627E-05  5000   0.490E-05-0.238E-06
   1 F= -.97604094E+03 E0= -.97603541E+03  d E =-.110532E-01
