 vasp.6.4.2 20Jul23 (build Nov 12 2023 22:16:35) complex                         
 executed on              LinuxNV date 2025.03.14  20:37:56
 running    4 mpi-ranks, on    1 nodes
 distrk:  each k-point on    1 cores,    4 groups
 distr:  one band on NCORE=   1 cores,    1 groups
 OpenACC runtime initialized ...    4 GPUs detected


--------------------------------------------------------------------------------------------------------


 INCAR:
   PREC = Normal
   ENCUT = 450
   NELM = 500
   IBRION = -1
   ISPIN = 1
   NSW = 0
   ISIF = 2
   EDIFF = 1E-5
   EDIFFG = -5E-3
   ISTART = 0
   ICHARG = 0
   ISMEAR = 0
   SIGMA = 0.05
   LWAVE = .T.
   LCHARG = .T.
   LREAL = Auto
   LPLANE = .TRUE.
   NPAR = 1
   KPAR = 4
   NCORE = 1
   ALGO = All
   LHFCALC = .TRUE.
   HSE06 = .TRUE.
   HFSCREEN = 0.18
   TIME = 0.4
   AEXX = 0.35
   LMAXFOCK = 4
   PRECFOCK = Fast

 POTCAR:    PAW_PBE Ga_d 06Jul2010                
 POTCAR:     PAW_PBE O 08Apr2002                  
 POTCAR:    PAW_PBE P 06Sep2000                   
 POTCAR:    PAW_PBE Ga_d 06Jul2010                
   SHA256 =  a60ddf36e14f00ea098d9e3914b3745f1b7105e68786148f49ae384e44b4226c Ga_d/POTCAR           
   COPYR  = (c) Copyright 06Jul2010 Georg Kresse                                                    
   COPYR  = This file is part of the software VASP. Any use, copying, and all other rights are regul
   COPYR  = If you do not have a valid VASP license, you may not use, copy or distribute this file. 
   VRHFIN =Ga: s2p1                                                                                 
   LEXCH  = PE                                                                                      
   EATOM  =  2148.8298 eV,  157.9345 Ry                                                             
                                                                                                    
   TITEL  = PAW_PBE Ga_d 06Jul2010                                                                  
   LULTRA =        F    use ultrasoft PP ?                                                          
   IUNSCR =        1    unscreen: 0-lin 1-nonlin 2-no                                               
   RPACOR =    1.700    partial core radius                                                         
   POMASS =   69.723; ZVAL   =   13.000    mass and valenz                                          
   RCORE  =    2.300    outmost cutoff radius                                                       
   RWIGS  =    2.300; RWIGS  =    1.217    wigner-seitz radius (au A)                               
   ENMAX  =  282.691; ENMIN  =  212.018 eV                                                          
   ICORE  =        3    local potential                                                             
   LCOR   =        T    correct aug charges                                                         
   LPAW   =        T    paw PP                                                                      
   EAUG   =  490.690                                                                                
   DEXC   =    0.000                                                                                
   RMAX   =    2.341    core radius for proj-oper                                                   
   RAUG   =    1.300    factor for augmentation sphere                                              
   RDEP   =    2.413    radius for radial grids                                                     
   RDEPT  =    1.856    core radius for aug-charge                                                  
                                                                                                    
   Atomic configuration                                                                             
    9 entries                                                                                       
     n  l   j            E        occ.                                                              
     1  0  0.50    -10228.7831   2.0000                                                             
     2  0  0.50     -1262.1604   2.0000                                                             
     2  1  1.50     -1098.6333   6.0000                                                             
     3  0  0.50      -148.1110   2.0000                                                             
     3  1  1.50       -98.8436   6.0000                                                             
     3  2  2.50       -19.1549  10.0000                                                             
     4  0  0.50        -8.9483   2.0000                                                             
     4  1  0.50        -2.5791   1.0000                                                             
     4  3  2.50        -2.7416   0.0000                                                             
   Description                                                                                      
     l       E           TYP  RCUT    TYP  RCUT                                                     
     2    -19.1549037     23  2.300                                                                 
     2     -5.4423304     23  2.300                                                                 
     0     -8.9483111     23  2.300                                                                 
     0     68.0291300     23  2.300                                                                 
     1     -2.5790802     23  2.100                                                                 
     1     81.6349560     23  2.300                                                                 
     3      6.8029130     23  2.300                                                                 
  local pseudopotential read in
  partial core-charges read in
  partial kinetic energy density read in
  atomic valenz-charges read in
  non local Contribution for L=            2  read in
    real space projection operators read in
  non local Contribution for L=            2  read in
    real space projection operators read in
  non local Contribution for L=            0  read in
    real space projection operators read in
  non local Contribution for L=            0  read in
    real space projection operators read in
  non local Contribution for L=            1  read in
    real space projection operators read in
  non local Contribution for L=            1  read in
    real space projection operators read in
    PAW grid and wavefunctions read in
 
   number of l-projection  operators is LMAX  =            6
   number of lm-projection operators is LMMAX =           18
 
 POTCAR:     PAW_PBE O 08Apr2002                  
   SHA256 =  818f92134a0a090dccd8ba1447fa70422a3b330e708bb4f08108d8ae51209ddf O/POTCAR              
   COPYR  = (c) Copyright 08Apr2002 Georg Kresse                                                    
   COPYR  = This file is part of the software VASP. Any use, copying, and all other rights are regul
   COPYR  = If you do not have a valid VASP license, you may not use, copy or distribute this file. 
   VRHFIN =O: s2p4                                                                                  
   LEXCH  = PE                                                                                      
   EATOM  =   432.3788 eV,   31.7789 Ry                                                             
                                                                                                    
   TITEL  = PAW_PBE O 08Apr2002                                                                     
   LULTRA =        F    use ultrasoft PP ?                                                          
   IUNSCR =        1    unscreen: 0-lin 1-nonlin 2-no                                               
   RPACOR =    1.200    partial core radius                                                         
   POMASS =   16.000; ZVAL   =    6.000    mass and valenz                                          
   RCORE  =    1.520    outmost cutoff radius                                                       
   RWIGS  =    1.550; RWIGS  =    0.820    wigner-seitz radius (au A)                               
   ENMAX  =  400.000; ENMIN  =  300.000 eV                                                          
   ICORE  =        2    local potential                                                             
   LCOR   =        T    correct aug charges                                                         
   LPAW   =        T    paw PP                                                                      
   EAUG   =  605.392                                                                                
   DEXC   =    0.000                                                                                
   RMAX   =    1.553    core radius for proj-oper                                                   
   RAUG   =    1.300    factor for augmentation sphere                                              
   RDEP   =    1.550    radius for radial grids                                                     
   RDEPT  =    1.329    core radius for aug-charge                                                  
                                                                                                    
   Atomic configuration                                                                             
    4 entries                                                                                       
     n  l   j            E        occ.                                                              
     1  0  0.50      -514.6923   2.0000                                                             
     2  0  0.50       -23.9615   2.0000                                                             
     2  1  0.50        -9.0305   4.0000                                                             
     3  2  1.50        -9.5241   0.0000                                                             
   Description                                                                                      
     l       E           TYP  RCUT    TYP  RCUT                                                     
     0    -23.9615318     23  1.200                                                                 
     0     -9.5240782     23  1.200                                                                 
     1     -9.0304911     23  1.520                                                                 
     1      8.1634956     23  1.520                                                                 
     2     -9.5240782      7  1.500                                                                 
  local pseudopotential read in
  partial core-charges read in
  partial kinetic energy density read in
  kinetic energy density of atom read in
  atomic valenz-charges read in
  non local Contribution for L=            0  read in
    real space projection operators read in
  non local Contribution for L=            0  read in
    real space projection operators read in
  non local Contribution for L=            1  read in
    real space projection operators read in
  non local Contribution for L=            1  read in
    real space projection operators read in
    PAW grid and wavefunctions read in
 
   number of l-projection  operators is LMAX  =            4
   number of lm-projection operators is LMMAX =            8
 
 POTCAR:    PAW_PBE P 06Sep2000                   
   SHA256 =  df60c54a93efe35c9e85ae94c010c75e9f6960a95d5595d7cdba4096d109af88 P/POTCAR              
   COPYR  = (c) Copyright 06Sep2000 Georg Kresse                                                    
   COPYR  = This file is part of the software VASP. Any use, copying, and all other rights are regul
   COPYR  = If you do not have a valid VASP license, you may not use, copy or distribute this file. 
   VRHFIN =P : s2p3                                                                                 
   LEXCH  = PE                                                                                      
   EATOM  =   176.0430 eV,   12.9388 Ry                                                             
                                                                                                    
   TITEL  = PAW_PBE P 06Sep2000                                                                     
   LULTRA =        F    use ultrasoft PP ?                                                          
   IUNSCR =        1    unscreen: 0-lin 1-nonlin 2-no                                               
   RPACOR =    1.500    partial core radius                                                         
   POMASS =   30.974; ZVAL   =    5.000    mass and valenz                                          
   RCORE  =    1.900    outmost cutoff radius                                                       
   RWIGS  =    2.330; RWIGS  =    1.233    wigner-seitz radius (au A)                               
   ENMAX  =  255.040; ENMIN  =  191.280 eV                                                          
   ICORE  =        2    local potential                                                             
   LCOR   =        T    correct aug charges                                                         
   LPAW   =        T    paw PP                                                                      
   EAUG   =  342.924                                                                                
   DEXC   =    0.000                                                                                
   RMAX   =    1.935    core radius for proj-oper                                                   
   RAUG   =    1.300    factor for augmentation sphere                                              
   RDEP   =    1.931    radius for radial grids                                                     
   RDEPT  =    1.794    core radius for aug-charge                                                  
                                                                                                    
   Atomic configuration                                                                             
    6 entries                                                                                       
     n  l   j            E        occ.                                                              
     1  0  0.50     -2084.0982   2.0000                                                             
     2  0  0.50      -173.9859   2.0000                                                             
     2  1  1.50      -124.4865   6.0000                                                             
     3  0  0.50       -13.9692   2.0000                                                             
     3  1  0.50        -5.5067   3.0000                                                             
     3  2  1.50        -5.4423   0.0000                                                             
   Description                                                                                      
     l       E           TYP  RCUT    TYP  RCUT                                                     
     0    -13.9691527     23  1.900                                                                 
     0    -11.7794650     23  1.900                                                                 
     1     -5.5066937     23  1.900                                                                 
     1     -0.2556953     23  1.900                                                                 
     2     -5.4423304     23  1.900                                                                 
  local pseudopotential read in
  partial core-charges read in
  partial kinetic energy density read in
  atomic valenz-charges read in
  non local Contribution for L=            0  read in
    real space projection operators read in
  non local Contribution for L=            0  read in
    real space projection operators read in
  non local Contribution for L=            1  read in
    real space projection operators read in
  non local Contribution for L=            1  read in
    real space projection operators read in
    PAW grid and wavefunctions read in
 
   number of l-projection  operators is LMAX  =            4
   number of lm-projection operators is LMMAX =            8
 
 Optimization of the real space projectors (new method)

 maximal supplied QI-value         = 16.25
 optimisation between [QCUT,QGAM] = [ 10.73, 21.61] = [ 32.22,130.83] Ry 
 Optimized for a Real-space Cutoff    1.42 Angstroem

   l    n(q)    QCUT    max X(q) W(low)/X(q) W(high)/X(q)  e(spline) 
   2      8    10.726     7.143    0.22E-03    0.16E-03    0.73E-07
   2      8    10.726     5.586    0.40E-03    0.26E-03    0.10E-06
   0      9    10.726    12.382    0.25E-04    0.21E-05    0.37E-07
   0      9    10.726     6.622    0.42E-04    0.48E-05    0.77E-07
   1      9    10.726     7.935    0.27E-03    0.13E-04    0.16E-06
   1      9    10.726     2.425    0.23E-03    0.15E-04    0.14E-06
 Optimization of the real space projectors (new method)

 maximal supplied QI-value         = 24.76
 optimisation between [QCUT,QGAM] = [ 10.64, 21.54] = [ 31.73,129.89] Ry 
 Optimized for a Real-space Cutoff    1.23 Angstroem

   l    n(q)    QCUT    max X(q) W(low)/X(q) W(high)/X(q)  e(spline) 
   0      8    10.645    20.381    0.38E-03    0.60E-03    0.15E-06
   0      8    10.645    15.268    0.40E-03    0.65E-03    0.17E-06
   1      7    10.645     5.964    0.30E-03    0.63E-03    0.18E-06
   1      7    10.645     5.382    0.24E-03    0.53E-03    0.16E-06
 Optimization of the real space projectors (new method)

 maximal supplied QI-value         = 19.84
 optimisation between [QCUT,QGAM] = [ 10.71, 21.63] = [ 32.15,130.99] Ry 
 Optimized for a Real-space Cutoff    1.19 Angstroem

   l    n(q)    QCUT    max X(q) W(low)/X(q) W(high)/X(q)  e(spline) 
   0      8    10.715   160.924    0.37E-03    0.37E-04    0.63E-07
   0      8    10.715   130.086    0.37E-03    0.36E-04    0.63E-07
   1      7    10.715    74.434    0.19E-03    0.56E-03    0.65E-07
   1      7    10.715    49.120    0.19E-03    0.55E-03    0.63E-07
  PAW_PBE Ga_d 06Jul2010                :
 energy of atom  1       EATOM=-2148.8298
 kinetic energy error for atom=    0.0038 (will be added to EATOM!!)
   PAW_PBE O 08Apr2002                  :
 energy of atom  2       EATOM= -432.3788
 kinetic energy error for atom=    0.0389 (will be added to EATOM!!)
  PAW_PBE P 06Sep2000                   :
 energy of atom  3       EATOM= -176.0430
 kinetic energy error for atom=    0.0019 (will be added to EATOM!!)
 
 
 POSCAR: Ga48 O72
  positions in direct lattice
  velocities in cartesian coordinates
 exchange correlation table for  LEXCH =        8
   RHO(1)=    0.500       N(1)  =     2000
   RHO(2)=  100.500       N(2)  =     4000
 


--------------------------------------------------------------------------------------------------------


 ion  position               nearest neighbor table
   1  0.657  0.000  0.156-  84 1.94  82 1.95  78 1.95  66 2.05  60 2.08  64 2.08
   2  0.661  0.000  0.657-  85 1.94  83 1.96  79 1.96  67 2.02  61 2.07  65 2.07
   3  0.659  0.333  0.158-  86 1.95  80 1.95  78 1.95  68 2.06  60 2.07  62 2.08
   4  0.661  0.333  0.657-  87 1.95  79 1.95  81 1.96  69 2.02  63 2.07  61 2.08
   5  0.659  0.667  0.158-  88 1.95  80 1.95  82 1.95  70 2.06  64 2.07  62 2.08
   6  0.661  0.667  0.657-  89 1.95  83 1.95  81 1.96  71 2.02  63 2.07  65 2.08
   7  0.839  0.164  0.342-  74 1.93  72 1.94  60 2.00  66 2.04  68 2.05  90 2.14
   8  0.841  0.166  0.844-  75 1.95  91 1.95  73 1.95  61 2.02  67 2.07  69 2.07
   9  0.844  0.500  0.343-  92 1.95  76 1.96  74 1.96  62 2.02  70 2.08  68 2.08
  10  0.841  0.500  0.843-  93 1.94  77 1.95  75 1.95  63 2.01  71 2.08  69 2.08
  11  0.839  0.836  0.342-  76 1.93  72 1.94  64 2.00  66 2.04  70 2.05  94 2.14
  12  0.841  0.834  0.844-  77 1.95  95 1.95  73 1.95  65 2.02  67 2.07  71 2.07
  13  0.591  0.167  0.399-  79 1.84  54 1.85  56 1.85  60 1.87
  14  0.593  0.167  0.898-  78 1.84  57 1.85  55 1.85  61 1.87
  15  0.591  0.500  0.398-  81 1.85  58 1.85  56 1.85  62 1.88
  16  0.593  0.500  0.899-  80 1.85  59 1.85  57 1.85  63 1.88
  17  0.591  0.833  0.399-  83 1.84  54 1.85  58 1.85  64 1.87
  18  0.593  0.833  0.898-  82 1.84  59 1.85  55 1.85  65 1.87
  19  0.910  0.000  0.103-  73 1.84  52 1.85  48 1.85  66 1.88
  20  0.908  0.000  0.603-  72 1.84  53 1.85  49 1.85  67 1.86
  21  0.908  0.334  0.101-  75 1.84  50 1.85  48 1.85  68 1.87
  22  0.911  0.333  0.604-  74 1.84  51 1.85  49 1.87  69 1.87
  23  0.908  0.666  0.101-  77 1.84  50 1.85  52 1.85  70 1.87
  24  0.911  0.667  0.604-  76 1.84  51 1.85  53 1.87  71 1.87
  25  0.157  0.171  0.156-  48 1.93 115 1.93 114 1.94 102 2.01  98 2.05  96 2.23
  26  0.159  0.175  0.668-  49 1.91 116 1.94  99 1.97 103 1.99  97 2.02
  27  0.159  0.500  0.158-  50 1.94 115 1.95 117 1.95 104 2.02 100 2.08  98 2.08
  28  0.161  0.500  0.657-  51 1.94 116 1.96 118 1.96 105 2.01 101 2.08  99 2.08
  29  0.157  0.829  0.156-  52 1.93 117 1.93 114 1.94 106 2.01 100 2.05  96 2.23
  30  0.159  0.825  0.668-  53 1.91 118 1.94 101 1.97 107 1.99  97 2.02
  31  0.343  0.000  0.347-  54 1.93 108 1.95 112 1.95 102 2.05 106 2.05  96 2.16
  32  0.344  0.000  0.844-  55 1.93 109 1.95 113 1.95 103 2.07 107 2.07  97 2.08
  33  0.340  0.333  0.346-  56 1.94 110 1.96 108 1.96  98 2.03 104 2.07 102 2.10
  34  0.343  0.335  0.847-  57 1.93 111 1.94 109 1.95  99 2.04 105 2.08 103 2.15
  35  0.340  0.667  0.346-  58 1.94 110 1.96 112 1.96 100 2.03 104 2.07 106 2.10
  36  0.343  0.665  0.847-  59 1.93 111 1.94 113 1.95 101 2.04 105 2.08 107 2.15
  37  0.092  0.000  0.901-  91 1.85  95 1.85 114 1.86  97 1.92
  38  0.092  0.329  0.400- 116 1.83  98 1.86  92 1.86  90 1.95
  39  0.091  0.334  0.900- 115 1.84  93 1.84  91 1.85  99 1.88
  40  0.092  0.671  0.400- 118 1.83 100 1.86  92 1.86  94 1.95
  41  0.091  0.666  0.900- 117 1.84  93 1.84  95 1.85 101 1.88
  42  0.407  0.166  0.104-  84 1.85  86 1.85 109 1.85 102 1.89
  43  0.411  0.167  0.604-  87 1.84 108 1.85  85 1.85 103 1.88
  44  0.409  0.500  0.106- 111 1.84  88 1.85  86 1.85 104 1.88
  45  0.410  0.500  0.604-  87 1.85  89 1.85 110 1.85 105 1.88
  46  0.407  0.834  0.104-  84 1.85  88 1.85 113 1.85 106 1.89
  47  0.411  0.833  0.604-  89 1.84 112 1.85  85 1.85 107 1.88
  48  0.996  0.168  0.129-  19 1.85  21 1.85  25 1.93
  49  0.999  0.164  0.624-  20 1.85  22 1.87  26 1.91
  50  0.996  0.500  0.127-  21 1.85  23 1.85  27 1.94
  51  0.998  0.500  0.629-  22 1.85  24 1.85  28 1.94
  52  0.996  0.832  0.129-  19 1.85  23 1.85  29 1.93
  53  0.999  0.836  0.624-  20 1.85  24 1.87  30 1.91
  54  0.504  0.000  0.374-  13 1.85  17 1.85  31 1.93
  55  0.505  0.000  0.874-  14 1.85  18 1.85  32 1.93
  56  0.502  0.333  0.374-  13 1.85  15 1.85  33 1.94
  57  0.505  0.333  0.874-  14 1.85  16 1.85  34 1.93
  58  0.502  0.667  0.374-  17 1.85  15 1.85  35 1.94
  59  0.505  0.667  0.874-  18 1.85  16 1.85  36 1.93
  60  0.672  0.167  0.281-  13 1.87   7 2.00   3 2.07   1 2.08
  61  0.673  0.167  0.780-  14 1.87   8 2.02   2 2.07   4 2.08
  62  0.675  0.500  0.283-  15 1.88   9 2.02   3 2.08   5 2.08
  63  0.673  0.500  0.780-  16 1.88  10 2.01   4 2.07   6 2.07
  64  0.672  0.833  0.281-  17 1.87  11 2.00   5 2.07   1 2.08
  65  0.673  0.833  0.780-  18 1.87  12 2.02   2 2.07   6 2.08
  66  0.828  0.000  0.221-  19 1.88  11 2.04   7 2.04   1 2.05
  67  0.829  0.000  0.721-  20 1.86   2 2.02  12 2.07   8 2.07
  68  0.830  0.330  0.222-  21 1.87   7 2.05   3 2.06   9 2.08
  69  0.829  0.333  0.720-  22 1.87   4 2.02   8 2.07  10 2.08
  70  0.830  0.670  0.222-  23 1.87  11 2.05   5 2.06   9 2.08
  71  0.829  0.667  0.720-  24 1.87   6 2.02  12 2.07  10 2.08
  72  0.832  0.000  0.446-  20 1.84  11 1.94   7 1.94
  73  0.833  0.000  0.947-  19 1.84  12 1.95   8 1.95
  74  0.842  0.330  0.445-  22 1.84   7 1.93   9 1.96
  75  0.831  0.333  0.946-  21 1.84   8 1.95  10 1.95
  76  0.842  0.670  0.445-  24 1.84  11 1.93   9 1.96
  77  0.831  0.667  0.946-  23 1.84  12 1.95  10 1.95
  78  0.669  0.167  0.056-  14 1.84   1 1.95   3 1.95
  79  0.670  0.167  0.554-  13 1.84   4 1.95   2 1.96
  80  0.669  0.500  0.056-  16 1.85   5 1.95   3 1.95
  81  0.671  0.500  0.554-  15 1.85   6 1.96   4 1.96
  82  0.669  0.833  0.056-  18 1.84   1 1.95   5 1.95
  83  0.670  0.833  0.554-  17 1.84   6 1.95   2 1.96
  84  0.495  0.000  0.128-  42 1.85  46 1.85   1 1.94
  85  0.498  0.000  0.628-  43 1.85  47 1.85   2 1.94
  86  0.495  0.332  0.129-  44 1.85  42 1.85   3 1.95
  87  0.498  0.334  0.628-  43 1.84  45 1.85   4 1.95
  88  0.495  0.668  0.129-  44 1.85  46 1.85   5 1.95
  89  0.498  0.666  0.628-  47 1.84  45 1.85   6 1.95
  90  0.017  0.141  0.374- 119 1.65  38 1.95   7 2.14
  91  0.004  0.167  0.873-  39 1.85  37 1.85   8 1.95
  92  0.007  0.500  0.374-  38 1.86  40 1.86   9 1.95
  93  0.003  0.500  0.874-  39 1.84  41 1.84  10 1.94
  94  0.017  0.859  0.374- 119 1.65  40 1.95  11 2.14
  95  0.004  0.833  0.873-  41 1.85  37 1.85  12 1.95
  96  0.162  0.000  0.294- 119 1.65  31 2.16  25 2.23  29 2.23
  97  0.171  0.000  0.776-  37 1.92  30 2.02  26 2.02  32 2.08
  98  0.171  0.332  0.281-  38 1.86  33 2.03  25 2.05  27 2.08
  99  0.174  0.336  0.784-  39 1.88  26 1.97  34 2.04  28 2.08
 100  0.171  0.668  0.281-  40 1.86  35 2.03  29 2.05  27 2.08
 101  0.174  0.664  0.784-  41 1.88  30 1.97  36 2.04  28 2.08
 102  0.324  0.163  0.222-  42 1.89  25 2.01  31 2.05  33 2.10
 103  0.326  0.163  0.718-  43 1.88  26 1.99  32 2.07  34 2.15
 104  0.326  0.500  0.223-  44 1.88  27 2.02  35 2.07  33 2.07
 105  0.328  0.500  0.721-  45 1.88  28 2.01  36 2.08  34 2.08
 106  0.324  0.837  0.222-  46 1.89  29 2.01  31 2.05  35 2.10
 107  0.326  0.837  0.718-  47 1.88  30 1.99  32 2.07  36 2.15
 108  0.331  0.166  0.448-  43 1.85  31 1.95  33 1.96
 109  0.331  0.166  0.946-  42 1.85  34 1.95  32 1.95
 110  0.330  0.500  0.448-  45 1.85  35 1.96  33 1.96
 111  0.333  0.500  0.948-  44 1.84  36 1.94  34 1.94
 112  0.331  0.834  0.448-  47 1.85  31 1.95  35 1.96
 113  0.331  0.834  0.946-  46 1.85  36 1.95  32 1.95
 114  0.166  0.000  0.060-  37 1.86  25 1.94  29 1.94
 115  0.170  0.335  0.056-  39 1.84  25 1.93  27 1.95
 116  0.168  0.330  0.556-  38 1.83  26 1.94  28 1.96
 117  0.170  0.665  0.056-  41 1.84  29 1.93  27 1.95
 118  0.168  0.670  0.556-  40 1.83  30 1.94  28 1.96
 119  0.102  0.000  0.406-  90 1.65  94 1.65  96 1.65
 
  LATTYP: Found a simple monoclinic cell.
 ALAT       =    11.6348202465
 B/A-ratio  =     0.7858051831
 C/A-ratio  =     1.0554931797
 COS(beta)  =    -0.2379290539
  
  Lattice vectors:
  
 A1 = (   0.0000000000,  -2.7682617730, -11.3006977184)
 A2 = (  -9.1427020537,   0.0000000000,   0.0000000000)
 A3 = (   0.0000000000,  12.2804734172,   0.0000000000)


Analysis of symmetry for initial positions (statically):
=====================================================================
 Subroutine PRICEL returns:
 Original cell was already a primitive cell.
 

 Routine SETGRP: Setting up the symmetry group for a 
 simple monoclinic supercell.


 Subroutine GETGRP returns: Found  2 space group operations
 (whereof  2 operations were pure point group operations)
 out of a pool of  4 trial point group operations.


The static configuration has the point symmetry C_1h.


Analysis of symmetry for dynamics (positions and initial velocities):
=====================================================================
 Subroutine PRICEL returns:
 Original cell was already a primitive cell.
 

 Routine SETGRP: Setting up the symmetry group for a 
 simple monoclinic supercell.


 Subroutine GETGRP returns: Found  2 space group operations
 (whereof  2 operations were pure point group operations)
 out of a pool of  4 trial point group operations.


The dynamic configuration has the point symmetry C_1h.


 Subroutine INISYM returns: Found  2 space group operations
 (whereof  2 operations are pure point group operations),
 and found     1 'primitive' translations


----------------------------------------------------------------------------------------

                                     Primitive cell                                     

  volume of cell :    1268.8052

  direct lattice vectors                    reciprocal lattice vectors
     0.000000000 12.280473417  0.000000000     0.000000000  0.081430085 -0.019947423
     9.142702054  0.000000000  0.000000000     0.109376855 -0.000000000  0.000000000
     0.000000000 -2.768261773-11.300697718     0.000000000  0.000000000 -0.088490111

  length of vectors
    12.280473417  9.142702054 11.634820246     0.083837691  0.109376855  0.088490111

  position of ions in fractional coordinates (direct lattice)
     0.656822547  0.000000000  0.155872338
     0.660502804  0.000000000  0.656968287
     0.658566730  0.333058752  0.157858307
     0.660649731  0.333467686  0.656734832
     0.658566730  0.666941248  0.157858307
     0.660649731  0.666532314  0.656734832
     0.838575181  0.163574388  0.341785525
     0.841187712  0.166423147  0.844056477
     0.843639713  0.500000000  0.343230022
     0.840567784  0.500000000  0.843460485
     0.838575181  0.836425612  0.341785525
     0.841187712  0.833576853  0.844056477
     0.590899089  0.167109128  0.398677190
     0.592967470  0.166776281  0.898329869
     0.590631096  0.500000000  0.398117511
     0.592897491  0.500000000  0.898786143
     0.590899089  0.832890872  0.398677190
     0.592967470  0.833223719  0.898329869
     0.909653380  0.000000000  0.103188803
     0.908315254  0.000000000  0.602812835
     0.907953627  0.333899512  0.101459267
     0.910725716  0.333001834  0.603993019
     0.907953627  0.666100488  0.101459267
     0.910725716  0.666998166  0.603993019
     0.157326966  0.170710490  0.156261919
     0.159105361  0.175147559  0.668021249
     0.158598649  0.500000000  0.158469209
     0.160514276  0.500000000  0.657424029
     0.157326966  0.829289510  0.156261919
     0.159105361  0.824852441  0.668021249
     0.342744988  0.000000000  0.346587996
     0.343606869  0.000000000  0.844280826
     0.340200720  0.333403961  0.345914424
     0.343320324  0.334526031  0.847300700
     0.340200720  0.666596039  0.345914424
     0.343320324  0.665473969  0.847300700
     0.092368300  0.000000000  0.900620181
     0.092463476  0.329162632  0.399749921
     0.090551095  0.334198471  0.900219884
     0.092463476  0.670837368  0.399749921
     0.090551095  0.665801529  0.900219884
     0.406613649  0.166332366  0.104092356
     0.411175287  0.167025331  0.603639764
     0.408676707  0.500000000  0.105691207
     0.409795768  0.500000000  0.603958641
     0.406613649  0.833667634  0.104092356
     0.411175287  0.832974669  0.603639764
     0.996251777  0.167655959  0.128901242
     0.998860828  0.164403322  0.623617702
     0.996287225  0.500000000  0.126979185
     0.998419704  0.500000000  0.628769641
     0.996251777  0.832344041  0.128901242
     0.998860828  0.835596678  0.623617702
     0.503806303  0.000000000  0.374130864
     0.505010017  0.000000000  0.873660293
     0.502369704  0.333285434  0.373784897
     0.504582762  0.333164672  0.873540824
     0.502369704  0.666714566  0.373784897
     0.504582762  0.666835328  0.873540824
     0.671810698  0.166781444  0.280849736
     0.673306811  0.166524899  0.780304572
     0.674860491  0.500000000  0.282583266
     0.672978491  0.500000000  0.780035079
     0.671810698  0.833218556  0.280849736
     0.673306811  0.833475101  0.780304572
     0.827740555  0.000000000  0.220587642
     0.828828030  0.000000000  0.720675998
     0.830361874  0.330325468  0.221863191
     0.829107661  0.332756732  0.720337101
     0.830361874  0.669674532  0.221863191
     0.829107661  0.667243268  0.720337101
     0.832428231  0.000000000  0.445649581
     0.832776438  0.000000000  0.946834030
     0.842009413  0.329817835  0.444843157
     0.830823738  0.333223238  0.945603358
     0.842009413  0.670182165  0.444843157
     0.830823738  0.666776762  0.945603358
     0.668588895  0.166803465  0.055506780
     0.670163711  0.166966479  0.554350977
     0.669021805  0.500000000  0.056397080
     0.671239508  0.500000000  0.553737487
     0.668588895  0.833196535  0.055506780
     0.670163711  0.833033521  0.554350977
     0.494719030  0.000000000  0.128451825
     0.498062234  0.000000000  0.627543278
     0.495419785  0.332375650  0.129416565
     0.497777162  0.333757761  0.627527982
     0.495419785  0.667624350  0.129416565
     0.497777162  0.666242239  0.627527982
     0.016662302  0.140904492  0.374420489
     0.004494034  0.166589378  0.872881742
     0.007177535  0.500000000  0.373588830
     0.003002378  0.500000000  0.874071919
     0.016662302  0.859095508  0.374420489
     0.004494034  0.833410622  0.872881742
     0.162113940  0.000000000  0.293716458
     0.170941216  0.000000000  0.776250344
     0.171030331  0.331653438  0.281167545
     0.173660921  0.335816439  0.783860967
     0.171030331  0.668346562  0.281167545
     0.173660921  0.664183561  0.783860967
     0.323846301  0.162821724  0.222152339
     0.325770619  0.163123104  0.717819645
     0.326372667  0.500000000  0.222513308
     0.327829494  0.500000000  0.721127791
     0.323846301  0.837178276  0.222152339
     0.325770619  0.836876896  0.717819645
     0.330654518  0.165526141  0.447966003
     0.330694273  0.165770332  0.946029598
     0.329501115  0.500000000  0.448016655
     0.333069103  0.500000000  0.948444287
     0.330654518  0.834473859  0.447966003
     0.330694273  0.834229668  0.946029598
     0.165931655  0.000000000  0.060041256
     0.169870457  0.334662716  0.055598608
     0.167568205  0.330091947  0.556061072
     0.169870457  0.665337284  0.055598608
     0.167568205  0.669908053  0.556061072
     0.102134979  0.000000000  0.406330804

  ion indices of the primitive-cell ions
   primitive index   ion index
                 1           1
                 2           2
                 3           3
                 4           4
                 5           5
                 6           6
                 7           7
                 8           8
                 9           9
                10          10
                11          11
                12          12
                13          13
                14          14
                15          15
                16          16
                17          17
                18          18
                19          19
                20          20
                21          21
                22          22
                23          23
                24          24
                25          25
                26          26
                27          27
                28          28
                29          29
                30          30
                31          31
                32          32
                33          33
                34          34
                35          35
                36          36
                37          37
                38          38
                39          39
                40          40
                41          41
                42          42
                43          43
                44          44
                45          45
                46          46
                47          47
                48          48
                49          49
                50          50
                51          51
                52          52
                53          53
                54          54
                55          55
                56          56
                57          57
                58          58
                59          59
                60          60
                61          61
                62          62
                63          63
                64          64
                65          65
                66          66
                67          67
                68          68
                69          69
                70          70
                71          71
                72          72
                73          73
                74          74
                75          75
                76          76
                77          77
                78          78
                79          79
                80          80
                81          81
                82          82
                83          83
                84          84
                85          85
                86          86
                87          87
                88          88
                89          89
                90          90
                91          91
                92          92
                93          93
                94          94
                95          95
                96          96
                97          97
                98          98
                99          99
               100         100
               101         101
               102         102
               103         103
               104         104
               105         105
               106         106
               107         107
               108         108
               109         109
               110         110
               111         111
               112         112
               113         113
               114         114
               115         115
               116         116
               117         117
               118         118
               119         119

----------------------------------------------------------------------------------------

 
 
 KPOINTS: Automatic mesh                          

Automatic generation of k-mesh.
 Grid dimensions read from file:
 generate k-points for:    2    2    2

 Generating k-lattice:

  Cartesian coordinates                     Fractional coordinates (reciprocal lattice)
     0.000000000  0.040715043 -0.009973711     0.500000000  0.000000000  0.000000000
     0.054688428 -0.000000000  0.000000000     0.000000000  0.500000000  0.000000000
     0.000000000  0.000000000 -0.044245056     0.000000000  0.000000000  0.500000000

  Length of vectors
     0.041918846  0.054688428  0.044245056

  Shift w.r.t. Gamma in fractional coordinates (k-lattice)
     0.000000000  0.000000000  0.000000000

 
 Subroutine IBZKPT returns following result:
 ===========================================
 
 Found      8 irreducible k-points:
 
 Following reciprocal coordinates:
            Coordinates               Weight
  0.000000  0.000000  0.000000      1.000000
  0.500000  0.000000  0.000000      1.000000
  0.000000  0.500000  0.000000      1.000000
  0.500000  0.500000  0.000000      1.000000
  0.000000  0.000000  0.500000      1.000000
  0.500000  0.000000  0.500000      1.000000
  0.000000  0.500000  0.500000      1.000000
  0.500000  0.500000  0.500000      1.000000
 
 Following cartesian coordinates:
            Coordinates               Weight
  0.000000  0.000000 -0.000000      1.000000
  0.000000  0.040715 -0.009974      1.000000
  0.054688  0.000000 -0.000000      1.000000
  0.054688  0.040715 -0.009974      1.000000
  0.000000  0.000000 -0.044245      1.000000
  0.000000  0.040715 -0.054219      1.000000
  0.054688  0.000000 -0.044245      1.000000
  0.054688  0.040715 -0.054219      1.000000
 
 
 Subroutine IBZKPT_HF returns following result:
 ==============================================
 
 Found      8 k-points in 1st BZ
 the following      8 k-points will be used (e.g. in the exchange kernel)
 Following reciprocal coordinates:   # in IRBZ
  0.000000  0.000000  0.000000    0.12500000   1 t-inv F
  0.500000  0.000000  0.000000    0.12500000   2 t-inv F
  0.000000  0.500000  0.000000    0.12500000   3 t-inv F
  0.500000  0.500000  0.000000    0.12500000   4 t-inv F
  0.000000  0.000000  0.500000    0.12500000   5 t-inv F
  0.500000  0.000000  0.500000    0.12500000   6 t-inv F
  0.000000  0.500000  0.500000    0.12500000   7 t-inv F
  0.500000  0.500000  0.500000    0.12500000   8 t-inv F


--------------------------------------------------------------------------------------------------------




 Dimension of arrays:
   k-points           NKPTS =      8   k-points in BZ     NKDIM =      8   number of bands    NBANDS=    625
   number of dos      NEDOS =    301   number of ions     NIONS =    119
   non local maximal  LDIM  =      6   non local SUM 2l+1 LMDIM =     18
   total plane-waves  NPLWV = 184320
   max r-space proj   IRMAX =   1800   max aug-charges    IRDMAX=   5704
   dimension x,y,z NGX =    64 NGY =   48 NGZ =   60
   dimension x,y,z NGXF=   128 NGYF=   96 NGZF=  120
   support grid    NGXF=   128 NGYF=   96 NGZF=  120
   ions per type =              47  71   1
   NGX,Y,Z   is equivalent  to a cutoff of   8.66,  8.73,  8.57 a.u.
   NGXF,Y,Z  is equivalent  to a cutoff of  17.33, 17.46, 17.15 a.u.

 SYSTEM =  unknown system                          
 POSCAR =  Ga48 O72                                

 Startparameter for this run:
   NWRITE =      2    write-flag & timer
   PREC   = normal    normal or accurate (medium, high low for compatibility)
   ISTART =      0    job   : 0-new  1-cont  2-samecut
   ICHARG =      0    charge: 1-file 2-atom 10-const
   ISPIN  =      1    spin polarized calculation?
   LNONCOLLINEAR =      F non collinear calculations
   LSORBIT =      F    spin-orbit coupling
   INIWAV =      1    electr: 0-lowe 1-rand  2-diag
   LASPH  =      F    aspherical Exc in radial PAW
 Electronic Relaxation 1
   ENCUT  =  450.0 eV  33.07 Ry    5.75 a.u.  21.24 15.81 20.12*2*pi/ulx,y,z
   ENINI  =  450.0     initial cutoff
   ENAUG  =  605.4 eV  augmentation charge cutoff
   NELM   =    500;   NELMIN=  2; NELMDL= -5     # of ELM steps 
   EDIFF  = 0.1E-04   stopping-criterion for ELM
   LREAL  =      T    real-space projection
   NLSPLINE    = F    spline interpolate recip. space projectors
   LCOMPAT=      F    compatible to vasp.4.4
   GGA_COMPAT  = T    GGA compatible to vasp.4.4-vasp.4.6
   LMAXPAW     = -100 max onsite density
   LMAXMIX     =    2 max onsite mixed and CHGCAR
   VOSKOWN=      0    Vosko Wilk Nusair interpolation
   ROPT   =   -0.00050  -0.00050  -0.00050
 Ionic relaxation
   EDIFFG = -.5E-02   stopping-criterion for IOM
   NSW    =      0    number of steps for IOM
   NBLOCK =      1;   KBLOCK =      1    inner block; outer block 
   IBRION =     -1    ionic relax: 0-MD 1-quasi-New 2-CG
   NFREE  =      0    steps in history (QN), initial steepest desc. (CG)
   ISIF   =      2    stress and relaxation
   IWAVPR =     10    prediction:  0-non 1-charg 2-wave 3-comb
   ISYM   =      3    0-nonsym 1-usesym 2-fastsym
   LCORR  =      T    Harris-Foulkes like correction to forces

   POTIM  = 0.5000    time-step for ionic-motion
   TEIN   =    0.0    initial temperature
   TEBEG  =    0.0;   TEEND  =   0.0 temperature during run
   SMASS  =  -3.00    Nose mass-parameter (am)
   estimated Nose-frequenzy (Omega)   =  0.10E-29 period in steps = 0.13E+47 mass=  -0.345E-26a.u.
   SCALEE = 1.0000    scale energy and forces
   NPACO  =    256;   APACO  = 10.0  distance and # of slots for P.C.
   PSTRESS=    0.0 pullay stress

  Mass of Ions in am
   POMASS =  69.72 16.00 30.97
  Ionic Valenz
   ZVAL   =  13.00  6.00  5.00
  Atomic Wigner-Seitz radii
   RWIGS  =  -1.00 -1.00 -1.00
  virtual crystal weights 
   VCA    =   1.00  1.00  1.00
   NELECT =    1042.0000    total number of electrons
   NUPDOWN=      -1.0000    fix difference up-down

 DOS related values:
   EMIN   =  10.00;   EMAX   =-10.00  energy-range for DOS
   EFERMI =   0.00;   METHOD = LEGACY      
   ISMEAR =     0;   SIGMA  =   0.05  broadening in eV -4-tet -1-fermi 0-gaus

 Electronic relaxation 2 (details)
   IALGO  =     58    algorithm
   LDIAG  =      T    sub-space diagonalisation (order eigenvalues)
   LSUBROT=      F    optimize rotation matrix (better conditioning)
   TURBO    =      0    0=normal 1=particle mesh
   IRESTART =      0    0=no restart 2=restart with 2 vectors
   NREBOOT  =      0    no. of reboots
   NMIN     =      0    reboot dimension
   EREF     =   0.00    reference energy to select bands
   IMIX   =      4    mixing-type and parameters
     AMIX     =   0.40;   BMIX     =  1.00
     AMIX_MAG =   1.60;   BMIX_MAG =  1.00
     AMIN     =   0.10
     WC   =   100.;   INIMIX=   1;  MIXPRE=   1;  MAXMIX= -45

 Intra band minimization:
   WEIMIN = 0.0000     energy-eigenvalue tresh-hold
   EBREAK =  0.40E-08  absolut break condition
   DEPER  =   0.30     relativ break condition  

   TIME   =   0.40     timestep for ELM

  volume/ion in A,a.u.               =      10.66        71.95
  Fermi-wavevector in a.u.,A,eV,Ry     =   1.533083  2.897107 31.978378  2.350344
  Thomas-Fermi vector in A             =   2.640200
 
 Write flags
   LWAVE        =      T    write WAVECAR
   LDOWNSAMPLE  =      F    k-point downsampling of WAVECAR
   LCHARG       =      T    write CHGCAR
   LVTOT        =      F    write LOCPOT, total local potential
   LVHAR        =      F    write LOCPOT, Hartree potential only
   LELF         =      F    write electronic localiz. function (ELF)
   LORBIT       =      0    0 simple, 1 ext, 2 COOP (PROOUT), +10 PAW based schemes


 Dipole corrections
   LMONO  =      F    monopole corrections only (constant potential shift)
   LDIPOL =      F    correct potential (dipole corrections)
   IDIPOL =      0    1-x, 2-y, 3-z, 4-all directions 
   EPSILON=  1.0000000 bulk dielectric constant

 Exchange correlation treatment:
   GGA     =    --    GGA type
   LEXCH   =     8    internal setting for exchange type
   LIBXC   =     F    Libxc                    
   VOSKOWN =     0    Vosko Wilk Nusair interpolation
   EXXOEP  =     0    0=HF, 1=EXX-LHF (local Hartree Fock) 2=EXX OEP
   LHFCALC =     T    Hartree Fock is set to
   LSYMGRAD=     F    symmetrize gradient (conserves proper symmetry)
   PRECFOCK=fast      Normal, Fast or Accurate (Low or Medium for compatibility)
   LRHFCALC=     F    long range Hartree Fock
   LRSCOR  =     F    long range correlation only (use DFT for short range part)
   LTHOMAS =     F    Thomas Fermi screening in HF
   LMODELHF=     F    short range full HF, long range fraction AEXX
   FOCKCORR=     1    mode to apply convergence corrections
   LFOCKACE=     T    use Adeptively-Compressed-Exchange operator
   ENCUT4O =  -1.0   cutoff for four orbital integrals eV
   LMAXFOCK=     4    L truncation for augmentation on plane wave grid
   LMAXFOCKAE=  -1    L truncation for all-electron charge restoration on plane wave grid
   NMAXFOCKAE=   1    number of basis functions for all-electron charge restoration
   LFOCKAEDFT=     F  apply the AE augmentation even for DFT
   NKREDX  =     1    reduce k-point grid by
   NKREDY  =     1    reduce k-point grid by
   NKREDZ  =     1    reduce k-point grid by
   SHIFTRED=     F    shift reduced grid of Gamma
   HFKIDENT=     F    idential grid for each k-point
   ODDONLY =     F    use only odd q-grid points
   EVENONLY=     F    use only even q-grid points
   HFALPHA =   -1.0000 decay constant for conv. correction
   MCALPHA =    0.0000 extent of test-charge in conv. correction in multipole expansion
   AEXX    =    0.3500 exact exchange contribution
   HFSCREEN=    0.1800 screening length (either q_TF or 0.3 A-1)
   HFSCREENC=   0.1800 screening length for correlation (either q_TF or 0.3 A-1)
   HFRCUT  =    0.0000 spherical cutoff for potential kernel
   ALDAX   =    0.6500 LDA exchange part
   AGGAX   =    0.6500 GGA exchange part
   ALDAC   =    1.0000 LDA correlation
   AGGAC   =    1.0000 GGA correlation
   ENCUTFOCK=  -1.0 apply spherical cutoff to Coloumb kernel
   NBANDSGWLOW=     1    first orbital included in HF term
   NBLOCK_FOCK=    64    blocking factor in FOCK_ACC

 Linear response parameters
   LEPSILON=     F    determine dielectric tensor
   LRPA    =     F    only Hartree local field effects (RPA)
   LNABLA  =     F    use nabla operator in PAW spheres
   LVEL    =     F    velocity operator in full k-point grid
   CSHIFT  =0.1000    complex shift for real part using Kramers Kronig
   OMEGAMAX=  -1.0    maximum frequency
   DEG_THRESHOLD= 0.2000000E-02 threshold for treating states as degnerate
   RTIME   =   -0.100 relaxation time in fs
  (WPLASMAI=    0.000 imaginary part of plasma frequency in eV, 0.658/RTIME)
   DFIELD  = 0.0000000 0.0000000 0.0000000 field for delta impulse in time
 
  Optional k-point grid parameters
   LKPOINTS_OPT  =     F    use optional k-point grid
   KPOINTS_OPT_MODE=     1    mode for optional k-point grid
 
 Orbital magnetization related:
   ORBITALMAG=     F  switch on orbital magnetization
   LCHIMAG   =     F  perturbation theory with respect to B field
   DQ        =  0.001000  dq finite difference perturbation B field
   LLRAUG    =     F  two centre corrections for induced B field
   LBONE     =     F  B-component reconstruction in AE one-centre
   LVGVCALC  =     T  calculate vGv susceptibility
   LVGVAPPL  =     F  apply vGv susceptibility instead of pGv for G=0

 Random number generation:
   RANDOM_GENERATOR = DEFAULT
   PCG_SEED         = not used


--------------------------------------------------------------------------------------------------------


 Static calculation
 charge density and potential will be updated during run
 non-spin polarized calculation
 Conjugate gradient for all bands (Freysoldt, et al. PRB 79, 241103 (2009))
 preconditioned conjugated gradient                                        
 perform sub-space diagonalisation
    before iterative eigenvector-optimisation
 modified Broyden-mixing scheme, WC =      100.0
 initial mixing is a Kerker type mixing with AMIX =  0.4000 and BMIX =      1.0000
 Hartree-type preconditioning will be used
 using additional bands           104
 real space projection scheme for non local part
 use partial core corrections
 no Harris-corrections to forces 
 use gradient corrections 
 use of overlap-Matrix (Vanderbilt PP)
 Gauss-broadening in eV      SIGMA  =   0.05


--------------------------------------------------------------------------------------------------------


  energy-cutoff  :      450.00
  volume of cell :     1268.81
      direct lattice vectors                 reciprocal lattice vectors
     0.000000000 12.280473417  0.000000000     0.000000000  0.081430085 -0.019947423
     9.142702054  0.000000000  0.000000000     0.109376855 -0.000000000  0.000000000
     0.000000000 -2.768261773-11.300697718     0.000000000  0.000000000 -0.088490111

  length of vectors
    12.280473417  9.142702054 11.634820246     0.083837691  0.109376855  0.088490111


 
 k-points in units of 2pi/SCALE and weight: Automatic mesh                          
   0.00000000  0.00000000 -0.00000000       0.125
   0.00000000  0.04071504 -0.00997371       0.125
   0.05468843  0.00000000 -0.00000000       0.125
   0.05468843  0.04071504 -0.00997371       0.125
   0.00000000  0.00000000 -0.04424506       0.125
   0.00000000  0.04071504 -0.05421877       0.125
   0.05468843  0.00000000 -0.04424506       0.125
   0.05468843  0.04071504 -0.05421877       0.125
 
 k-points in reciprocal lattice and weights: Automatic mesh                          
   0.00000000  0.00000000  0.00000000       0.125
   0.50000000  0.00000000  0.00000000       0.125
   0.00000000  0.50000000  0.00000000       0.125
   0.50000000  0.50000000  0.00000000       0.125
   0.00000000  0.00000000  0.50000000       0.125
   0.50000000  0.00000000  0.50000000       0.125
   0.00000000  0.50000000  0.50000000       0.125
   0.50000000  0.50000000  0.50000000       0.125
 
 position of ions in fractional coordinates (direct lattice) 
   0.65682255  0.00000000  0.15587234
   0.66050280  0.00000000  0.65696829
   0.65856673  0.33305875  0.15785831
   0.66064973  0.33346769  0.65673483
   0.65856673  0.66694125  0.15785831
   0.66064973  0.66653231  0.65673483
   0.83857518  0.16357439  0.34178553
   0.84118771  0.16642315  0.84405648
   0.84363971  0.50000000  0.34323002
   0.84056778  0.50000000  0.84346049
   0.83857518  0.83642561  0.34178553
   0.84118771  0.83357685  0.84405648
   0.59089909  0.16710913  0.39867719
   0.59296747  0.16677628  0.89832987
   0.59063110  0.50000000  0.39811751
   0.59289749  0.50000000  0.89878614
   0.59089909  0.83289087  0.39867719
   0.59296747  0.83322372  0.89832987
   0.90965338  0.00000000  0.10318880
   0.90831525  0.00000000  0.60281283
   0.90795363  0.33389951  0.10145927
   0.91072572  0.33300183  0.60399302
   0.90795363  0.66610049  0.10145927
   0.91072572  0.66699817  0.60399302
   0.15732697  0.17071049  0.15626192
   0.15910536  0.17514756  0.66802125
   0.15859865  0.50000000  0.15846921
   0.16051428  0.50000000  0.65742403
   0.15732697  0.82928951  0.15626192
   0.15910536  0.82485244  0.66802125
   0.34274499  0.00000000  0.34658800
   0.34360687  0.00000000  0.84428083
   0.34020072  0.33340396  0.34591442
   0.34332032  0.33452603  0.84730070
   0.34020072  0.66659604  0.34591442
   0.34332032  0.66547397  0.84730070
   0.09236830  0.00000000  0.90062018
   0.09246348  0.32916263  0.39974992
   0.09055110  0.33419847  0.90021988
   0.09246348  0.67083737  0.39974992
   0.09055110  0.66580153  0.90021988
   0.40661365  0.16633237  0.10409236
   0.41117529  0.16702533  0.60363976
   0.40867671  0.50000000  0.10569121
   0.40979577  0.50000000  0.60395864
   0.40661365  0.83366763  0.10409236
   0.41117529  0.83297467  0.60363976
   0.99625178  0.16765596  0.12890124
   0.99886083  0.16440332  0.62361770
   0.99628722  0.50000000  0.12697919
   0.99841970  0.50000000  0.62876964
   0.99625178  0.83234404  0.12890124
   0.99886083  0.83559668  0.62361770
   0.50380630  0.00000000  0.37413086
   0.50501002  0.00000000  0.87366029
   0.50236970  0.33328543  0.37378490
   0.50458276  0.33316467  0.87354082
   0.50236970  0.66671457  0.37378490
   0.50458276  0.66683533  0.87354082
   0.67181070  0.16678144  0.28084974
   0.67330681  0.16652490  0.78030457
   0.67486049  0.50000000  0.28258327
   0.67297849  0.50000000  0.78003508
   0.67181070  0.83321856  0.28084974
   0.67330681  0.83347510  0.78030457
   0.82774055  0.00000000  0.22058764
   0.82882803  0.00000000  0.72067600
   0.83036187  0.33032547  0.22186319
   0.82910766  0.33275673  0.72033710
   0.83036187  0.66967453  0.22186319
   0.82910766  0.66724327  0.72033710
   0.83242823  0.00000000  0.44564958
   0.83277644  0.00000000  0.94683403
   0.84200941  0.32981784  0.44484316
   0.83082374  0.33322324  0.94560336
   0.84200941  0.67018216  0.44484316
   0.83082374  0.66677676  0.94560336
   0.66858889  0.16680346  0.05550678
   0.67016371  0.16696648  0.55435098
   0.66902181  0.50000000  0.05639708
   0.67123951  0.50000000  0.55373749
   0.66858889  0.83319654  0.05550678
   0.67016371  0.83303352  0.55435098
   0.49471903  0.00000000  0.12845182
   0.49806223  0.00000000  0.62754328
   0.49541979  0.33237565  0.12941657
   0.49777716  0.33375776  0.62752798
   0.49541979  0.66762435  0.12941657
   0.49777716  0.66624224  0.62752798
   0.01666230  0.14090449  0.37442049
   0.00449403  0.16658938  0.87288174
   0.00717754  0.50000000  0.37358883
   0.00300238  0.50000000  0.87407192
   0.01666230  0.85909551  0.37442049
   0.00449403  0.83341062  0.87288174
   0.16211394  0.00000000  0.29371646
   0.17094122  0.00000000  0.77625034
   0.17103033  0.33165344  0.28116755
   0.17366092  0.33581644  0.78386097
   0.17103033  0.66834656  0.28116755
   0.17366092  0.66418356  0.78386097
   0.32384630  0.16282172  0.22215234
   0.32577062  0.16312310  0.71781965
   0.32637267  0.50000000  0.22251331
   0.32782949  0.50000000  0.72112779
   0.32384630  0.83717828  0.22215234
   0.32577062  0.83687690  0.71781965
   0.33065452  0.16552614  0.44796600
   0.33069427  0.16577033  0.94602960
   0.32950112  0.50000000  0.44801665
   0.33306910  0.50000000  0.94844429
   0.33065452  0.83447386  0.44796600
   0.33069427  0.83422967  0.94602960
   0.16593165  0.00000000  0.06004126
   0.16987046  0.33466272  0.05559861
   0.16756820  0.33009195  0.55606107
   0.16987046  0.66533728  0.05559861
   0.16756820  0.66990805  0.55606107
   0.10213498  0.00000000  0.40633080
 
 position of ions in cartesian coordinates  (Angst):
   0.00000000  7.63459639 -1.76146617
   0.00000000  6.29262694 -7.42420002
   3.04505693  7.65051811 -1.78390901
   3.04879570  6.29507753 -7.42156181
   6.09764512  7.65051811 -1.78390901
   6.09390636  6.29507753 -7.42156181
   1.49551189  9.35194842 -3.86241491
   1.52155725  7.99361406 -9.53842710
   4.57135103  9.41014451 -3.87873873
   4.57135103  7.98765090 -9.53169198
   7.64719016  9.35194842 -3.86241491
   7.62114481  7.99361406 -9.53842710
   1.52782897  6.15287773 -4.50533041
   1.52478585  4.79510901-10.15175430
   4.57135103  6.15113599 -4.49900564
   4.57135103  4.79298655-10.15691052
   7.61487309  6.15287773 -4.50533041
   7.61791620  4.79510901-10.15175430
   0.00000000 10.88532054 -1.16610547
   0.00000000  9.48579760 -6.81220563
   3.05274376 10.86923457 -1.14656051
   3.04453655  9.51213216 -6.82554253
   6.08995830 10.86923457 -1.14656051
   6.09816550  9.51213216 -6.82554253
   1.56075515  1.49947573 -1.76586871
   1.60132195  0.10463147 -7.54910620
   4.57135103  1.50898223 -1.79081262
   4.57135103  0.15126950 -7.42935023
   7.58194690  1.49947573 -1.76586871
   7.54138011  0.10463147 -7.54910620
   0.00000000  3.24962441 -3.91668618
   0.00000000  1.88246469 -9.54096240
   3.04821308  3.22024422 -3.90907434
   3.05847183  1.87058598 -9.57508909
   6.09448897  3.22024422 -3.90907434
   6.08423022  1.87058598 -9.57508909
   0.00000000 -1.35882597-10.17763642
   3.00943587  0.02888283 -4.51745303
   3.05547705 -1.38003397-10.17311279
   6.13326618  0.02888283 -4.51745303
   6.08722500 -1.38003397-10.17311279
   1.52072726  4.70525321 -1.17631625
   1.52706284  3.37839430 -6.82155050
   4.57135103  4.72616251 -1.19438438
   4.57135103  3.36057042 -6.82515404
   7.62197479  4.70525321 -1.17631625
   7.61563921  3.37839430 -6.82155050
   1.53282848 11.87761109 -1.45667397
   1.50309059 10.54014681 -7.04731514
   4.57135103 11.88336715 -1.43495339
   4.57135103 10.52046767 -7.10553564
   7.60987357 11.87761109 -1.45667397
   7.63961147 10.54014681 -7.04731514
   0.00000000  5.15128775 -4.22793980
   0.00000000  3.78324170 -9.87297088
   3.04712942  5.13460336 -4.22403013
   3.04602533  3.77832552 -9.87162080
   6.09557263  5.13460336 -4.22403013
   6.09667672  3.77832552 -9.87162080
   1.52483305  7.47268783 -3.17379797
   1.52248754  6.10843907 -8.81798609
   4.57135103  7.50534187 -3.19338807
   4.57135103  6.10515317 -8.81494064
   7.61786900  7.47268783 -3.17379797
   7.62021452  6.10843907 -8.81798609
   0.00000000  9.55440154 -2.49279426
   0.00000000  8.18338077 -8.14414161
   3.02006733  9.58306153 -2.50720886
   3.04229565  8.18775293 -8.14031183
   6.12263472  9.58306153 -2.50720886
   6.10040640  8.18775293 -8.14031183
   0.00000000  8.98893806 -5.03615120
   0.00000000  7.60580446-10.69988516
   3.01542620  9.10883190 -5.02703805
   3.04656079  7.58523120-10.68597771
   6.12727586  9.10883190 -5.02703805
   6.09614127  7.58523120-10.68597771
   1.52503438  8.05693085 -0.62726534
   1.52652477  6.69533902 -6.26455282
   4.57135103  8.05978261 -0.63732636
   4.57135103  6.71024862 -6.25761995
   7.61766767  8.05693085 -0.62726534
   7.61617729  6.69533902 -6.26455282
   0.00000000  5.71979562 -1.45159524
   0.00000000  4.37923596 -7.09167689
   3.03881154  5.72573057 -1.46249748
   3.05144776  4.37577749 -7.09150403
   6.10389052  5.72573057 -1.46249748
   6.09125429  4.37577749 -7.09150403
   1.28824779 -0.83187298 -4.23121277
   1.52307705 -2.36117629 -9.86417271
   4.57135103 -0.94604814 -4.22181444
   4.57135103 -2.38278925 -9.87762254
   7.85445427 -0.83187298 -4.23121277
   7.61962500 -2.36117629 -9.86417271
   0.00000000  1.17775189 -3.31920090
   0.00000000 -0.04962509 -8.77217049
   3.03220857  1.32198807 -3.17738944
   3.07026965 -0.03729403 -8.85817584
   6.11049349  1.32198807 -3.17738944
   6.07243241 -0.03729403 -8.85817584
   1.48863051  3.36201007 -2.51047643
   1.49138594  2.01350474 -8.11186283
   4.57135103  3.39203577 -2.51455563
   4.57135103  2.02963089 -8.14924718
   7.65407154  3.36201007 -2.51047643
   7.65131612  2.01350474 -8.11186283
   1.51335619  2.82050686 -5.06232838
   1.51558876  1.44222466-10.69079452
   4.57135103  2.80620231 -5.06290079
   4.57135103  1.46470420-10.71808220
   7.62934586  2.82050686 -5.06232838
   7.62711329  1.44222466-10.69079452
   0.00000000  1.87150936 -0.67850808
   3.05972150  1.93217813 -0.62830307
   3.01793233  0.51849427 -6.28387809
   6.08298055  1.93217813 -0.62830307
   6.12476973  0.51849427 -6.28387809
   0.00000000  0.12943587 -4.59182159
 


--------------------------------------------------------------------------------------------------------


 k-point   1 :   0.0000 0.0000 0.0000  plane waves:   27533
 k-point   2 :   0.5000 0.0000 0.0000  plane waves:   27522
 k-point   3 :   0.0000 0.5000 0.0000  plane waves:   27488
 k-point   4 :   0.5000 0.5000 0.0000  plane waves:   27488
 k-point   5 :   0.0000 0.0000 0.5000  plane waves:   27482
 k-point   6 :   0.5000 0.0000 0.5000  plane waves:   27476
 k-point   7 :   0.0000 0.5000 0.5000  plane waves:   27468
 k-point   8 :   0.5000 0.5000 0.5000  plane waves:   27564

 maximum and minimum number of plane-waves per node :     27564    27468

 maximum number of plane-waves:     27564
 maximum index in each direction: 
   IXMAX=   21   IYMAX=   15   IZMAX=   20
   IXMIN=  -21   IYMIN=  -16   IZMIN=  -20


 serial   3D FFT for wavefunctions
 parallel 3D FFT for charge:
    minimum data exchange during FFTs selected (reduces bandwidth)


 FFT grid for exact exchange (Hartree Fock) 
  NGX = 48; NGY = 36; NGZ = 48

 
 Radii for the augmentation spheres in the non-local exchange
 for species   1 augmentation radius   1.392 (default was   1.031)
       energy cutoff for augmentation   1800.0
 for species   2 augmentation radius   0.974 (default was   0.722)
       energy cutoff for augmentation   1800.0
 for species   3 augmentation radius   1.294 (default was   0.959)
       energy cutoff for augmentation   1800.0
 Maximum index for augmentation-charges in exchange           748
  SETUP_FOCK is finished

 total amount of memory used by VASP MPI-rank0  7175187. kBytes
=======================================================================

   base      :      30000. kBytes
   nonlr-proj:      32518. kBytes
   fftplans  :      51012. kBytes
   grid      :     102973. kBytes
   one-center:       1850. kBytes
   HF        :        194. kBytes
   wavefun   :    6956640. kBytes
 
     INWAV:  cpu time      0.0001: real time      0.0001
 Broyden mixing: mesh for mixing (old mesh)
   NGX = 43   NGY = 31   NGZ = 41
  (NGX  =128   NGY  = 96   NGZ  =120)
  gives a total of  54653 points

 charge density for first step will be calculated from the start-wavefunctions


--------------------------------------------------------------------------------------------------------


 Maximum index for non-local projection operator          1720
 Maximum index for augmentation-charges          5356 (set IRDMAX)


--------------------------------------------------------------------------------------------------------


 initial charge from wavefunction
 First call to EWALD:  gamma=   0.164
 Maximum number of real-space cells 3x 3x 3
 Maximum number of reciprocal cells 3x 2x 3

    FEWALD:  cpu time      0.0726: real time      0.0726


--------------------------------------- Ionic step        1  -------------------------------------------




--------------------------------------- Iteration      1(   1)  ---------------------------------------


    POTLOK:  cpu time      0.0400: real time      0.0400
    SETDIJ:  cpu time      0.1168: real time      0.1167
    TRIAL :  cpu time      2.8878: real time      2.8972
    CORREC:  cpu time      0.0014: real time      0.0014
    --------------------------------------------
      LOOP:  cpu time      3.9386: real time      3.9474

 eigenvalue-minimisations  : 10488
 total energy-change (2. order) :-0.2136471E+05  (-0.5450478E+05)
 number of electron    1041.9999527 magnetization 
 augmentation part      118.4543215 magnetization 

 Free energy of the ion-electron system (eV)
  ---------------------------------------------------
  alpha Z        PSCENC =      5376.25786726
  Ewald energy   TEWEN  =    -86550.04632402
  -Hartree energ DENC   =     -2080.70350135
  -exchange      EXHF   =         0.00000000
  -V(xc)+E(xc)   XCENC  =      2751.55950831
  PAW double counting   =    332246.28878934  -363558.85199951
  entropy T*S    EENTRO =        -0.00386786
  eigenvalues    EBANDS =    -41008.56578923
  atomic energy  EATOM  =    131459.35058357
  ---------------------------------------------------
  free energy    TOTEN  =    -21364.71473348 eV

  energy without entropy =   -21364.71086562  energy(sigma->0) =   -21364.71279955
  exchange ACFDT corr.  =         0.00000000  see jH, gK, PRB 81, 115126


--------------------------------------------------------------------------------------------------------




--------------------------------------- Iteration      1(   2)  ---------------------------------------


    TRIAL :  cpu time      3.1221: real time      3.1214
    CORREC:  cpu time      0.0015: real time      0.0015
    --------------------------------------------
      LOOP:  cpu time      3.1239: real time      3.1243

 eigenvalue-minimisations  : 13200
 total energy-change (2. order) :-0.4429874E+05  (-0.4275699E+05)
 number of electron    1041.9999527 magnetization 
 augmentation part      118.4543215 magnetization 

 Free energy of the ion-electron system (eV)
  ---------------------------------------------------
  alpha Z        PSCENC =      5376.25786726
  Ewald energy   TEWEN  =    -86550.04632402
  -Hartree energ DENC   =     -2080.70350135
  -exchange      EXHF   =         0.00000000
  -V(xc)+E(xc)   XCENC  =      2751.55950831
  PAW double counting   =    332246.28878934  -363558.85199951
  entropy T*S    EENTRO =        -0.02230526
  eigenvalues    EBANDS =    -85307.28776221
  atomic energy  EATOM  =    131459.35058357
  ---------------------------------------------------
  free energy    TOTEN  =    -65663.45514386 eV

  energy without entropy =   -65663.43283860  energy(sigma->0) =   -65663.44399123
  exchange ACFDT corr.  =         0.00000000  see jH, gK, PRB 81, 115126


--------------------------------------------------------------------------------------------------------




--------------------------------------- Iteration      1(   3)  ---------------------------------------


    TRIAL :  cpu time      3.3317: real time      3.3310
    CORREC:  cpu time      0.0016: real time      0.0016
    --------------------------------------------
      LOOP:  cpu time      3.3337: real time      3.3333

 eigenvalue-minimisations  : 14395
 total energy-change (2. order) :-0.5003596E+04  (-0.4560334E+04)
 number of electron    1041.9999527 magnetization 
 augmentation part      118.4543215 magnetization 

 Free energy of the ion-electron system (eV)
  ---------------------------------------------------
  alpha Z        PSCENC =      5376.25786726
  Ewald energy   TEWEN  =    -86550.04632402
  -Hartree energ DENC   =     -2080.70350135
  -exchange      EXHF   =         0.00000000
  -V(xc)+E(xc)   XCENC  =      2751.55950831
  PAW double counting   =    332246.28878934  -363558.85199951
  entropy T*S    EENTRO =        -0.02869958
  eigenvalues    EBANDS =    -90310.87728284
  atomic energy  EATOM  =    131459.35058357
  ---------------------------------------------------
  free energy    TOTEN  =    -70667.05105881 eV

  energy without entropy =   -70667.02235923  energy(sigma->0) =   -70667.03670902
  exchange ACFDT corr.  =         0.00000000  see jH, gK, PRB 81, 115126


--------------------------------------------------------------------------------------------------------




--------------------------------------- Iteration      1(   4)  ---------------------------------------


    TRIAL :  cpu time      3.8731: real time      3.8723
    CORREC:  cpu time      0.0016: real time      0.0016
    --------------------------------------------
      LOOP:  cpu time      3.8749: real time      3.8745

 eigenvalue-minimisations  : 18408
 total energy-change (2. order) :-0.7481394E+03  (-0.6623914E+03)
 number of electron    1041.9999527 magnetization 
 augmentation part      118.4543215 magnetization 

 Free energy of the ion-electron system (eV)
  ---------------------------------------------------
  alpha Z        PSCENC =      5376.25786726
  Ewald energy   TEWEN  =    -86550.04632402
  -Hartree energ DENC   =     -2080.70350135
  -exchange      EXHF   =         0.00000000
  -V(xc)+E(xc)   XCENC  =      2751.55950831
  PAW double counting   =    332246.28878934  -363558.85199951
  entropy T*S    EENTRO =        -0.02484809
  eigenvalues    EBANDS =    -91059.02058046
  atomic energy  EATOM  =    131459.35058357
  ---------------------------------------------------
  free energy    TOTEN  =    -71415.19050494 eV

  energy without entropy =   -71415.16565685  energy(sigma->0) =   -71415.17808090
  exchange ACFDT corr.  =         0.00000000  see jH, gK, PRB 81, 115126


--------------------------------------------------------------------------------------------------------




--------------------------------------- Iteration      1(   5)  ---------------------------------------


    POTLOK:  cpu time      1.3473: real time      1.3470
    SETDIJ:  cpu time      0.4782: real time      0.4780
    TRIAL :  cpu time    228.3042: real time    228.2616
    CORREC:  cpu time      0.0015: real time      0.0015
    CHARGE:  cpu time      0.2052: real time      0.2052
    --------------------------------------------
      LOOP:  cpu time    230.3366: real time    230.2939

 eigenvalue-minimisations  : 18440
 total energy-change (2. order) : 0.3239544E+05  (-0.7272517E+02)
 number of electron    1041.9998780 magnetization 
 augmentation part      478.9631264 magnetization 

 Free energy of the ion-electron system (eV)
  ---------------------------------------------------
  alpha Z        PSCENC =      5376.25786726
  Ewald energy   TEWEN  =    -86550.04632402
  -Hartree energ DENC   =     -2080.70350135
  -exchange      EXHF   =      5232.22985210
  -V(xc)+E(xc)   XCENC  =      1824.09667130
  PAW double counting   =    333566.62708760  -335560.14645961
  entropy T*S    EENTRO =        -0.00237291
  eigenvalues    EBANDS =    -92287.41236233
  atomic energy  EATOM  =    131459.35058357
  ---------------------------------------------------
  free energy    TOTEN  =    -39019.74895839 eV

  energy without entropy =   -39019.74658549  energy(sigma->0) =   -39019.74777194
  exchange ACFDT corr.  =        -0.06679037  see jH, gK, PRB 81, 115126


--------------------------------------------------------------------------------------------------------




--------------------------------------- Iteration      1(   6)  ---------------------------------------


    POTLOK:  cpu time      1.3537: real time      1.3535
    SETDIJ:  cpu time      0.5123: real time      0.5122
    TRIAL :  cpu time    227.4540: real time    227.4064
    CORREC:  cpu time    230.1429: real time    230.1023
    CHARGE:  cpu time      0.2028: real time      0.2028
    --------------------------------------------
      LOOP:  cpu time    459.6679: real time    459.5796

 eigenvalue-minimisations  :     0
 total energy-change (2. order) : 0.6866150E+05  (-0.1992864E+05)
 number of electron    1041.9998391 magnetization 
 augmentation part      452.4885889 magnetization 

 Free energy of the ion-electron system (eV)
  ---------------------------------------------------
  alpha Z        PSCENC =      5376.25786726
  Ewald energy   TEWEN  =    -86550.04632402
  -Hartree energ DENC   =    -78317.11981260
  -exchange      EXHF   =      5338.30703872
  -V(xc)+E(xc)   XCENC  =      3577.34568374
  PAW double counting   =    148472.58210175  -172937.33461741
  entropy T*S    EENTRO =        -0.02716383
  eigenvalues    EBANDS =     73222.40932340
  atomic energy  EATOM  =    131459.35058357
  ---------------------------------------------------
  free energy    TOTEN  =     29641.74947150 eV

  energy without entropy =    29641.77663532  energy(sigma->0) =    29641.76305341
  exchange ACFDT corr.  =        -0.02222665  see jH, gK, PRB 81, 115126


--------------------------------------------------------------------------------------------------------




--------------------------------------- Iteration      1(   7)  ---------------------------------------


    POTLOK:  cpu time      1.4911: real time      1.4908
    SETDIJ:  cpu time      0.4318: real time      0.4318
    TRIAL :  cpu time    227.4831: real time    227.4463
    CORREC:  cpu time    230.0613: real time    230.0234
    CHARGE:  cpu time      0.2019: real time      0.2019
    --------------------------------------------
      LOOP:  cpu time    459.6722: real time    459.5975

 eigenvalue-minimisations  :     0
 total energy-change (2. order) :-0.1817272E+05  (-0.6060839E+04)
 number of electron    1041.9998526 magnetization 
 augmentation part      414.0054391 magnetization 

 Free energy of the ion-electron system (eV)
  ---------------------------------------------------
  alpha Z        PSCENC =      5376.25786726
  Ewald energy   TEWEN  =    -86550.04632402
  -Hartree energ DENC   =    -41779.39295286
  -exchange      EXHF   =      4081.32717483
  -V(xc)+E(xc)   XCENC  =      2747.14924984
  PAW double counting   =    151862.47268758  -169184.01799481
  entropy T*S    EENTRO =        -0.02376307
  eigenvalues    EBANDS =     13455.95858961
  atomic energy  EATOM  =    131459.35058357
  ---------------------------------------------------
  free energy    TOTEN  =     11469.03171716 eV

  energy without entropy =    11469.05548023  energy(sigma->0) =    11469.04359869
  exchange ACFDT corr.  =      -176.93178348  see jH, gK, PRB 81, 115126


--------------------------------------------------------------------------------------------------------




--------------------------------------- Iteration      1(   8)  ---------------------------------------


    POTLOK:  cpu time      1.4587: real time      1.4585
    SETDIJ:  cpu time      0.4911: real time      0.4910
    TRIAL :  cpu time    227.6600: real time    227.6180
    CORREC:  cpu time    229.4942: real time    229.4507
    CHARGE:  cpu time      0.2019: real time      0.2018
    --------------------------------------------
      LOOP:  cpu time    459.3062: real time    459.2259

 eigenvalue-minimisations  :     0
 total energy-change (2. order) :-0.5527505E+04  (-0.2636104E+04)
 number of electron    1041.9998618 magnetization 
 augmentation part      425.9290104 magnetization 

 Free energy of the ion-electron system (eV)
  ---------------------------------------------------
  alpha Z        PSCENC =      5376.25786726
  Ewald energy   TEWEN  =    -86550.04632402
  -Hartree energ DENC   =    -29802.42053478
  -exchange      EXHF   =      3699.58058334
  -V(xc)+E(xc)   XCENC  =      2510.11337761
  PAW double counting   =    146612.52387395  -160258.76967618
  entropy T*S    EENTRO =        -0.01932331
  eigenvalues    EBANDS =     -7105.03929991
  atomic energy  EATOM  =    131459.35058357
  ---------------------------------------------------
  free energy    TOTEN  =      5941.52668776 eV

  energy without entropy =     5941.54601107  energy(sigma->0) =     5941.53634942
  exchange ACFDT corr.  =      -100.89043492  see jH, gK, PRB 81, 115126


--------------------------------------------------------------------------------------------------------




--------------------------------------- Iteration      1(   9)  ---------------------------------------


    POTLOK:  cpu time      1.5333: real time      1.5330
    SETDIJ:  cpu time      0.4131: real time      0.4130
    TRIAL :  cpu time    227.5936: real time    227.5518
    CORREC:  cpu time    229.2978: real time    229.2542
    CHARGE:  cpu time      0.2021: real time      0.2020
    --------------------------------------------
      LOOP:  cpu time    459.0420: real time    458.9568

 eigenvalue-minimisations  :     0
 total energy-change (2. order) :-0.1869638E+04  (-0.2353461E+04)
 number of electron    1041.9998526 magnetization 
 augmentation part      448.9760480 magnetization 

 Free energy of the ion-electron system (eV)
  ---------------------------------------------------
  alpha Z        PSCENC =      5376.25786726
  Ewald energy   TEWEN  =    -86550.04632402
  -Hartree energ DENC   =    -30279.57841695
  -exchange      EXHF   =      3734.85577740
  -V(xc)+E(xc)   XCENC  =      2531.98618394
  PAW double counting   =    140768.97066161  -155023.32275550
  entropy T*S    EENTRO =        -0.03008091
  eigenvalues    EBANDS =     -7946.56562281
  atomic energy  EATOM  =    131459.35058357
  ---------------------------------------------------
  free energy    TOTEN  =      4071.88863120 eV

  energy without entropy =     4071.91871210  energy(sigma->0) =     4071.90367165
  exchange ACFDT corr.  =      -115.37724552  see jH, gK, PRB 81, 115126


--------------------------------------------------------------------------------------------------------




--------------------------------------- Iteration      1(  10)  ---------------------------------------


    POTLOK:  cpu time      1.4915: real time      1.4912
    SETDIJ:  cpu time      0.4173: real time      0.4172
    TRIAL :  cpu time    228.2649: real time    228.2236
    CORREC:  cpu time    229.6277: real time    229.5876
    CHARGE:  cpu time      0.2030: real time      0.2029
    --------------------------------------------
      LOOP:  cpu time    460.0071: real time    459.9259

 eigenvalue-minimisations  :     0
 total energy-change (2. order) :-0.1875746E+04  (-0.1400635E+04)
 number of electron    1041.9998430 magnetization 
 augmentation part      456.2577536 magnetization 

 Free energy of the ion-electron system (eV)
  ---------------------------------------------------
  alpha Z        PSCENC =      5376.25786726
  Ewald energy   TEWEN  =    -86550.04632402
  -Hartree energ DENC   =    -32605.07888301
  -exchange      EXHF   =      3898.36915744
  -V(xc)+E(xc)   XCENC  =      2640.06341698
  PAW double counting   =    144327.83670543  -160093.43152929
  entropy T*S    EENTRO =        -0.02735925
  eigenvalues    EBANDS =     -6257.14835979
  atomic energy  EATOM  =    131459.35058357
  ---------------------------------------------------
  free energy    TOTEN  =      2196.14255365 eV

  energy without entropy =     2196.16991290  energy(sigma->0) =     2196.15623328
  exchange ACFDT corr.  =       -34.64157479  see jH, gK, PRB 81, 115126


--------------------------------------------------------------------------------------------------------




--------------------------------------- Iteration      1(  11)  ---------------------------------------


    POTLOK:  cpu time      1.4965: real time      1.4963
    SETDIJ:  cpu time      0.4194: real time      0.4193
    TRIAL :  cpu time    227.7340: real time    227.6915
    CORREC:  cpu time    229.3736: real time    229.3343
    CHARGE:  cpu time      0.2041: real time      0.2041
    --------------------------------------------
      LOOP:  cpu time    459.2296: real time    459.1479

 eigenvalue-minimisations  :     0
 total energy-change (2. order) :-0.1259547E+04  (-0.9075044E+03)
[...]
   0.512E+02 0.178E+03 -.663E+02   -.516E+02 -.176E+03 0.679E+02   0.273E+00 -.143E+01 -.150E+01
   0.662E-04 0.480E+02 -.141E+02   -.320E-11 -.457E+02 0.161E+02   0.000E+00 -.202E+01 -.180E+01
   0.539E-04 0.924E+02 -.484E+02   -.610E-12 -.904E+02 0.500E+02   0.000E+00 -.176E+01 -.153E+01
   -.647E+01 0.733E+02 -.184E+02   0.701E+01 -.702E+02 0.207E+02   -.454E+00 -.276E+01 -.210E+01
   -.512E+02 0.178E+03 -.663E+02   0.516E+02 -.176E+03 0.679E+02   -.273E+00 -.143E+01 -.150E+01
   0.210E+02 -.202E+02 0.709E+02   -.211E+02 0.264E+02 -.751E+02   0.115E+00 -.523E+01 0.353E+01
   0.543E+02 -.833E+02 -.631E+02   -.550E+02 0.898E+02 0.624E+02   0.747E+00 -.564E+01 0.648E+00
   0.403E-04 -.173E+02 0.442E+02   -.492E-11 0.243E+02 -.479E+02   0.000E+00 -.593E+01 0.312E+01
   0.131E-03 -.292E+02 -.123E+02   -.348E-12 0.360E+02 0.860E+01   0.000E+00 -.570E+01 0.311E+01
   -.210E+02 -.202E+02 0.709E+02   0.211E+02 0.264E+02 -.751E+02   -.115E+00 -.523E+01 0.353E+01
   -.543E+02 -.833E+02 -.631E+02   0.550E+02 0.898E+02 0.624E+02   -.747E+00 -.564E+01 0.648E+00
   -.404E-04 0.349E+02 -.104E+02   0.465E-12 -.411E+02 0.141E+02   0.000E+00 0.526E+01 -.320E+01
   -.995E-04 0.332E+02 -.280E+02   0.181E-12 -.397E+02 0.316E+02   0.000E+00 0.558E+01 -.303E+01
   0.420E+01 0.266E+02 -.107E+02   -.415E+01 -.334E+02 0.145E+02   -.293E-01 0.577E+01 -.318E+01
   0.628E+01 0.255E+02 -.254E+02   -.640E+01 -.319E+02 0.293E+02   0.134E+00 0.549E+01 -.331E+01
   -.420E+01 0.266E+02 -.107E+02   0.415E+01 -.334E+02 0.145E+02   0.293E-01 0.577E+01 -.318E+01
   -.628E+01 0.255E+02 -.254E+02   0.640E+01 -.319E+02 0.293E+02   -.134E+00 0.549E+01 -.331E+01
   -.268E+00 0.561E+02 0.488E+02   0.575E-02 -.551E+02 -.439E+02   0.237E+00 -.831E+00 -.408E+01
   0.177E+01 0.729E+02 0.274E+02   -.176E+01 -.712E+02 -.225E+02   0.109E-01 -.147E+01 -.414E+01
   0.410E-04 0.482E+02 0.552E+02   -.184E-12 -.461E+02 -.511E+02   0.000E+00 -.173E+01 -.355E+01
   0.628E-04 0.751E+02 0.275E+02   -.143E-12 -.737E+02 -.228E+02   0.000E+00 -.114E+01 -.401E+01
   0.268E+00 0.561E+02 0.488E+02   -.575E-02 -.551E+02 -.439E+02   -.237E+00 -.831E+00 -.408E+01
   -.177E+01 0.729E+02 0.274E+02   0.176E+01 -.712E+02 -.225E+02   -.109E-01 -.147E+01 -.414E+01
   -.465E-04 -.110E+03 -.971E+01   0.422E-12 0.108E+03 0.723E+01   0.000E+00 0.188E+01 0.209E+01
   -.816E-04 -.917E+02 -.495E+02   0.228E-12 0.899E+02 0.445E+02   0.000E+00 0.147E+01 0.424E+01
   0.967E+01 -.860E+02 -.718E+01   -.930E+01 0.834E+02 0.308E+01   -.302E+00 0.220E+01 0.348E+01
   0.536E+01 -.806E+02 -.521E+02   -.560E+01 0.786E+02 0.472E+02   0.240E+00 0.161E+01 0.415E+01
   -.967E+01 -.860E+02 -.718E+01   0.930E+01 0.834E+02 0.308E+01   0.302E+00 0.220E+01 0.348E+01
   -.536E+01 -.806E+02 -.521E+02   0.560E+01 0.786E+02 0.472E+02   -.240E+00 0.161E+01 0.415E+01
   -.849E-04 0.448E+02 0.741E+02   0.233E-12 -.572E+02 -.723E+02   0.000E+00 0.105E+02 -.141E+01
   -.804E-04 0.110E+03 0.732E+02   0.499E-12 -.122E+03 -.696E+02   0.000E+00 0.105E+02 -.307E+01
   0.107E+02 0.674E+02 0.615E+02   -.994E+01 -.771E+02 -.587E+02   -.593E+00 0.813E+01 -.235E+01
   0.471E+01 0.117E+03 0.694E+02   -.479E+01 -.130E+03 -.655E+02   0.898E-01 0.108E+02 -.336E+01
   -.107E+02 0.674E+02 0.615E+02   0.994E+01 -.771E+02 -.587E+02   0.593E+00 0.813E+01 -.235E+01
   -.471E+01 0.117E+03 0.694E+02   0.479E+01 -.130E+03 -.655E+02   -.898E-01 0.108E+02 -.336E+01
   -.475E+00 -.123E+03 -.538E+02   0.679E+00 0.136E+03 0.505E+02   -.158E+00 -.106E+02 0.278E+01
   0.752E+00 -.131E+03 -.716E+02   -.982E+00 0.144E+03 0.681E+02   0.210E+00 -.110E+02 0.301E+01
   0.511E-04 -.120E+03 -.524E+02   -.202E-12 0.132E+03 0.492E+02   0.000E+00 -.104E+02 0.265E+01
   0.600E-04 -.136E+03 -.751E+02   -.160E-12 0.149E+03 0.717E+02   0.000E+00 -.111E+02 0.290E+01
   0.475E+00 -.123E+03 -.538E+02   -.679E+00 0.136E+03 0.505E+02   0.158E+00 -.106E+02 0.278E+01
   -.752E+00 -.131E+03 -.716E+02   0.982E+00 0.144E+03 0.681E+02   -.210E+00 -.110E+02 0.301E+01
   -.602E-04 -.103E+02 0.174E+02   0.354E-12 0.173E+02 -.211E+02   0.000E+00 -.586E+01 0.307E+01
   -.486E-04 0.256E+02 -.151E+01   0.211E-12 -.185E+02 -.225E+01   0.000E+00 -.593E+01 0.320E+01
   0.489E+01 -.171E+02 0.190E+02   -.523E+01 0.244E+02 -.227E+02   0.309E+00 -.620E+01 0.309E+01
   0.595E+01 0.307E+01 0.378E+01   -.563E+01 0.453E+01 -.751E+01   -.247E+00 -.640E+01 0.317E+01
   -.489E+01 -.171E+02 0.190E+02   0.523E+01 0.244E+02 -.227E+02   -.309E+00 -.620E+01 0.309E+01
   -.595E+01 0.307E+01 0.378E+01   0.563E+01 0.453E+01 -.751E+01   0.247E+00 -.640E+01 0.317E+01
   0.120E+03 -.618E+02 0.587E+02   -.111E+03 0.453E+02 -.512E+02   -.807E+01 0.139E+02 -.623E+01
   0.133E+02 0.455E+01 -.310E+02   -.140E+02 -.115E+02 0.358E+02   0.612E+00 0.579E+01 -.411E+01
   0.440E-04 -.314E+01 -.143E+01   -.124E-11 -.348E+01 0.513E+01   0.000E+00 0.559E+01 -.312E+01
   0.968E-04 0.116E+02 -.244E+02   -.150E-11 -.191E+02 0.287E+02   0.000E+00 0.631E+01 -.366E+01
   -.120E+03 -.618E+02 0.587E+02   0.111E+03 0.453E+02 -.512E+02   0.807E+01 0.139E+02 -.623E+01
   -.133E+02 0.455E+01 -.310E+02   0.140E+02 -.115E+02 0.358E+02   -.612E+00 0.579E+01 -.411E+01
   0.261E-04 0.141E+03 0.161E+03   -.727E-11 -.130E+03 -.144E+03   0.000E+00 -.926E+01 -.138E+02
   -.227E-03 0.486E+02 -.521E+02   0.533E-12 -.473E+02 0.549E+02   0.000E+00 -.121E+01 -.263E+01
   0.308E+02 0.877E+02 0.747E+02   -.301E+02 -.852E+02 -.700E+02   -.632E+00 -.208E+01 -.396E+01
   0.228E+00 0.572E+02 0.236E+02   0.272E+01 -.550E+02 -.219E+02   -.243E+01 -.188E+01 -.145E+01
   -.308E+02 0.877E+02 0.747E+02   0.301E+02 -.852E+02 -.700E+02   0.632E+00 -.208E+01 -.396E+01
   -.228E+00 0.572E+02 0.236E+02   -.272E+01 -.550E+02 -.219E+02   0.243E+01 -.188E+01 -.145E+01
   0.183E+02 -.348E+02 -.136E+02   -.178E+02 0.338E+02 0.960E+01   -.365E+00 0.857E+00 0.337E+01
   0.370E+02 -.259E+02 -.106E+03   -.371E+02 0.240E+02 0.101E+03   0.225E+00 0.173E+01 0.362E+01
   0.398E-04 -.553E+02 -.221E+02   -.438E-11 0.537E+02 0.178E+02   0.000E+00 0.138E+01 0.368E+01
   0.985E-04 -.575E+02 -.597E+02   -.320E-12 0.558E+02 0.549E+02   0.000E+00 0.144E+01 0.410E+01
   -.183E+02 -.348E+02 -.136E+02   0.178E+02 0.338E+02 0.960E+01   0.365E+00 0.857E+00 0.337E+01
   -.370E+02 -.259E+02 -.106E+03   0.371E+02 0.240E+02 0.101E+03   -.225E+00 0.173E+01 0.362E+01
   0.442E+02 0.211E+03 0.773E+02   -.439E+02 -.224E+03 -.742E+02   -.250E+00 0.111E+02 -.253E+01
   0.131E+02 0.128E+03 0.484E+02   -.136E+02 -.141E+03 -.451E+02   0.465E+00 0.109E+02 -.285E+01
   0.633E-05 0.151E+03 0.677E+02   -.117E-11 -.164E+03 -.647E+02   0.000E+00 0.111E+02 -.254E+01
   0.109E-03 0.123E+03 0.581E+02   -.114E-11 -.135E+03 -.554E+02   0.000E+00 0.109E+02 -.231E+01
   -.442E+02 0.211E+03 0.773E+02   0.439E+02 -.224E+03 -.742E+02   0.250E+00 0.111E+02 -.253E+01
   -.131E+02 0.128E+03 0.484E+02   0.136E+02 -.141E+03 -.451E+02   -.465E+00 0.109E+02 -.285E+01
   -.556E-04 -.106E+03 -.373E+02   -.200E-10 0.118E+03 0.355E+02   0.000E+00 -.102E+02 0.138E+01
   0.700E+01 -.125E+03 -.533E+02   -.621E+01 0.139E+03 0.506E+02   -.643E+00 -.117E+02 0.231E+01
   0.743E+02 -.113E+03 -.957E+02   -.746E+02 0.125E+03 0.920E+02   0.384E+00 -.106E+02 0.320E+01
   -.700E+01 -.125E+03 -.533E+02   0.621E+01 0.139E+03 0.506E+02   0.643E+00 -.117E+02 0.231E+01
   -.743E+02 -.113E+03 -.957E+02   0.746E+02 0.125E+03 0.920E+02   -.384E+00 -.106E+02 0.320E+01
   0.103E-03 -.545E+02 0.177E+03   0.561E-12 0.625E+02 -.192E+03   0.000E+00 -.793E+01 0.150E+02
 -----------------------------------------------------------------------------------------------
   0.675E-03 -.147E+01 0.699E+01   0.220E-12 0.266E-11 -.398E-12   0.000E+00 -.179E+00 -.345E+01
 
 
 POSITION                                       TOTAL-FORCE (eV/Angst)
 -----------------------------------------------------------------------------------
      0.00000      7.63460     -1.76147         0.000000      0.052818      0.036358
      0.00000      6.29263     -7.42420         0.000000      0.084149     -0.016824
      3.04506      7.65052     -1.78391        -0.029429      0.044879      0.029111
      3.04880      6.29508     -7.42156        -0.022449      0.088213     -0.015467
      6.09765      7.65052     -1.78391         0.029429      0.044879      0.029111
      6.09391      6.29508     -7.42156         0.022449      0.088213     -0.015467
      1.49551      9.35195     -3.86241        -0.066952     -0.194185     -0.027237
      1.52156      7.99361     -9.53843        -0.023698     -0.025339      0.029600
      4.57135      9.41014     -3.87874         0.000000     -0.040032     -0.051080
      4.57135      7.98765     -9.53169         0.000000     -0.053500      0.026288
      7.64719      9.35195     -3.86241         0.066952     -0.194185     -0.027237
      7.62114      7.99361     -9.53843         0.023698     -0.025339      0.029600
      1.52783      6.15288     -4.50533        -0.031429     -0.015849      0.001056
      1.52479      4.79511    -10.15175        -0.023103     -0.060395      0.040564
      4.57135      6.15114     -4.49901         0.000000     -0.016549     -0.007725
      4.57135      4.79299    -10.15691         0.000000     -0.056033      0.040474
      7.61487      6.15288     -4.50533         0.031429     -0.015849      0.001056
      7.61792      4.79511    -10.15175         0.023103     -0.060395      0.040564
      0.00000     10.88532     -1.16611         0.000000      0.035331     -0.021597
      0.00000      9.48580     -6.81221         0.000000      0.178646     -0.030088
      3.05274     10.86923     -1.14656        -0.045374      0.035163     -0.012530
      3.04454      9.51213     -6.82554        -0.086532      0.109098     -0.023105
      6.08996     10.86923     -1.14656         0.045374      0.035163     -0.012530
      6.09817      9.51213     -6.82554         0.086532      0.109098     -0.023105
      1.56076      1.49948     -1.76587         0.002572      0.067513      0.062817
      1.60132      0.10463     -7.54911         0.000668      0.033874     -0.149720
      4.57135      1.50898     -1.79081         0.000000      0.094387      0.036941
      4.57135      0.15127     -7.42935         0.000000      0.069620      0.009416
      7.58195      1.49948     -1.76587        -0.002572      0.067513      0.062817
      7.54138      0.10463     -7.54911        -0.000668      0.033874     -0.149720
      0.00000      3.24962     -3.91669         0.000000     -0.045050     -0.067571
      0.00000      1.88246     -9.54096         0.000000     -0.158049      0.086540
      3.04821      3.22024     -3.90907        -0.020848     -0.090490     -0.028149
      3.05847      1.87059     -9.57509        -0.039840     -0.090071     -0.004425
      6.09449      3.22024     -3.90907         0.020848     -0.090490     -0.028149
      6.08423      1.87059     -9.57509         0.039840     -0.090071     -0.004425
      0.00000     -1.35883    -10.17764         0.000000      0.062404      0.103300
      3.00944      0.02888     -4.51745         0.032473      0.114879     -0.065362
      3.05548     -1.38003    -10.17311        -0.061750      0.005013      0.062767
      6.13327      0.02888     -4.51745        -0.032473      0.114879     -0.065362
      6.08723     -1.38003    -10.17311         0.061750      0.005013      0.062767
      1.52073      4.70525     -1.17632        -0.042445      0.028079      0.048509
      1.52706      3.37839     -6.82155        -0.054814     -0.085321     -0.066239
      4.57135      4.72616     -1.19438         0.000000      0.026058      0.031390
      4.57135      3.36057     -6.82515         0.000000     -0.000818     -0.038583
      7.62197      4.70525     -1.17632         0.042445      0.028079      0.048509
      7.61564      3.37839     -6.82155         0.054814     -0.085321     -0.066239
      1.53283     11.87761     -1.45667         0.035283     -0.187126      0.149175
      1.50309     10.54015     -7.04732         0.153272     -0.366777      0.055014
      4.57135     11.88337     -1.43495         0.000000     -0.200491      0.124521
      4.57135     10.52047     -7.10554         0.000000     -0.209961      0.134858
      7.60987     11.87761     -1.45667        -0.035283     -0.187126      0.149175
      7.63961     10.54015     -7.04732        -0.153272     -0.366777      0.055014
      0.00000      5.15129     -4.22794         0.000000      0.166081     -0.124502
      0.00000      3.78324     -9.87297         0.000000      0.225202     -0.140049
      3.04713      5.13460     -4.22403         0.016857      0.187477     -0.126496
      3.04603      3.77833     -9.87162         0.041779      0.220481     -0.150401
      6.09557      5.13460     -4.22403        -0.016857      0.187477     -0.126496
      6.09668      3.77833     -9.87162        -0.041779      0.220481     -0.150401
      1.52483      7.47269     -3.17380         0.027159     -0.018421     -0.120081
      1.52249      6.10844     -8.81799         0.020721     -0.034111     -0.136168
      4.57135      7.50534     -3.19339         0.000000     -0.053455     -0.111965
      4.57135      6.10515     -8.81494         0.000000     -0.026313     -0.138991
      7.61787      7.47269     -3.17380        -0.027159     -0.018421     -0.120081
      7.62021      6.10844     -8.81799        -0.020721     -0.034111     -0.136168
      0.00000      9.55440     -2.49279         0.000000      0.030939      0.050095
      0.00000      8.18338     -8.14414         0.000000     -0.025755      0.116068
      3.02007      9.58306     -2.50721         0.012662      0.055436      0.118353
      3.04230      8.18775     -8.14031         0.051337     -0.007481      0.129794
      6.12263      9.58306     -2.50721        -0.012662      0.055436      0.118353
      6.10041      8.18775     -8.14031        -0.051337     -0.007481      0.129794
      0.00000      8.98894     -5.03615         0.000000      0.401618      0.053062
      0.00000      7.60580    -10.69989         0.000000      0.409519     -0.105378
      3.01543      9.10883     -5.02704         0.029573      0.316472     -0.016478
      3.04656      7.58523    -10.68598         0.029240      0.435133     -0.118084
      6.12728      9.10883     -5.02704        -0.029573      0.316472     -0.016478
      6.09614      7.58523    -10.68598        -0.029240      0.435133     -0.118084
      1.52503      8.05693     -0.62727         0.013028     -0.431916      0.061075
      1.52652      6.69534     -6.26455         0.027204     -0.458519      0.100031
      4.57135      8.05978     -0.63733         0.000000     -0.426408      0.065856
      4.57135      6.71025     -6.25762         0.000000     -0.466114      0.097087
      7.61767      8.05693     -0.62727        -0.013028     -0.431916      0.061075
      7.61618      6.69534     -6.26455        -0.027204     -0.458519      0.100031
      0.00000      5.71980     -1.45160         0.000000     -0.165673      0.106201
      0.00000      4.37924     -7.09168         0.000000     -0.120807      0.140409
      3.03881      5.72573     -1.46250         0.038359     -0.182878      0.107937
      3.05145      4.37578     -7.09150         0.022269     -0.176294      0.142201
      6.10389      5.72573     -1.46250        -0.038359     -0.182878      0.107937
      6.09125      4.37578     -7.09150        -0.022269     -0.176294      0.142201
      1.28825     -0.83187     -4.23121        -0.148220      0.403411     -0.139320
      1.52308     -2.36118     -9.86417         0.081461      0.093200     -0.173045
      4.57135     -0.94605     -4.22181         0.000000      0.174436     -0.106789
      4.57135     -2.38279     -9.87762         0.000000      0.182162     -0.159645
      7.85445     -0.83187     -4.23121         0.148220      0.403411     -0.139320
      7.61963     -2.36118     -9.86417        -0.081461      0.093200     -0.173045
      0.00000      1.17775     -3.31920         0.000000     -0.290036     -0.302783
      0.00000     -0.04963     -8.77217         0.000000     -0.078408     -0.323631
      3.03221      1.32199     -3.17739         0.008422     -0.044485     -0.129514
      3.07027     -0.03729     -8.85818        -0.017554     -0.054169     -0.059125
      6.11049      1.32199     -3.17739        -0.008422     -0.044485     -0.129514
      6.07243     -0.03729     -8.85818         0.017554     -0.054169     -0.059125
      1.48863      3.36201     -2.51048         0.022612      0.037450      0.093711
      1.49139      2.01350     -8.11186         0.123444      0.185363      0.022156
      4.57135      3.39204     -2.51456         0.000000      0.042772      0.110275
      4.57135      2.02963     -8.14925         0.000000      0.064037      0.141489
      7.65407      3.36201     -2.51048        -0.022612      0.037450      0.093711
      7.65132      2.01350     -8.11186        -0.123444      0.185363      0.022156
      1.51336      2.82051     -5.06233         0.034797      0.500666     -0.028494
      1.51559      1.44222    -10.69079         0.071708      0.475737     -0.147430
      4.57135      2.80620     -5.06290         0.000000      0.481788     -0.054293
      4.57135      1.46470    -10.71808         0.000000      0.452142     -0.089006
      7.62935      2.82051     -5.06233        -0.034797      0.500666     -0.028494
      7.62711      1.44222    -10.69079        -0.071708      0.475737     -0.147430
      0.00000      1.87151     -0.67851         0.000000     -0.437873     -0.075142
      3.05972      1.93218     -0.62830         0.009129     -0.489846      0.032344
      3.01793      0.51849     -6.28388         0.136153     -0.425481      0.147807
      6.08298      1.93218     -0.62830        -0.009129     -0.489846      0.032344
      6.12477      0.51849     -6.28388        -0.136153     -0.425481      0.147807
      0.00000      0.12944     -4.59182         0.000000     -0.359552      1.060713
 -----------------------------------------------------------------------------------
    total drift:                                0.000675      0.126409     -0.063051


--------------------------------------------------------------------------------------------------------



  FREE ENERGIE OF THE ION-ELECTRON SYSTEM (eV)
  ---------------------------------------------------
  free  energy   TOTEN  =      -976.04093762 eV

  energy  without entropy=     -976.02988441  energy(sigma->0) =     -976.03541102
 


--------------------------------------------------------------------------------------------------------


    POTLOK:  cpu time      1.9871: real time      2.0015


--------------------------------------------------------------------------------------------------------


 writing wavefunctions
     LOOP+:  cpu time  17558.7013: real time  17557.6980
    4ORBIT:  cpu time      0.0000: real time      0.0000

 total amount of memory used by VASP MPI-rank0  7418505. kBytes
=======================================================================

   base      :      30000. kBytes
   nonlr-proj:      46603. kBytes
   fftplans  :      51012. kBytes
   grid      :     102973. kBytes
   one-center:       1850. kBytes
   HF        :        194. kBytes
   wavefun   :    6956640. kBytes
   fock_wrk  :     229233. kBytes
 
  
  
 General timing and accounting informations for this job:
 ========================================================
  
                  Total CPU time used (sec):    17590.504
                            User time (sec):    17570.904
                          System time (sec):       19.600
                         Elapsed time (sec):    17591.808
  
                   Maximum memory used (kb):    13195776.
                   Average memory used (kb):          N/A
  
                          Minor page faults:      6562384
                          Major page faults:            4
                 Voluntary context switches:       339036
