<?xml version="1.0" encoding="ISO-8859-1"?>
<modeling>
 <generator>
  <i name="program" type="string">vasp </i>
  <i name="version" type="string">6.4.2  </i>
  <i name="subversion" type="string">20Jul23 (build Nov 12 2023 22:16:35) complex                          parallel </i>
  <i name="platform" type="string">LinuxNV </i>
  <i name="date" type="string">2025 03 14 </i>
  <i name="time" type="string">20:37:56 </i>
 </generator>
 <incar>
  <i type="int" name="ISTART">     0</i>
  <i type="string" name="PREC">Normal</i>
  <i type="string" name="ALGO">All</i>
  <i type="int" name="ISPIN">     1</i>
  <i type="int" name="ICHARG">     0</i>
  <i type="int" name="NELM">   500</i>
  <i type="int" name="IBRION">    -1</i>
  <i name="EDIFF">      0.00001000</i>
  <i name="EDIFFG">     -0.00500000</i>
  <i type="int" name="NSW">     0</i>
  <i type="int" name="ISIF">     2</i>
  <i name="ENCUT">    450.00000000</i>
  <i type="string" name="LREAL">Auto</i>
  <i type="logical" name="LPLANE"> T  </i>
  <i name="TIME">      0.40000000</i>
  <i type="int" name="ISMEAR">     0</i>
  <i name="SIGMA">      0.05000000</i>
  <i type="logical" name="LWAVE"> T  </i>
  <i type="logical" name="LCHARG"> T  </i>
  <i name="HFSCREEN">      0.18000000</i>
  <i type="logical" name="LHFCALC"> T  </i>
  <i type="int" name="LMAXFOCK">     4</i>
  <i name="AEXX">      0.35000000</i>
  <i type="string" name="PRECFOCK">Fast</i>
 </incar>
 <primitive_cell>
  <structure name="primitive_cell" >
   <crystal>
    <varray name="basis" >
     <v>       0.00000000      12.28047342       0.00000000 </v>
     <v>       9.14270205       0.00000000       0.00000000 </v>
     <v>       0.00000000      -2.76826177     -11.30069772 </v>
    </varray>
    <i name="volume">   1268.80515525 </i>
    <varray name="rec_basis" >
     <v>       0.00000000       0.08143009      -0.01994742 </v>
     <v>       0.10937686      -0.00000000       0.00000000 </v>
     <v>       0.00000000       0.00000000      -0.08849011 </v>
    </varray>
   </crystal>
   <varray name="positions" >
    <v>       0.65682255       0.00000000       0.15587234 </v>
    <v>       0.66050280       0.00000000       0.65696829 </v>
    <v>       0.65856673       0.33305875       0.15785831 </v>
    <v>       0.66064973       0.33346769       0.65673483 </v>
    <v>       0.65856673       0.66694125       0.15785831 </v>
    <v>       0.66064973       0.66653231       0.65673483 </v>
    <v>       0.83857518       0.16357439       0.34178553 </v>
    <v>       0.84118771       0.16642315       0.84405648 </v>
    <v>       0.84363971       0.50000000       0.34323002 </v>
    <v>       0.84056778       0.50000000       0.84346049 </v>
    <v>       0.83857518       0.83642561       0.34178553 </v>
    <v>       0.84118771       0.83357685       0.84405648 </v>
    <v>       0.59089909       0.16710913       0.39867719 </v>
    <v>       0.59296747       0.16677628       0.89832987 </v>
    <v>       0.59063110       0.50000000       0.39811751 </v>
    <v>       0.59289749       0.50000000       0.89878614 </v>
    <v>       0.59089909       0.83289087       0.39867719 </v>
    <v>       0.59296747       0.83322372       0.89832987 </v>
    <v>       0.90965338       0.00000000       0.10318880 </v>
    <v>       0.90831525       0.00000000       0.60281283 </v>
    <v>       0.90795363       0.33389951       0.10145927 </v>
    <v>       0.91072572       0.33300183       0.60399302 </v>
    <v>       0.90795363       0.66610049       0.10145927 </v>
    <v>       0.91072572       0.66699817       0.60399302 </v>
    <v>       0.15732697       0.17071049       0.15626192 </v>
    <v>       0.15910536       0.17514756       0.66802125 </v>
    <v>       0.15859865       0.50000000       0.15846921 </v>
    <v>       0.16051428       0.50000000       0.65742403 </v>
    <v>       0.15732697       0.82928951       0.15626192 </v>
    <v>       0.15910536       0.82485244       0.66802125 </v>
    <v>       0.34274499       0.00000000       0.34658800 </v>
    <v>       0.34360687       0.00000000       0.84428083 </v>
    <v>       0.34020072       0.33340396       0.34591442 </v>
    <v>       0.34332032       0.33452603       0.84730070 </v>
    <v>       0.34020072       0.66659604       0.34591442 </v>
    <v>       0.34332032       0.66547397       0.84730070 </v>
    <v>       0.09236830       0.00000000       0.90062018 </v>
    <v>       0.09246348       0.32916263       0.39974992 </v>
    <v>       0.09055110       0.33419847       0.90021988 </v>
    <v>       0.09246348       0.67083737       0.39974992 </v>
    <v>       0.09055110       0.66580153       0.90021988 </v>
    <v>       0.40661365       0.16633237       0.10409236 </v>
    <v>       0.41117529       0.16702533       0.60363976 </v>
    <v>       0.40867671       0.50000000       0.10569121 </v>
    <v>       0.40979577       0.50000000       0.60395864 </v>
    <v>       0.40661365       0.83366763       0.10409236 </v>
    <v>       0.41117529       0.83297467       0.60363976 </v>
    <v>       0.99625178       0.16765596       0.12890124 </v>
    <v>       0.99886083       0.16440332       0.62361770 </v>
    <v>       0.99628722       0.50000000       0.12697919 </v>
    <v>       0.99841970       0.50000000       0.62876964 </v>
    <v>       0.99625178       0.83234404       0.12890124 </v>
    <v>       0.99886083       0.83559668       0.62361770 </v>
    <v>       0.50380630       0.00000000       0.37413086 </v>
    <v>       0.50501002       0.00000000       0.87366029 </v>
    <v>       0.50236970       0.33328543       0.37378490 </v>
    <v>       0.50458276       0.33316467       0.87354082 </v>
    <v>       0.50236970       0.66671457       0.37378490 </v>
    <v>       0.50458276       0.66683533       0.87354082 </v>
    <v>       0.67181070       0.16678144       0.28084974 </v>
    <v>       0.67330681       0.16652490       0.78030457 </v>
    <v>       0.67486049       0.50000000       0.28258327 </v>
    <v>       0.67297849       0.50000000       0.78003508 </v>
    <v>       0.67181070       0.83321856       0.28084974 </v>
    <v>       0.67330681       0.83347510       0.78030457 </v>
    <v>       0.82774055       0.00000000       0.22058764 </v>
    <v>       0.82882803       0.00000000       0.72067600 </v>
    <v>       0.83036187       0.33032547       0.22186319 </v>
    <v>       0.82910766       0.33275673       0.72033710 </v>
    <v>       0.83036187       0.66967453       0.22186319 </v>
    <v>       0.82910766       0.66724327       0.72033710 </v>
    <v>       0.83242823       0.00000000       0.44564958 </v>
    <v>       0.83277644       0.00000000       0.94683403 </v>
    <v>       0.84200941       0.32981784       0.44484316 </v>
    <v>       0.83082374       0.33322324       0.94560336 </v>
    <v>       0.84200941       0.67018216       0.44484316 </v>
    <v>       0.83082374       0.66677676       0.94560336 </v>
    <v>       0.66858889       0.16680346       0.05550678 </v>
    <v>       0.67016371       0.16696648       0.55435098 </v>
    <v>       0.66902181       0.50000000       0.05639708 </v>
    <v>       0.67123951       0.50000000       0.55373749 </v>
    <v>       0.66858889       0.83319654       0.05550678 </v>
    <v>       0.67016371       0.83303352       0.55435098 </v>
    <v>       0.49471903       0.00000000       0.12845182 </v>
    <v>       0.49806223       0.00000000       0.62754328 </v>
    <v>       0.49541979       0.33237565       0.12941657 </v>
    <v>       0.49777716       0.33375776       0.62752798 </v>
    <v>       0.49541979       0.66762435       0.12941657 </v>
    <v>       0.49777716       0.66624224       0.62752798 </v>
    <v>       0.01666230       0.14090449       0.37442049 </v>
    <v>       0.00449403       0.16658938       0.87288174 </v>
    <v>       0.00717754       0.50000000       0.37358883 </v>
    <v>       0.00300238       0.50000000       0.87407192 </v>
    <v>       0.01666230       0.85909551       0.37442049 </v>
    <v>       0.00449403       0.83341062       0.87288174 </v>
    <v>       0.16211394       0.00000000       0.29371646 </v>
    <v>       0.17094122       0.00000000       0.77625034 </v>
    <v>       0.17103033       0.33165344       0.28116755 </v>
    <v>       0.17366092       0.33581644       0.78386097 </v>
    <v>       0.17103033       0.66834656       0.28116755 </v>
    <v>       0.17366092       0.66418356       0.78386097 </v>
    <v>       0.32384630       0.16282172       0.22215234 </v>
    <v>       0.32577062       0.16312310       0.71781965 </v>
    <v>       0.32637267       0.50000000       0.22251331 </v>
    <v>       0.32782949       0.50000000       0.72112779 </v>
    <v>       0.32384630       0.83717828       0.22215234 </v>
    <v>       0.32577062       0.83687690       0.71781965 </v>
    <v>       0.33065452       0.16552614       0.44796600 </v>
    <v>       0.33069427       0.16577033       0.94602960 </v>
    <v>       0.32950112       0.50000000       0.44801665 </v>
    <v>       0.33306910       0.50000000       0.94844429 </v>
    <v>       0.33065452       0.83447386       0.44796600 </v>
    <v>       0.33069427       0.83422967       0.94602960 </v>
    <v>       0.16593165       0.00000000       0.06004126 </v>
    <v>       0.16987046       0.33466272       0.05559861 </v>
    <v>       0.16756820       0.33009195       0.55606107 </v>
    <v>       0.16987046       0.66533728       0.05559861 </v>
    <v>       0.16756820       0.66990805       0.55606107 </v>
    <v>       0.10213498       0.00000000       0.40633080 </v>
   </varray>
  </structure>
  <varray name="primitive_index" >
   <v type="int" >        1 </v>
   <v type="int" >        2 </v>
   <v type="int" >        3 </v>
   <v type="int" >        4 </v>
   <v type="int" >        5 </v>
   <v type="int" >        6 </v>
   <v type="int" >        7 </v>
   <v type="int" >        8 </v>
   <v type="int" >        9 </v>
   <v type="int" >       10 </v>
   <v type="int" >       11 </v>
   <v type="int" >       12 </v>
   <v type="int" >       13 </v>
   <v type="int" >       14 </v>
   <v type="int" >       15 </v>
   <v type="int" >       16 </v>
   <v type="int" >       17 </v>
   <v type="int" >       18 </v>
   <v type="int" >       19 </v>
   <v type="int" >       20 </v>
   <v type="int" >       21 </v>
   <v type="int" >       22 </v>
   <v type="int" >       23 </v>
   <v type="int" >       24 </v>
   <v type="int" >       25 </v>
   <v type="int" >       26 </v>
   <v type="int" >       27 </v>
   <v type="int" >       28 </v>
   <v type="int" >       29 </v>
   <v type="int" >       30 </v>
   <v type="int" >       31 </v>
   <v type="int" >       32 </v>
   <v type="int" >       33 </v>
   <v type="int" >       34 </v>
   <v type="int" >       35 </v>
   <v type="int" >       36 </v>
   <v type="int" >       37 </v>
   <v type="int" >       38 </v>
   <v type="int" >       39 </v>
   <v type="int" >       40 </v>
   <v type="int" >       41 </v>
   <v type="int" >       42 </v>
   <v type="int" >       43 </v>
   <v type="int" >       44 </v>
   <v type="int" >       45 </v>
   <v type="int" >       46 </v>
   <v type="int" >       47 </v>
   <v type="int" >       48 </v>
   <v type="int" >       49 </v>
   <v type="int" >       50 </v>
   <v type="int" >       51 </v>
   <v type="int" >       52 </v>
   <v type="int" >       53 </v>
   <v type="int" >       54 </v>
   <v type="int" >       55 </v>
   <v type="int" >       56 </v>
   <v type="int" >       57 </v>
   <v type="int" >       58 </v>
   <v type="int" >       59 </v>
   <v type="int" >       60 </v>
   <v type="int" >       61 </v>
   <v type="int" >       62 </v>
   <v type="int" >       63 </v>
   <v type="int" >       64 </v>
   <v type="int" >       65 </v>
   <v type="int" >       66 </v>
   <v type="int" >       67 </v>
   <v type="int" >       68 </v>
   <v type="int" >       69 </v>
   <v type="int" >       70 </v>
   <v type="int" >       71 </v>
   <v type="int" >       72 </v>
   <v type="int" >       73 </v>
   <v type="int" >       74 </v>
   <v type="int" >       75 </v>
   <v type="int" >       76 </v>
   <v type="int" >       77 </v>
   <v type="int" >       78 </v>
   <v type="int" >       79 </v>
   <v type="int" >       80 </v>
   <v type="int" >       81 </v>
   <v type="int" >       82 </v>
   <v type="int" >       83 </v>
   <v type="int" >       84 </v>
   <v type="int" >       85 </v>
   <v type="int" >       86 </v>
   <v type="int" >       87 </v>
   <v type="int" >       88 </v>
   <v type="int" >       89 </v>
   <v type="int" >       90 </v>
   <v type="int" >       91 </v>
   <v type="int" >       92 </v>
   <v type="int" >       93 </v>
   <v type="int" >       94 </v>
   <v type="int" >       95 </v>
   <v type="int" >       96 </v>
   <v type="int" >       97 </v>
   <v type="int" >       98 </v>
   <v type="int" >       99 </v>
   <v type="int" >      100 </v>
   <v type="int" >      101 </v>
   <v type="int" >      102 </v>
   <v type="int" >      103 </v>
   <v type="int" >      104 </v>
   <v type="int" >      105 </v>
   <v type="int" >      106 </v>
   <v type="int" >      107 </v>
   <v type="int" >      108 </v>
   <v type="int" >      109 </v>
   <v type="int" >      110 </v>
   <v type="int" >      111 </v>
   <v type="int" >      112 </v>
   <v type="int" >      113 </v>
   <v type="int" >      114 </v>
   <v type="int" >      115 </v>
   <v type="int" >      116 </v>
   <v type="int" >      117 </v>
   <v type="int" >      118 </v>
   <v type="int" >      119 </v>
  </varray>
 </primitive_cell>
 <kpoints>
  <generation param="Gamma">
   <v type="int" name="divisions">       2        2        2 </v>
   <v name="usershift">      0.00000000       0.00000000       0.00000000 </v>
   <v name="genvec1">      0.50000000       0.00000000       0.00000000 </v>
   <v name="genvec2">      0.00000000       0.50000000       0.00000000 </v>
   <v name="genvec3">      0.00000000       0.00000000       0.50000000 </v>
   <v name="shift">      0.00000000       0.00000000       0.00000000 </v>
  </generation>
  <varray name="kpointlist" >
   <v>       0.00000000       0.00000000       0.00000000 </v>
   <v>       0.50000000       0.00000000       0.00000000 </v>
   <v>       0.00000000       0.50000000       0.00000000 </v>
   <v>       0.50000000       0.50000000       0.00000000 </v>
   <v>       0.00000000       0.00000000       0.50000000 </v>
   <v>       0.50000000       0.00000000       0.50000000 </v>
   <v>       0.00000000       0.50000000       0.50000000 </v>
   <v>       0.50000000       0.50000000       0.50000000 </v>
  </varray>
  <varray name="weights" >
   <v>       0.12500000 </v>
   <v>       0.12500000 </v>
   <v>       0.12500000 </v>
   <v>       0.12500000 </v>
   <v>       0.12500000 </v>
   <v>       0.12500000 </v>
   <v>       0.12500000 </v>
   <v>       0.12500000 </v>
  </varray>
 </kpoints>
 <parameters>
  <separator name="general" >
   <i type="string" name="SYSTEM">unknown system</i>
   <i type="logical" name="LCOMPAT"> F  </i>
  </separator>
  <separator name="electronic" >
   <i type="string" name="PREC">normal</i>
   <i name="ENMAX">    450.00000000</i>
   <i name="ENAUG">    605.39200000</i>
   <i name="EDIFF">      0.00001000</i>
   <i type="int" name="IALGO">    58</i>
   <i type="int" name="IWAVPR">    10</i>
   <i type="int" name="NBANDS">   625</i>
   <i type="int" name="NBANDSLOW">    -1</i>
   <i type="int" name="NBANDSHIGH">    -1</i>
   <i name="NELECT">   1042.00000000</i>
   <i type="int" name="TURBO">     0</i>
   <i type="int" name="IRESTART">     0</i>
   <i type="int" name="NREBOOT">     0</i>
   <i type="int" name="NMIN">     0</i>
   <i name="EREF">      0.00000000</i>
   <separator name="electronic smearing" >
    <i type="int" name="ISMEAR">     0</i>
    <i name="SIGMA">      0.05000000</i>
    <i name="KSPACING">      0.50000000</i>
    <i type="logical" name="KGAMMA"> T  </i>
    <i type="logical" name="KBLOWUP"> T  </i>
   </separator>
   <separator name="electronic projectors" >
    <i type="logical" name="LREAL"> T  </i>
    <v name="ROPT">     -0.00050000     -0.00050000     -0.00050000</v>
    <i type="int" name="LMAXPAW">  -100</i>
    <i type="int" name="LMAXMIX">     2</i>
    <i type="logical" name="NLSPLINE"> F  </i>
   </separator>
   <separator name="electronic startup" >
    <i type="int" name="ISTART">     0</i>
    <i type="int" name="ICHARG">     0</i>
    <i type="int" name="INIWAV">     1</i>
   </separator>
   <separator name="electronic spin" >
    <i type="int" name="ISPIN">     1</i>
    <i type="logical" name="LNONCOLLINEAR"> F  </i>
    <v name="MAGMOM">      1.00000000      1.00000000      1.00000000      1.00000000      1.00000000      1.00000000      1.00000000      1.00000000      1.00000000      1.00000000      1.00000000      1.00000000      1.00000000      1.00000000      1.00000000      1.00000000      1.00000000      1.00000000      1.00000000      1.00000000
      1.00000000      1.00000000      1.00000000      1.00000000      1.00000000      1.00000000      1.00000000      1.00000000      1.00000000      1.00000000      1.00000000      1.00000000      1.00000000      1.00000000      1.00000000      1.00000000      1.00000000      1.00000000      1.00000000      1.00000000
      1.00000000      1.00000000      1.00000000      1.00000000      1.00000000      1.00000000      1.00000000      1.00000000      1.00000000      1.00000000      1.00000000      1.00000000      1.00000000      1.00000000      1.00000000      1.00000000      1.00000000      1.00000000      1.00000000      1.00000000
      1.00000000      1.00000000      1.00000000      1.00000000      1.00000000      1.00000000      1.00000000      1.00000000      1.00000000      1.00000000      1.00000000      1.00000000      1.00000000      1.00000000      1.00000000      1.00000000      1.00000000      1.00000000      1.00000000      1.00000000
      1.00000000      1.00000000      1.00000000      1.00000000      1.00000000      1.00000000      1.00000000      1.00000000      1.00000000      1.00000000      1.00000000      1.00000000      1.00000000      1.00000000      1.00000000      1.00000000      1.00000000      1.00000000      1.00000000      1.00000000
      1.00000000      1.00000000      1.00000000      1.00000000      1.00000000      1.00000000      1.00000000      1.00000000      1.00000000      1.00000000      1.00000000      1.00000000      1.00000000      1.00000000      1.00000000      1.00000000      1.00000000      1.00000000      1.00000000</v>
    <i name="NUPDOWN">     -1.00000000</i>
    <i type="logical" name="LSORBIT"> F  </i>
    <v name="SAXIS">      0.00000000      0.00000000      1.00000000</v>
    <i type="logical" name="LSPIRAL"> F  </i>
    <v name="QSPIRAL">      0.00000000      0.00000000      0.00000000</v>
    <i type="logical" name="LZEROZ"> F  </i>
   </separator>
   <separator name="electronic exchange-correlation" >
    <i type="logical" name="LASPH"> F  </i>
    <i type="logical" name="LMETAGGA"> F  </i>
   </separator>
   <separator name="electronic convergence" >
    <i type="int" name="NELM">   500</i>
    <i type="int" name="NELMDL">    -5</i>
    <i type="int" name="NELMIN">     2</i>
    <i name="ENINI">    450.00000000</i>
    <separator name="electronic convergence detail" >
     <i type="logical" name="LDIAG"> T  </i>
     <i type="logical" name="LSUBROT"> F  </i>
     <i name="WEIMIN">      0.00000000</i>
     <i name="EBREAK">      0.00000000</i>
     <i name="DEPER">      0.30000000</i>
     <i type="int" name="NRMM">     4</i>
     <i name="TIME">      0.40000000</i>
    </separator>
   </separator>
   <separator name="electronic mixer" >
    <i name="AMIX">      0.40000000</i>
    <i name="BMIX">      1.00000000</i>
    <i name="AMIN">      0.10000000</i>
    <i name="AMIX_MAG">      1.60000000</i>
    <i name="BMIX_MAG">      1.00000000</i>
    <separator name="electronic mixer details" >
     <i type="int" name="IMIX">     4</i>
     <i type="logical" name="MIXFIRST"> F  </i>
     <i type="int" name="MAXMIX">   -45</i>
     <i name="WC">    100.00000000</i>
     <i type="int" name="INIMIX">     1</i>
     <i type="int" name="MIXPRE">     1</i>
     <i type="int" name="MREMOVE">     5</i>
    </separator>
   </separator>
   <separator name="electronic dipolcorrection" >
    <i type="logical" name="LDIPOL"> F  </i>
    <i type="logical" name="LMONO"> F  </i>
    <i type="int" name="IDIPOL">     0</i>
    <i name="EPSILON">      1.00000000</i>
    <v name="DIPOL">   -100.00000000   -100.00000000   -100.00000000</v>
    <i name="EFIELD">      0.00000000</i>
   </separator>
  </separator>
  <separator name="grids" >
   <i type="int" name="NGX">    64</i>
   <i type="int" name="NGY">    48</i>
   <i type="int" name="NGZ">    60</i>
   <i type="int" name="NGXF">   128</i>
   <i type="int" name="NGYF">    96</i>
   <i type="int" name="NGZF">   120</i>
   <i type="logical" name="ADDGRID"> F  </i>
  </separator>
  <separator name="ionic" >
   <i type="int" name="NSW">     0</i>
   <i type="int" name="IBRION">    -1</i>
   <i type="int" name="MDALGO">     0</i>
   <i type="int" name="ISIF">     2</i>
   <i name="PSTRESS">      0.00000000</i>
   <i name="EDIFFG">     -0.00500000</i>
   <i type="int" name="NFREE">     0</i>
   <i name="POTIM">      0.50000000</i>
   <i name="SMASS">     -3.00000000</i>
   <i name="SCALEE">      1.00000000</i>
  </separator>
  <separator name="ionic md" >
   <i name="TEBEG">      0.00010000</i>
   <i name="TEEND">      0.00010000</i>
   <i type="int" name="NBLOCK">     1</i>
   <i type="int" name="KBLOCK">     1</i>
   <i type="int" name="NPACO">   256</i>
   <i name="APACO">     10.00000000</i>
  </separator>
  <separator name="symmetry" >
   <i type="int" name="ISYM">     3</i>
   <i name="SYMPREC">      0.00001000</i>
  </separator>
  <separator name="dos" >
   <i type="int" name="LORBIT">     0</i>
   <v name="RWIGS">     -1.00000000     -1.00000000     -1.00000000</v>
   <i type="int" name="NEDOS">   301</i>
   <i name="EMIN">     10.00000000</i>
   <i name="EMAX">    -10.00000000</i>
   <i name="EFERMI">      0.00000000</i>
  </separator>
  <separator name="writing" >
   <i type="int" name="NWRITE">     2</i>
   <i type="logical" name="LWAVE"> T  </i>
   <i type="logical" name="LDOWNSAMPLE"> F  </i>
   <i type="logical" name="LCHARG"> T  </i>
   <i type="logical" name="LPARD"> F  </i>
   <i type="logical" name="LVTOT"> F  </i>
   <i type="logical" name="LVHAR"> F  </i>
   <i type="logical" name="LELF"> F  </i>
   <i type="logical" name="LOPTICS"> F  </i>
   <v name="STM">      0.00000000      0.00000000      0.00000000      0.00000000      0.00000000      0.00000000      0.00000000</v>
  </separator>
  <separator name="performance" >
   <i type="int" name="NPAR">     1</i>
   <i type="int" name="NSIM">     4</i>
   <i type="int" name="NBLK">    -1</i>
   <i type="logical" name="LPLANE"> T  </i>
   <i type="logical" name="LSCALAPACK"> T  </i>
   <i type="logical" name="LSCAAWARE"> F  </i>
   <i type="logical" name="LSCALU"> F  </i>
   <i type="logical" name="LASYNC"> F  </i>
   <i type="logical" name="LORBITALREAL"> F  </i>
  </separator>
  <separator name="miscellaneous" >
   <i type="int" name="IDIOT">     3</i>
   <i type="int" name="PHON_NSTRUCT">    -1</i>
   <i type="logical" name="LMUSIC"> F  </i>
   <v name="POMASS">     69.72300000     16.00000000     30.97400000</v>
   <v name="DARWINR">      0.00000000      0.00000000      0.00000000</v>
   <v name="DARWINV">      1.00000000      1.00000000      1.00000000</v>
   <i type="logical" name="LCORR"> T  </i>
  </separator>
  <i type="logical" name="GGA_COMPAT"> T  </i>
  <i type="logical" name="LBERRY"> F  </i>
  <i type="int" name="ICORELEVEL">     0</i>
  <i type="logical" name="LDAU"> F  </i>
  <i type="int" name="I_CONSTRAINED_M">     0</i>
  <separator name="electronic exchange-correlation" >
   <i type="string" name="GGA">--</i>
   <i type="int" name="VOSKOWN">     0</i>
   <i type="logical" name="LHFCALC"> T  </i>
   <i type="string" name="PRECFOCK">fast</i>
   <i type="logical" name="LSYMGRAD"> F  </i>
   <i type="logical" name="LHFONE"> F  </i>
   <i type="logical" name="LRHFCALC"> F  </i>
   <i type="logical" name="LTHOMAS"> F  </i>
   <i type="logical" name="LMODELHF"> F  </i>
   <i type="logical" name="LFOCKACE"> T  </i>
   <i name="ENCUT4O">     -1.00000000</i>
   <i type="int" name="EXXOEP">     0</i>
   <i type="int" name="FOURORBIT">     0</i>
   <i name="AEXX">      0.35000000</i>
   <i name="HFALPHA">     -1.00000000</i>
   <i name="MCALPHA">      0.00000000</i>
   <i name="ALDAX">      0.65000000</i>
   <i name="AGGAX">      0.65000000</i>
   <i name="ALDAC">      1.00000000</i>
   <i name="AGGAC">      1.00000000</i>
   <i type="int" name="NKREDX">     1</i>
   <i type="int" name="NKREDY">     1</i>
   <i type="int" name="NKREDZ">     1</i>
   <i type="logical" name="SHIFTRED"> F  </i>
   <i type="logical" name="ODDONLY"> F  </i>
   <i type="logical" name="EVENONLY"> F  </i>
   <i type="int" name="LMAXFOCK">     4</i>
   <i type="int" name="NMAXFOCKAE">     1</i>
   <i type="logical" name="LFOCKAEDFT"> F  </i>
   <i name="HFSCREEN">      0.18000000</i>
   <i name="HFSCREENC">      0.18000000</i>
   <i type="int" name="NBANDSGWLOW">     1</i>
  </separator>
  <separator name="vdW DFT" >
   <i type="logical" name="LUSE_VDW"> F  </i>
   <i type="int" name="IVDW_NL">     1</i>
   <i type="logical" name="LSPIN_VDW"> F  </i>
   <i name="Zab_VDW">     -0.84910000</i>
   <i name="PARAM1">      0.12340000</i>
   <i name="PARAM2">      1.00000000</i>
   <i name="PARAM3">      0.00000000</i>
  </separator>
  <separator name="model GW" >
   <i type="int" name="MODEL_GW">     0</i>
   <i name="MODEL_EPS0">      6.39733692</i>
   <i name="MODEL_ALPHA">      1.00000000</i>
  </separator>
  <separator name="linear response parameters" >
   <i type="logical" name="LEPSILON"> F  </i>
   <i type="logical" name="LRPA"> F  </i>
   <i type="logical" name="LNABLA"> F  </i>
   <i type="logical" name="LVEL"> F  </i>
   <i name="CSHIFT">      0.10000000</i>
   <i name="OMEGAMAX">     -1.00000000</i>
   <i name="DEG_THRESHOLD">      0.00200000</i>
   <i name="RTIME">     -0.10000000</i>
   <i name="WPLASMAI">      0.00000000</i>
   <v name="DFIELD">      0.00000000      0.00000000      0.00000000</v>
   <v name="WPLASMA">      0.00000000      0.00000000      0.00000000      0.00000000      0.00000000      0.00000000      0.00000000      0.00000000      0.00000000</v>
  </separator>
  <separator name="orbital magnetization" >
   <i type="logical" name="NUCIND"> F  </i>
   <v name="MAGPOS">      0.00000000      0.00000000      0.00000000</v>
   <i type="logical" name="LNICSALL"> T  </i>
   <i type="logical" name="ORBITALMAG"> F  </i>
   <i type="logical" name="LMAGBLOCH"> F  </i>
   <i type="logical" name="LCHIMAG"> F  </i>
   <i type="logical" name="LGAUGE"> T  </i>
   <i type="int" name="MAGATOM">     0</i>
   <v name="MAGDIPOL">      0.00000000      0.00000000      0.00000000</v>
   <v name="AVECCONST">      0.00000000      0.00000000      0.00000000</v>
  </separator>
  <separator name="response functions" >
   <i type="logical" name="LALL_IN_ONE"> F  </i>
   <i type="int" name="IALL_IN_ONE">    -1</i>
   <i type="int" name="NBANDS_WAVE">    -1</i>
   <i type="logical" name="LFINITE_TEMPERATURE"> F  </i>
   <i type="logical" name="LADDER"> F  </i>
   <i type="logical" name="LRPAFORCE"> F  </i>
   <i type="logical" name="LFXC"> F  </i>
   <i type="logical" name="LHARTREE"> T  </i>
   <i type="int" name="IBSE">     0</i>
   <v type="int" name="KPOINT">    -1     0     0     0</v>
   <i type="logical" name="LTCTC"> F  </i>
   <i type="logical" name="LTCTE"> F  </i>
   <i type="logical" name="LTETE"> F  </i>
   <i type="logical" name="LTRIPLET"> F  </i>
   <i type="logical" name="LFXCEPS"> F  </i>
   <i type="logical" name="LFXHEG"> F  </i>
   <i type="int" name="NATURALO">     2</i>
   <i type="logical" name="LHOLEGF"> F  </i>
   <i type="logical" name="L2ORDER"> F  </i>
   <i type="logical" name="LDMP1"> F  </i>
   <i type="logical" name="LMP2LT"> F  </i>
   <i type="logical" name="LSMP2LT"> F  </i>
   <i type="logical" name="LGWLF"> F  </i>
   <i name="ENCUTGW">     -1.60000002</i>
   <i name="ENCUTGWSOFT">     -1.60000002</i>
   <i name="ENCUTLF">     -1.00000000</i>
   <i type="logical" name="LESF_SPLINES"> F  </i>
   <i type="int" name="LMAXMP2">    -1</i>
   <i name="SCISSOR">      0.00000000</i>
   <i type="int" name="NOMEGA">     0</i>
   <i type="int" name="NOMEGAR">     0</i>
   <i type="int" name="NBANDSGW">    -1</i>
   <i type="int" name="NBANDSO">    -1</i>
   <i type="int" name="NBANDSV">    -1</i>
   <i type="int" name="NELMGW">     1</i>
   <i type="int" name="NELMHF">     1</i>
   <i type="int" name="DIM">     3</i>
   <i type="int" name="IESPILON">     4</i>
   <i type="int" name="ANTIRES">     0</i>
   <i name="OMEGAMAX">    -30.00000000</i>
   <i name="OMEGAMIN">    -30.00000000</i>
   <i name="OMEGATL">   -200.00000000</i>
   <i type="int" name="OMEGAGRID">     0</i>
   <i name="CSHIFT">     -0.10000000</i>
   <i type="logical" name="LSELFENERGY"> F  </i>
   <i type="logical" name="LSPECTRAL"> F  </i>
   <i type="logical" name="LSPECTRALGW"> F  </i>
   <i type="logical" name="LSINGLES"> F  </i>
   <i type="logical" name="LFERMIGW"> F  </i>
   <i type="logical" name="ODDONLYGW"> F  </i>
   <i type="logical" name="EVENONLYGW"> F  </i>
   <i type="int" name="NKREDLFX">     1</i>
   <i type="int" name="NKREDLFY">     1</i>
   <i type="int" name="NKREDLFZ">     1</i>
   <i type="int" name="MAXMEM">  2800</i>
   <i type="int" name="TELESCOPE">     0</i>
   <i type="int" name="NTAUPAR">    -1</i>
   <i type="int" name="NOMEGAPAR">    -1</i>
   <i name="DAMP_NEWTON">      0.80000001</i>
   <i name="LAMBDA">      1.00000000</i>
  </separator>
  <separator name="External order field" >
   <i name="OFIELD_KAPPA">      0.00000000</i>
   <v name="OFIELD_K">      0.00000000      0.00000000      0.00000000</v>
   <i name="OFIELD_Q6_NEAR">      0.00000000</i>
   <i name="OFIELD_Q6_FAR">      0.00000000</i>
   <i name="OFIELD_A">      0.00000000</i>
  </separator>
  <separator name="optional k-points parameters" >
   <i type="int" name="KPOINTS_OPT_MODE">     1</i>
   <i type="logical" name="LKPOINTS_OPT"> F  </i>
  </separator>
 </parameters>
 <atominfo>
  <atoms>     119 </atoms>
  <types>       3 </types>
  <array name="atoms" >
   <dimension dim="1">ion</dimension>
   <field type="string">element</field>
   <field type="int">atomtype</field>
   <set>
    <rc><c>Ga</c><c>   1</c></rc>
    <rc><c>Ga</c><c>   1</c></rc>
    <rc><c>Ga</c><c>   1</c></rc>
    <rc><c>Ga</c><c>   1</c></rc>
    <rc><c>Ga</c><c>   1</c></rc>
    <rc><c>Ga</c><c>   1</c></rc>
    <rc><c>Ga</c><c>   1</c></rc>
    <rc><c>Ga</c><c>   1</c></rc>
    <rc><c>Ga</c><c>   1</c></rc>
    <rc><c>Ga</c><c>   1</c></rc>
    <rc><c>Ga</c><c>   1</c></rc>
    <rc><c>Ga</c><c>   1</c></rc>
    <rc><c>Ga</c><c>   1</c></rc>
    <rc><c>Ga</c><c>   1</c></rc>
    <rc><c>Ga</c><c>   1</c></rc>
    <rc><c>Ga</c><c>   1</c></rc>
    <rc><c>Ga</c><c>   1</c></rc>
    <rc><c>Ga</c><c>   1</c></rc>
    <rc><c>Ga</c><c>   1</c></rc>
    <rc><c>Ga</c><c>   1</c></rc>
    <rc><c>Ga</c><c>   1</c></rc>
    <rc><c>Ga</c><c>   1</c></rc>
    <rc><c>Ga</c><c>   1</c></rc>
    <rc><c>Ga</c><c>   1</c></rc>
    <rc><c>Ga</c><c>   1</c></rc>
    <rc><c>Ga</c><c>   1</c></rc>
    <rc><c>Ga</c><c>   1</c></rc>
    <rc><c>Ga</c><c>   1</c></rc>
    <rc><c>Ga</c><c>   1</c></rc>
    <rc><c>Ga</c><c>   1</c></rc>
    <rc><c>Ga</c><c>   1</c></rc>
    <rc><c>Ga</c><c>   1</c></rc>
    <rc><c>Ga</c><c>   1</c></rc>
    <rc><c>Ga</c><c>   1</c></rc>
    <rc><c>Ga</c><c>   1</c></rc>
    <rc><c>Ga</c><c>   1</c></rc>
    <rc><c>Ga</c><c>   1</c></rc>
    <rc><c>Ga</c><c>   1</c></rc>
    <rc><c>Ga</c><c>   1</c></rc>
    <rc><c>Ga</c><c>   1</c></rc>
    <rc><c>Ga</c><c>   1</c></rc>
    <rc><c>Ga</c><c>   1</c></rc>
    <rc><c>Ga</c><c>   1</c></rc>
    <rc><c>Ga</c><c>   1</c></rc>
    <rc><c>Ga</c><c>   1</c></rc>
    <rc><c>Ga</c><c>   1</c></rc>
    <rc><c>Ga</c><c>   1</c></rc>
    <rc><c>O </c><c>   2</c></rc>
    <rc><c>O </c><c>   2</c></rc>
    <rc><c>O </c><c>   2</c></rc>
    <rc><c>O </c><c>   2</c></rc>
    <rc><c>O </c><c>   2</c></rc>
    <rc><c>O </c><c>   2</c></rc>
    <rc><c>O </c><c>   2</c></rc>
    <rc><c>O </c><c>   2</c></rc>
    <rc><c>O </c><c>   2</c></rc>
    <rc><c>O </c><c>   2</c></rc>
    <rc><c>O </c><c>   2</c></rc>
    <rc><c>O </c><c>   2</c></rc>
    <rc><c>O </c><c>   2</c></rc>
    <rc><c>O </c><c>   2</c></rc>
    <rc><c>O </c><c>   2</c></rc>
    <rc><c>O </c><c>   2</c></rc>
    <rc><c>O </c><c>   2</c></rc>
    <rc><c>O </c><c>   2</c></rc>
    <rc><c>O </c><c>   2</c></rc>
    <rc><c>O </c><c>   2</c></rc>
    <rc><c>O </c><c>   2</c></rc>
    <rc><c>O </c><c>   2</c></rc>
    <rc><c>O </c><c>   2</c></rc>
    <rc><c>O </c><c>   2</c></rc>
    <rc><c>O </c><c>   2</c></rc>
    <rc><c>O </c><c>   2</c></rc>
    <rc><c>O </c><c>   2</c></rc>
    <rc><c>O </c><c>   2</c></rc>
    <rc><c>O </c><c>   2</c></rc>
    <rc><c>O </c><c>   2</c></rc>
    <rc><c>O </c><c>   2</c></rc>
    <rc><c>O </c><c>   2</c></rc>
    <rc><c>O </c><c>   2</c></rc>
    <rc><c>O </c><c>   2</c></rc>
    <rc><c>O </c><c>   2</c></rc>
    <rc><c>O </c><c>   2</c></rc>
    <rc><c>O </c><c>   2</c></rc>
    <rc><c>O </c><c>   2</c></rc>
    <rc><c>O </c><c>   2</c></rc>
    <rc><c>O </c><c>   2</c></rc>
    <rc><c>O </c><c>   2</c></rc>
    <rc><c>O </c><c>   2</c></rc>
    <rc><c>O </c><c>   2</c></rc>
    <rc><c>O </c><c>   2</c></rc>
    <rc><c>O </c><c>   2</c></rc>
    <rc><c>O </c><c>   2</c></rc>
    <rc><c>O </c><c>   2</c></rc>
    <rc><c>O </c><c>   2</c></rc>
    <rc><c>O </c><c>   2</c></rc>
    <rc><c>O </c><c>   2</c></rc>
    <rc><c>O </c><c>   2</c></rc>
    <rc><c>O </c><c>   2</c></rc>
    <rc><c>O </c><c>   2</c></rc>
    <rc><c>O </c><c>   2</c></rc>
    <rc><c>O </c><c>   2</c></rc>
    <rc><c>O </c><c>   2</c></rc>
    <rc><c>O </c><c>   2</c></rc>
    <rc><c>O </c><c>   2</c></rc>
    <rc><c>O </c><c>   2</c></rc>
    <rc><c>O </c><c>   2</c></rc>
    <rc><c>O </c><c>   2</c></rc>
    <rc><c>O </c><c>   2</c></rc>
    <rc><c>O </c><c>   2</c></rc>
    <rc><c>O </c><c>   2</c></rc>
    <rc><c>O </c><c>   2</c></rc>
    <rc><c>O </c><c>   2</c></rc>
    <rc><c>O </c><c>   2</c></rc>
    <rc><c>O </c><c>   2</c></rc>
    <rc><c>O </c><c>   2</c></rc>
    <rc><c>O </c><c>   2</c></rc>
    <rc><c>O </c><c>   2</c></rc>
    <rc><c>P </c><c>   3</c></rc>
   </set>
  </array>
  <array name="atomtypes" >
   <dimension dim="1">type</dimension>
   <field type="int">atomspertype</field>
   <field type="string">element</field>
   <field>mass</field>
   <field>valence</field>
   <field type="string">pseudopotential</field>
   <set>
    <rc><c>  47</c><c>Ga</c><c>     69.72300000</c><c>     13.00000000</c><c>  PAW_PBE Ga_d 06Jul2010                </c></rc>
    <rc><c>  71</c><c>O </c><c>     16.00000000</c><c>      6.00000000</c><c>   PAW_PBE O 08Apr2002                  </c></rc>
    <rc><c>   1</c><c>P </c><c>     30.97400000</c><c>      5.00000000</c><c>  PAW_PBE P 06Sep2000                   </c></rc>
   </set>
  </array>
 </atominfo>
 <structure name="initialpos" >
  <crystal>
   <varray name="basis" >
    <v>       0.00000000      12.28047342       0.00000000 </v>
    <v>       9.14270205       0.00000000       0.00000000 </v>
    <v>       0.00000000      -2.76826177     -11.30069772 </v>
   </varray>
   <i name="volume">   1268.80515525 </i>
   <varray name="rec_basis" >
    <v>       0.00000000       0.08143009      -0.01994742 </v>
    <v>       0.10937686      -0.00000000       0.00000000 </v>
    <v>       0.00000000       0.00000000      -0.08849011 </v>
   </varray>
  </crystal>
  <varray name="positions" >
   <v>       0.65682255       0.00000000       0.15587234 </v>
   <v>       0.66050280       0.00000000       0.65696829 </v>
   <v>       0.65856673       0.33305875       0.15785831 </v>
   <v>       0.66064973       0.33346769       0.65673483 </v>
   <v>       0.65856673       0.66694125       0.15785831 </v>
   <v>       0.66064973       0.66653231       0.65673483 </v>
   <v>       0.83857518       0.16357439       0.34178553 </v>
   <v>       0.84118771       0.16642315       0.84405648 </v>
   <v>       0.84363971       0.50000000       0.34323002 </v>
   <v>       0.84056778       0.50000000       0.84346049 </v>
   <v>       0.83857518       0.83642561       0.34178553 </v>
   <v>       0.84118771       0.83357685       0.84405648 </v>
   <v>       0.59089909       0.16710913       0.39867719 </v>
   <v>       0.59296747       0.16677628       0.89832987 </v>
   <v>       0.59063110       0.50000000       0.39811751 </v>
   <v>       0.59289749       0.50000000       0.89878614 </v>
   <v>       0.59089909       0.83289087       0.39867719 </v>
   <v>       0.59296747       0.83322372       0.89832987 </v>
   <v>       0.90965338       0.00000000       0.10318880 </v>
   <v>       0.90831525       0.00000000       0.60281283 </v>
   <v>       0.90795363       0.33389951       0.10145927 </v>
   <v>       0.91072572       0.33300183       0.60399302 </v>
   <v>       0.90795363       0.66610049       0.10145927 </v>
   <v>       0.91072572       0.66699817       0.60399302 </v>
   <v>       0.15732697       0.17071049       0.15626192 </v>
   <v>       0.15910536       0.17514756       0.66802125 </v>
   <v>       0.15859865       0.50000000       0.15846921 </v>
   <v>       0.16051428       0.50000000       0.65742403 </v>
   <v>       0.15732697       0.82928951       0.15626192 </v>
   <v>       0.15910536       0.82485244       0.66802125 </v>
   <v>       0.34274499       0.00000000       0.34658800 </v>
   <v>       0.34360687       0.00000000       0.84428083 </v>
   <v>       0.34020072       0.33340396       0.34591442 </v>
   <v>       0.34332032       0.33452603       0.84730070 </v>
   <v>       0.34020072       0.66659604       0.34591442 </v>
   <v>       0.34332032       0.66547397       0.84730070 </v>
   <v>       0.09236830       0.00000000       0.90062018 </v>
   <v>       0.09246348       0.32916263       0.39974992 </v>
   <v>       0.09055110       0.33419847       0.90021988 </v>
   <v>       0.09246348       0.67083737       0.39974992 </v>
   <v>       0.09055110       0.66580153       0.90021988 </v>
   <v>       0.40661365       0.16633237       0.10409236 </v>
   <v>       0.41117529       0.16702533       0.60363976 </v>
   <v>       0.40867671       0.50000000       0.10569121 </v>
   <v>       0.40979577       0.50000000       0.60395864 </v>
   <v>       0.40661365       0.83366763       0.10409236 </v>
   <v>       0.41117529       0.83297467       0.60363976 </v>
   <v>       0.99625178       0.16765596       0.12890124 </v>
   <v>       0.99886083       0.16440332       0.62361770 </v>
   <v>       0.99628722       0.50000000       0.12697919 </v>
   <v>       0.99841970       0.50000000       0.62876964 </v>
   <v>       0.99625178       0.83234404       0.12890124 </v>
   <v>       0.99886083       0.83559668       0.62361770 </v>
   <v>       0.50380630       0.00000000       0.37413086 </v>
   <v>       0.50501002       0.00000000       0.87366029 </v>
   <v>       0.50236970       0.33328543       0.37378490 </v>
   <v>       0.50458276       0.33316467       0.87354082 </v>
   <v>       0.50236970       0.66671457       0.37378490 </v>
   <v>       0.50458276       0.66683533       0.87354082 </v>
   <v>       0.67181070       0.16678144       0.28084974 </v>
   <v>       0.67330681       0.16652490       0.78030457 </v>
   <v>       0.67486049       0.50000000       0.28258327 </v>
   <v>       0.67297849       0.50000000       0.78003508 </v>
   <v>       0.67181070       0.83321856       0.28084974 </v>
   <v>       0.67330681       0.83347510       0.78030457 </v>
   <v>       0.82774055       0.00000000       0.22058764 </v>
   <v>       0.82882803       0.00000000       0.72067600 </v>
   <v>       0.83036187       0.33032547       0.22186319 </v>
   <v>       0.82910766       0.33275673       0.72033710 </v>
   <v>       0.83036187       0.66967453       0.22186319 </v>
   <v>       0.82910766       0.66724327       0.72033710 </v>
   <v>       0.83242823       0.00000000       0.44564958 </v>
   <v>       0.83277644       0.00000000       0.94683403 </v>
   <v>       0.84200941       0.32981784       0.44484316 </v>
   <v>       0.83082374       0.33322324       0.94560336 </v>
   <v>       0.84200941       0.67018216       0.44484316 </v>
   <v>       0.83082374       0.66677676       0.94560336 </v>
   <v>       0.66858889       0.16680346       0.05550678 </v>
   <v>       0.67016371       0.16696648       0.55435098 </v>
   <v>       0.66902181       0.50000000       0.05639708 </v>
   <v>       0.67123951       0.50000000       0.55373749 </v>
   <v>       0.66858889       0.83319654       0.05550678 </v>
   <v>       0.67016371       0.83303352       0.55435098 </v>
   <v>       0.49471903       0.00000000       0.12845182 </v>
   <v>       0.49806223       0.00000000       0.62754328 </v>
   <v>       0.49541979       0.33237565       0.12941657 </v>
   <v>       0.49777716       0.33375776       0.62752798 </v>
   <v>       0.49541979       0.66762435       0.12941657 </v>
   <v>       0.49777716       0.66624224       0.62752798 </v>
   <v>       0.01666230       0.14090449       0.37442049 </v>
   <v>       0.00449403       0.16658938       0.87288174 </v>
   <v>       0.00717754       0.50000000       0.37358883 </v>
   <v>       0.00300238       0.50000000       0.87407192 </v>
   <v>       0.01666230       0.85909551       0.37442049 </v>
   <v>       0.00449403       0.83341062       0.87288174 </v>
   <v>       0.16211394       0.00000000       0.29371646 </v>
   <v>       0.17094122       0.00000000       0.77625034 </v>
   <v>       0.17103033       0.33165344       0.28116755 </v>
   <v>       0.17366092       0.33581644       0.78386097 </v>
   <v>       0.17103033       0.66834656       0.28116755 </v>
   <v>       0.17366092       0.66418356       0.78386097 </v>
   <v>       0.32384630       0.16282172       0.22215234 </v>
   <v>       0.32577062       0.16312310       0.71781965 </v>
   <v>       0.32637267       0.50000000       0.22251331 </v>
   <v>       0.32782949       0.50000000       0.72112779 </v>
   <v>       0.32384630       0.83717828       0.22215234 </v>
   <v>       0.32577062       0.83687690       0.71781965 </v>
   <v>       0.33065452       0.16552614       0.44796600 </v>
   <v>       0.33069427       0.16577033       0.94602960 </v>
   <v>       0.32950112       0.50000000       0.44801665 </v>
   <v>       0.33306910       0.50000000       0.94844429 </v>
   <v>       0.33065452       0.83447386       0.44796600 </v>
   <v>       0.33069427       0.83422967       0.94602960 </v>
   <v>       0.16593165       0.00000000       0.06004126 </v>
   <v>       0.16987046       0.33466272       0.05559861 </v>
   <v>       0.16756820       0.33009195       0.55606107 </v>
   <v>       0.16987046       0.66533728       0.05559861 </v>
   <v>       0.16756820       0.66990805       0.55606107 </v>
   <v>       0.10213498       0.00000000       0.40633080 </v>
  </varray>
 </structure>
 <calculation>
  <scstep>
   <time name="total">    3.94    3.95</time>
   <energy>
    <i name="alphaZ">   5376.25786726 </i>
    <i name="ewald"> -86550.04632402 </i>
    <i name="hartreedc">  -2080.70350135 </i>
    <i name="XCdc">   2751.55950831 </i>
    <i name="pawpsdc"> 332246.28878934 </i>
    <i name="pawaedc">-363558.85199951 </i>
    <i name="eentropy">     -0.00386786 </i>
    <i name="bandstr"> -41008.56578923 </i>
    <i name="atom"> 131459.35058357 </i>
    <i name="e_fr_energy"> -21364.71473348 </i>
    <i name="e_wo_entrp"> -21364.71086562 </i>
    <i name="e_0_energy"> -21364.71279955 </i>
   </energy>
  </scstep>
  <scstep>
   <time name="total">    3.12    3.12</time>
   <energy>
    <i name="e_fr_energy"> -65663.45514386 </i>
    <i name="e_wo_entrp"> -65663.43283860 </i>
    <i name="e_0_energy"> -65663.44399123 </i>
   </energy>
  </scstep>
  <scstep>
   <time name="total">    3.33    3.33</time>
   <energy>
    <i name="e_fr_energy"> -70667.05105881 </i>
    <i name="e_wo_entrp"> -70667.02235923 </i>
    <i name="e_0_energy"> -70667.03670902 </i>
   </energy>
  </scstep>
  <scstep>
   <time name="total">    3.87    3.87</time>
   <energy>
    <i name="e_fr_energy"> -71415.19050494 </i>
    <i name="e_wo_entrp"> -71415.16565685 </i>
    <i name="e_0_energy"> -71415.17808090 </i>
   </energy>
  </scstep>
  <scstep>
   <time name="total">  230.34  230.29</time>
   <energy>
    <i name="e_fr_energy"> -39019.74895839 </i>
    <i name="e_wo_entrp"> -39019.74658549 </i>
    <i name="e_0_energy"> -39019.74777194 </i>
   </energy>
  </scstep>
  <scstep>
   <time name="total">  459.67  459.58</time>
   <energy>
    <i name="e_fr_energy">  29641.74947150 </i>
    <i name="e_wo_entrp">  29641.77663532 </i>
    <i name="e_0_energy">  29641.76305341 </i>
   </energy>
  </scstep>
  <scstep>
   <time name="total">  459.67  459.60</time>
   <energy>
    <i name="e_fr_energy">  11469.03171716 </i>
    <i name="e_wo_entrp">  11469.05548023 </i>
    <i name="e_0_energy">  11469.04359869 </i>
   </energy>
  </scstep>
  <scstep>
   <time name="total">  459.31  459.23</time>
   <energy>
    <i name="e_fr_energy">   5941.52668776 </i>
    <i name="e_wo_entrp">   5941.54601107 </i>
    <i name="e_0_energy">   5941.53634942 </i>
   </energy>
  </scstep>
  <scstep>
   <time name="total">  459.04  458.96</time>
   <energy>
    <i name="e_fr_energy">   4071.88863120 </i>
    <i name="e_wo_entrp">   4071.91871210 </i>
    <i name="e_0_energy">   4071.90367165 </i>
   </energy>
  </scstep>
  <scstep>
   <time name="total">  460.01  459.93</time>
   <energy>
    <i name="e_fr_energy">   2196.14255365 </i>
    <i name="e_wo_entrp">   2196.16991290 </i>
    <i name="e_0_energy">   2196.15623328 </i>
   </energy>
  </scstep>
  <scstep>
   <time name="total">  459.23  459.15</time>
   <energy>
    <i name="e_fr_energy">    936.59594073 </i>
    <i name="e_wo_entrp">    936.59905330 </i>
    <i name="e_0_energy">    936.59749701 </i>
   </energy>
  </scstep>
  <scstep>
   <time name="total">  458.87  458.78</time>
   <energy>
    <i name="e_fr_energy">     63.72114489 </i>
    <i name="e_wo_entrp">     63.73145466 </i>
    <i name="e_0_energy">     63.72629978 </i>
   </energy>
  </scstep>
  <scstep>
   <time name="total">  458.72  458.64</time>
   <energy>
    <i name="e_fr_energy">   -473.14355013 </i>
    <i name="e_wo_entrp">   -473.13521125 </i>
    <i name="e_0_energy">   -473.13938069 </i>
   </energy>
  </scstep>
  <scstep>
   <time name="total">  458.79  458.71</time>
   <energy>
    <i name="e_fr_energy">   -737.47041039 </i>
    <i name="e_wo_entrp">   -737.46062041 </i>
    <i name="e_0_energy">   -737.46551540 </i>
   </energy>
  </scstep>
  <scstep>
   <time name="total">  458.56  458.47</time>
   <energy>
    <i name="e_fr_energy">   -863.02874301 </i>
    <i name="e_wo_entrp">   -863.02472603 </i>
    <i name="e_0_energy">   -863.02673452 </i>
   </energy>
  </scstep>
  <scstep>
   <time name="total">  458.72  458.63</time>
   <energy>
    <i name="e_fr_energy">   -915.76047542 </i>
    <i name="e_wo_entrp">   -915.75419428 </i>
    <i name="e_0_energy">   -915.75733485 </i>
   </energy>
  </scstep>
  <scstep>
   <time name="total">  458.52  458.44</time>
   <energy>
    <i name="e_fr_energy">   -944.19213007 </i>
    <i name="e_wo_entrp">   -944.18674730 </i>
    <i name="e_0_energy">   -944.18943868 </i>
   </energy>
  </scstep>
  <scstep>
   <time name="total">  458.33  458.25</time>
   <energy>
    <i name="e_fr_energy">   -958.98073827 </i>
    <i name="e_wo_entrp">   -958.97200894 </i>
    <i name="e_0_energy">   -958.97637361 </i>
   </energy>
  </scstep>
  <scstep>
   <time name="total">  458.45  458.37</time>
   <energy>
    <i name="e_fr_energy">   -966.89592296 </i>
    <i name="e_wo_entrp">   -966.88649891 </i>
    <i name="e_0_energy">   -966.89121093 </i>
   </energy>
  </scstep>
  <scstep>
   <time name="total">  458.77  458.69</time>
   <energy>
    <i name="e_fr_energy">   -971.40145314 </i>
    <i name="e_wo_entrp">   -971.39115344 </i>
    <i name="e_0_energy">   -971.39630329 </i>
   </energy>
  </scstep>
  <scstep>
   <time name="total">  458.69  458.60</time>
   <energy>
    <i name="e_fr_energy">   -973.63159919 </i>
    <i name="e_wo_entrp">   -973.62097180 </i>
    <i name="e_0_energy">   -973.62628550 </i>
   </energy>
  </scstep>
  <scstep>
   <time name="total">  458.64  458.55</time>
   <energy>
    <i name="e_fr_energy">   -974.81259748 </i>
    <i name="e_wo_entrp">   -974.80111054 </i>
    <i name="e_0_energy">   -974.80685401 </i>
   </energy>
  </scstep>
  <scstep>
   <time name="total">  458.75  458.67</time>
   <energy>
    <i name="e_fr_energy">   -975.38869233 </i>
    <i name="e_wo_entrp">   -975.37699517 </i>
    <i name="e_0_energy">   -975.38284375 </i>
   </energy>
  </scstep>
  <scstep>
   <time name="total">  458.73  458.64</time>
   <energy>
    <i name="e_fr_energy">   -975.69442639 </i>
    <i name="e_wo_entrp">   -975.68303037 </i>
    <i name="e_0_energy">   -975.68872838 </i>
   </energy>
  </scstep>
  <scstep>
   <time name="total">  458.69  458.60</time>
   <energy>
    <i name="e_fr_energy">   -975.84604677 </i>
    <i name="e_wo_entrp">   -975.83492892 </i>
    <i name="e_0_energy">   -975.84048784 </i>
   </energy>
  </scstep>
  <scstep>
   <time name="total">  458.63  458.56</time>
   <energy>
    <i name="e_fr_energy">   -975.93787512 </i>
    <i name="e_wo_entrp">   -975.92684823 </i>
    <i name="e_0_energy">   -975.93236168 </i>
   </energy>
  </scstep>
  <scstep>
   <time name="total">  458.59  458.51</time>
   <energy>
    <i name="e_fr_energy">   -975.98667983 </i>
    <i name="e_wo_entrp">   -975.97576226 </i>
    <i name="e_0_energy">   -975.98122104 </i>
   </energy>
  </scstep>
  <scstep>
   <time name="total">  458.85  458.77</time>
   <energy>
    <i name="e_fr_energy">   -976.01270212 </i>
    <i name="e_wo_entrp">   -976.00187933 </i>
    <i name="e_0_energy">   -976.00729073 </i>
   </energy>
  </scstep>
  <scstep>
   <time name="total">  458.54  458.47</time>
   <energy>
    <i name="e_fr_energy">   -976.02593731 </i>
    <i name="e_wo_entrp">   -976.01513040 </i>
    <i name="e_0_energy">   -976.02053386 </i>
   </energy>
  </scstep>
  <scstep>
   <time name="total">  458.57  458.50</time>
   <energy>
    <i name="e_fr_energy">   -976.03248892 </i>
    <i name="e_wo_entrp">   -976.02163896 </i>
    <i name="e_0_energy">   -976.02706394 </i>
   </energy>
  </scstep>
  <scstep>
   <time name="total">  458.39  458.30</time>
   <energy>
    <i name="e_fr_energy">   -976.03623558 </i>
    <i name="e_wo_entrp">   -976.02532756 </i>
    <i name="e_0_energy">   -976.03078157 </i>
   </energy>
  </scstep>
  <scstep>
   <time name="total">  458.48  458.40</time>
   <energy>
    <i name="e_fr_energy">   -976.03833158 </i>
    <i name="e_wo_entrp">   -976.02736749 </i>
    <i name="e_0_energy">   -976.03284953 </i>
   </energy>
  </scstep>
  <scstep>
   <time name="total">  458.94  458.85</time>
   <energy>
    <i name="e_fr_energy">   -976.03956332 </i>
    <i name="e_wo_entrp">   -976.02855673 </i>
    <i name="e_0_energy">   -976.03406002 </i>
   </energy>
  </scstep>
  <scstep>
   <time name="total">  458.90  458.81</time>
   <energy>
    <i name="e_fr_energy">   -976.04020679 </i>
    <i name="e_wo_entrp">   -976.02917370 </i>
    <i name="e_0_energy">   -976.03469024 </i>
   </energy>
  </scstep>
  <scstep>
   <time name="total">  458.82  458.74</time>
   <energy>
    <i name="e_fr_energy">   -976.04053318 </i>
    <i name="e_wo_entrp">   -976.02948427 </i>
    <i name="e_0_energy">   -976.03500872 </i>
   </energy>
  </scstep>
  <scstep>
   <time name="total">  458.90  458.81</time>
   <energy>
    <i name="e_fr_energy">   -976.04070977 </i>
    <i name="e_wo_entrp">   -976.02965030 </i>
    <i name="e_0_energy">   -976.03518003 </i>
   </energy>
  </scstep>
  <scstep>
   <time name="total">  458.52  458.44</time>
   <energy>
    <i name="e_fr_energy">   -976.04080865 </i>
    <i name="e_wo_entrp">   -976.02974911 </i>
    <i name="e_0_energy">   -976.03527888 </i>
   </energy>
  </scstep>
  <scstep>
   <time name="total">  458.75  458.66</time>
   <energy>
    <i name="e_fr_energy">   -976.04089410 </i>
    <i name="e_wo_entrp">   -976.02983853 </i>
    <i name="e_0_energy">   -976.03536631 </i>
   </energy>
  </scstep>
  <scstep>
   <time name="total">  458.67  458.59</time>
   <energy>
    <i name="e_fr_energy">   -976.04092404 </i>
    <i name="e_wo_entrp">   -976.02986973 </i>
    <i name="e_0_energy">   -976.03539688 </i>
   </energy>
  </scstep>
  <scstep>
   <time name="total">  458.84  458.75</time>
   <energy>
    <i name="e_fr_energy">   -976.04093417 </i>
    <i name="e_wo_entrp">   -976.02988018 </i>
    <i name="e_0_energy">   -976.03540717 </i>
   </energy>
  </scstep>
  <scstep>
   <time name="total">  683.96  683.83</time>
   <energy>
    <i name="alphaZ">   5376.25786726 </i>
    <i name="ewald"> -86550.04632402 </i>
    <i name="hartreedc"> -34004.58892439 </i>
    <i name="XCdc">   2753.28633670 </i>
    <i name="pawpsdc"> 120647.70137144 </i>
    <i name="pawaedc">-135810.30048837 </i>
    <i name="eentropy">     -0.01105321 </i>
    <i name="bandstr">  -9100.25657132 </i>
    <i name="atom"> 131459.35058357 </i>
    <i name="e_fr_energy">   -976.04093762 </i>
    <i name="e_wo_entrp">   -976.02988441 </i>
    <i name="e_0_energy">   -976.03541102 </i>
   </energy>
  </scstep>
  <structure>
   <crystal>
    <varray name="basis" >
     <v>       0.00000000      12.28047342       0.00000000 </v>
     <v>       9.14270205       0.00000000       0.00000000 </v>
     <v>       0.00000000      -2.76826177     -11.30069772 </v>
    </varray>
    <i name="volume">   1268.80515525 </i>
    <varray name="rec_basis" >
     <v>       0.00000000       0.08143009      -0.01994742 </v>
     <v>       0.10937686      -0.00000000       0.00000000 </v>
     <v>       0.00000000       0.00000000      -0.08849011 </v>
    </varray>
   </crystal>
   <varray name="positions" >
    <v>       0.65682255       0.00000000       0.15587234 </v>
    <v>       0.66050280       0.00000000       0.65696829 </v>
    <v>       0.65856673       0.33305875       0.15785831 </v>
    <v>       0.66064973       0.33346769       0.65673483 </v>
    <v>       0.65856673       0.66694125       0.15785831 </v>
    <v>       0.66064973       0.66653231       0.65673483 </v>
    <v>       0.83857518       0.16357439       0.34178553 </v>
    <v>       0.84118771       0.16642315       0.84405648 </v>
    <v>       0.84363971       0.50000000       0.34323002 </v>
    <v>       0.84056778       0.50000000       0.84346049 </v>
    <v>       0.83857518       0.83642561       0.34178553 </v>
    <v>       0.84118771       0.83357685       0.84405648 </v>
    <v>       0.59089909       0.16710913       0.39867719 </v>
    <v>       0.59296747       0.16677628       0.89832987 </v>
    <v>       0.59063110       0.50000000       0.39811751 </v>
    <v>       0.59289749       0.50000000       0.89878614 </v>
    <v>       0.59089909       0.83289087       0.39867719 </v>
    <v>       0.59296747       0.83322372       0.89832987 </v>
    <v>       0.90965338       0.00000000       0.10318880 </v>
    <v>       0.90831525       0.00000000       0.60281283 </v>
    <v>       0.90795363       0.33389951       0.10145927 </v>
    <v>       0.91072572       0.33300183       0.60399302 </v>
    <v>       0.90795363       0.66610049       0.10145927 </v>
    <v>       0.91072572       0.66699817       0.60399302 </v>
    <v>       0.15732697       0.17071049       0.15626192 </v>
    <v>       0.15910536       0.17514756       0.66802125 </v>
    <v>       0.15859865       0.50000000       0.15846921 </v>
    <v>       0.16051428       0.50000000       0.65742403 </v>
    <v>       0.15732697       0.82928951       0.15626192 </v>
    <v>       0.15910536       0.82485244       0.66802125 </v>
    <v>       0.34274499       0.00000000       0.34658800 </v>
    <v>       0.34360687       0.00000000       0.84428083 </v>
    <v>       0.34020072       0.33340396       0.34591442 </v>
    <v>       0.34332032       0.33452603       0.84730070 </v>
    <v>       0.34020072       0.66659604       0.34591442 </v>
    <v>       0.34332032       0.66547397       0.84730070 </v>
    <v>       0.09236830       0.00000000       0.90062018 </v>
    <v>       0.09246348       0.32916263       0.39974992 </v>
    <v>       0.09055110       0.33419847       0.90021988 </v>
    <v>       0.09246348       0.67083737       0.39974992 </v>
    <v>       0.09055110       0.66580153       0.90021988 </v>
    <v>       0.40661365       0.16633237       0.10409236 </v>
    <v>       0.41117529       0.16702533       0.60363976 </v>
    <v>       0.40867671       0.50000000       0.10569121 </v>
    <v>       0.40979577       0.50000000       0.60395864 </v>
    <v>       0.40661365       0.83366763       0.10409236 </v>
    <v>       0.41117529       0.83297467       0.60363976 </v>
    <v>       0.99625178       0.16765596       0.12890124 </v>
    <v>       0.99886083       0.16440332       0.62361770 </v>
    <v>       0.99628722       0.50000000       0.12697919 </v>
    <v>       0.99841970       0.50000000       0.62876964 </v>
    <v>       0.99625178       0.83234404       0.12890124 </v>
    <v>       0.99886083       0.83559668       0.62361770 </v>
    <v>       0.50380630       0.00000000       0.37413086 </v>
    <v>       0.50501002       0.00000000       0.87366029 </v>
    <v>       0.50236970       0.33328543       0.37378490 </v>
    <v>       0.50458276       0.33316467       0.87354082 </v>
    <v>       0.50236970       0.66671457       0.37378490 </v>
    <v>       0.50458276       0.66683533       0.87354082 </v>
    <v>       0.67181070       0.16678144       0.28084974 </v>
    <v>       0.67330681       0.16652490       0.78030457 </v>
    <v>       0.67486049       0.50000000       0.28258327 </v>
    <v>       0.67297849       0.50000000       0.78003508 </v>
    <v>       0.67181070       0.83321856       0.28084974 </v>
    <v>       0.67330681       0.83347510       0.78030457 </v>
    <v>       0.82774055       0.00000000       0.22058764 </v>
    <v>       0.82882803       0.00000000       0.72067600 </v>
    <v>       0.83036187       0.33032547       0.22186319 </v>
    <v>       0.82910766       0.33275673       0.72033710 </v>
    <v>       0.83036187       0.66967453       0.22186319 </v>
    <v>       0.82910766       0.66724327       0.72033710 </v>
    <v>       0.83242823       0.00000000       0.44564958 </v>
    <v>       0.83277644       0.00000000       0.94683403 </v>
    <v>       0.84200941       0.32981784       0.44484316 </v>
    <v>       0.83082374       0.33322324       0.94560336 </v>
    <v>       0.84200941       0.67018216       0.44484316 </v>
    <v>       0.83082374       0.66677676       0.94560336 </v>
    <v>       0.66858889       0.16680346       0.05550678 </v>
    <v>       0.67016371       0.16696648       0.55435098 </v>
    <v>       0.66902181       0.50000000       0.05639708 </v>
    <v>       0.67123951       0.50000000       0.55373749 </v>
    <v>       0.66858889       0.83319654       0.05550678 </v>
    <v>       0.67016371       0.83303352       0.55435098 </v>
    <v>       0.49471903       0.00000000       0.12845182 </v>
    <v>       0.49806223       0.00000000       0.62754328 </v>
    <v>       0.49541979       0.33237565       0.12941657 </v>
    <v>       0.49777716       0.33375776       0.62752798 </v>
    <v>       0.49541979       0.66762435       0.12941657 </v>
    <v>       0.49777716       0.66624224       0.62752798 </v>
    <v>       0.01666230       0.14090449       0.37442049 </v>
    <v>       0.00449403       0.16658938       0.87288174 </v>
    <v>       0.00717754       0.50000000       0.37358883 </v>
    <v>       0.00300238       0.50000000       0.87407192 </v>
    <v>       0.01666230       0.85909551       0.37442049 </v>
    <v>       0.00449403       0.83341062       0.87288174 </v>
    <v>       0.16211394       0.00000000       0.29371646 </v>
    <v>       0.17094122       0.00000000       0.77625034 </v>
    <v>       0.17103033       0.33165344       0.28116755 </v>
    <v>       0.17366092       0.33581644       0.78386097 </v>
    <v>       0.17103033       0.66834656       0.28116755 </v>
    <v>       0.17366092       0.66418356       0.78386097 </v>
    <v>       0.32384630       0.16282172       0.22215234 </v>
    <v>       0.32577062       0.16312310       0.71781965 </v>
    <v>       0.32637267       0.50000000       0.22251331 </v>
    <v>       0.32782949       0.50000000       0.72112779 </v>
    <v>       0.32384630       0.83717828       0.22215234 </v>
    <v>       0.32577062       0.83687690       0.71781965 </v>
    <v>       0.33065452       0.16552614       0.44796600 </v>
    <v>       0.33069427       0.16577033       0.94602960 </v>
    <v>       0.32950112       0.50000000       0.44801665 </v>
    <v>       0.33306910       0.50000000       0.94844429 </v>
    <v>       0.33065452       0.83447386       0.44796600 </v>
    <v>       0.33069427       0.83422967       0.94602960 </v>
    <v>       0.16593165       0.00000000       0.06004126 </v>
    <v>       0.16987046       0.33466272       0.05559861 </v>
    <v>       0.16756820       0.33009195       0.55606107 </v>
    <v>       0.16987046       0.66533728       0.05559861 </v>
    <v>       0.16756820       0.66990805       0.55606107 </v>
    <v>       0.10213498       0.00000000       0.40633080 </v>
   </varray>
  </structure>
  <varray name="forces" >
   <v>       0.00000000       0.05281813       0.03635817 </v>
   <v>       0.00000000       0.08414868      -0.01682384 </v>
   <v>      -0.02942939       0.04487868       0.02911102 </v>
   <v>      -0.02244883       0.08821259      -0.01546694 </v>
   <v>       0.02942939       0.04487868       0.02911102 </v>
   <v>       0.02244883       0.08821259      -0.01546694 </v>
   <v>      -0.06695212      -0.19418480      -0.02723713 </v>
   <v>      -0.02369782      -0.02533851       0.02959952 </v>
   <v>       0.00000000      -0.04003172      -0.05108027 </v>
   <v>       0.00000000      -0.05349984       0.02628817 </v>
   <v>       0.06695212      -0.19418480      -0.02723713 </v>
   <v>       0.02369782      -0.02533851       0.02959952 </v>
   <v>      -0.03142873      -0.01584912       0.00105567 </v>
   <v>      -0.02310344      -0.06039478       0.04056384 </v>
   <v>       0.00000000      -0.01654945      -0.00772540 </v>
   <v>       0.00000000      -0.05603310       0.04047422 </v>
   <v>       0.03142873      -0.01584912       0.00105567 </v>
   <v>       0.02310344      -0.06039478       0.04056384 </v>
   <v>       0.00000000       0.03533145      -0.02159742 </v>
   <v>       0.00000000       0.17864572      -0.03008811 </v>
   <v>      -0.04537441       0.03516265      -0.01253008 </v>
   <v>      -0.08653236       0.10909812      -0.02310497 </v>
   <v>       0.04537441       0.03516265      -0.01253008 </v>
   <v>       0.08653236       0.10909812      -0.02310497 </v>
   <v>       0.00257171       0.06751313       0.06281689 </v>
   <v>       0.00066793       0.03387408      -0.14971975 </v>
   <v>       0.00000000       0.09438685       0.03694086 </v>
   <v>       0.00000000       0.06961995       0.00941589 </v>
   <v>      -0.00257171       0.06751313       0.06281689 </v>
   <v>      -0.00066793       0.03387408      -0.14971975 </v>
   <v>       0.00000000      -0.04505036      -0.06757116 </v>
   <v>       0.00000000      -0.15804890       0.08653971 </v>
   <v>      -0.02084804      -0.09048986      -0.02814919 </v>
   <v>      -0.03984005      -0.09007087      -0.00442503 </v>
   <v>       0.02084804      -0.09048986      -0.02814919 </v>
   <v>       0.03984005      -0.09007087      -0.00442503 </v>
   <v>       0.00000000       0.06240406       0.10329980 </v>
   <v>       0.03247312       0.11487906      -0.06536185 </v>
   <v>      -0.06175042       0.00501306       0.06276693 </v>
   <v>      -0.03247312       0.11487906      -0.06536185 </v>
   <v>       0.06175042       0.00501306       0.06276693 </v>
   <v>      -0.04244506       0.02807857       0.04850901 </v>
   <v>      -0.05481439      -0.08532147      -0.06623910 </v>
   <v>       0.00000000       0.02605807       0.03139000 </v>
   <v>       0.00000000      -0.00081771      -0.03858345 </v>
   <v>       0.04244506       0.02807857       0.04850901 </v>
   <v>       0.05481439      -0.08532147      -0.06623910 </v>
   <v>       0.03528295      -0.18712588       0.14917519 </v>
   <v>       0.15327214      -0.36677676       0.05501388 </v>
   <v>       0.00000000      -0.20049088       0.12452086 </v>
   <v>       0.00000000      -0.20996060       0.13485802 </v>
   <v>      -0.03528295      -0.18712588       0.14917519 </v>
   <v>      -0.15327214      -0.36677676       0.05501388 </v>
   <v>       0.00000000       0.16608119      -0.12450167 </v>
   <v>       0.00000000       0.22520229      -0.14004890 </v>
   <v>       0.01685697       0.18747669      -0.12649642 </v>
   <v>       0.04177923       0.22048137      -0.15040084 </v>
   <v>      -0.01685697       0.18747669      -0.12649642 </v>
   <v>      -0.04177923       0.22048137      -0.15040084 </v>
   <v>       0.02715876      -0.01842121      -0.12008072 </v>
   <v>       0.02072100      -0.03411137      -0.13616760 </v>
   <v>       0.00000000      -0.05345540      -0.11196547 </v>
   <v>       0.00000000      -0.02631277      -0.13899092 </v>
   <v>      -0.02715876      -0.01842121      -0.12008072 </v>
   <v>      -0.02072100      -0.03411137      -0.13616760 </v>
   <v>       0.00000000       0.03093851       0.05009512 </v>
   <v>       0.00000000      -0.02575486       0.11606810 </v>
   <v>       0.01266185       0.05543643       0.11835314 </v>
   <v>       0.05133745      -0.00748135       0.12979393 </v>
   <v>      -0.01266185       0.05543643       0.11835314 </v>
   <v>      -0.05133745      -0.00748135       0.12979393 </v>
   <v>       0.00000000       0.40161796       0.05306160 </v>
   <v>       0.00000000       0.40951859      -0.10537761 </v>
   <v>       0.02957296       0.31647195      -0.01647838 </v>
   <v>       0.02923998       0.43513331      -0.11808407 </v>
   <v>      -0.02957296       0.31647195      -0.01647838 </v>
   <v>      -0.02923998       0.43513331      -0.11808407 </v>
   <v>       0.01302850      -0.43191567       0.06107483 </v>
   <v>       0.02720360      -0.45851857       0.10003051 </v>
   <v>       0.00000000      -0.42640820       0.06585650 </v>
   <v>       0.00000000      -0.46611407       0.09708742 </v>
   <v>      -0.01302850      -0.43191567       0.06107483 </v>
   <v>      -0.02720360      -0.45851857       0.10003051 </v>
   <v>       0.00000000      -0.16567314       0.10620097 </v>
   <v>       0.00000000      -0.12080703       0.14040945 </v>
   <v>       0.03835859      -0.18287771       0.10793744 </v>
   <v>       0.02226927      -0.17629428       0.14220075 </v>
   <v>      -0.03835859      -0.18287771       0.10793744 </v>
   <v>      -0.02226927      -0.17629428       0.14220075 </v>
   <v>      -0.14822007       0.40341127      -0.13931998 </v>
   <v>       0.08146116       0.09320035      -0.17304550 </v>
   <v>       0.00000000       0.17443632      -0.10678873 </v>
   <v>       0.00000000       0.18216206      -0.15964496 </v>
   <v>       0.14822007       0.40341127      -0.13931998 </v>
   <v>      -0.08146116       0.09320035      -0.17304550 </v>
   <v>       0.00000000      -0.29003580      -0.30278304 </v>
   <v>       0.00000000      -0.07840801      -0.32363056 </v>
   <v>       0.00842176      -0.04448539      -0.12951388 </v>
   <v>      -0.01755392      -0.05416930      -0.05912459 </v>
   <v>      -0.00842176      -0.04448539      -0.12951388 </v>
   <v>       0.01755392      -0.05416930      -0.05912459 </v>
   <v>       0.02261200       0.03745035       0.09371102 </v>
   <v>       0.12344419       0.18536329       0.02215557 </v>
   <v>       0.00000000       0.04277153       0.11027457 </v>
   <v>       0.00000000       0.06403662       0.14148902 </v>
   <v>      -0.02261200       0.03745035       0.09371102 </v>
   <v>      -0.12344419       0.18536329       0.02215557 </v>
   <v>       0.03479716       0.50066624      -0.02849360 </v>
   <v>       0.07170755       0.47573706      -0.14743041 </v>
   <v>       0.00000000       0.48178838      -0.05429331 </v>
   <v>       0.00000000       0.45214179      -0.08900593 </v>
   <v>      -0.03479716       0.50066624      -0.02849360 </v>
   <v>      -0.07170755       0.47573706      -0.14743041 </v>
   <v>       0.00000000      -0.43787281      -0.07514160 </v>
   <v>       0.00912947      -0.48984574       0.03234442 </v>
   <v>       0.13615306      -0.42548113       0.14780676 </v>
   <v>      -0.00912947      -0.48984574       0.03234442 </v>
   <v>      -0.13615306      -0.42548113       0.14780676 </v>
   <v>       0.00000000      -0.35955249       1.06071333 </v>
  </varray>
  <varray name="stress" >
   <v>     -54.78398319       0.00000000       0.00000000 </v>
   <v>       0.00000000     -45.43458716      -0.38240581 </v>
   <v>       0.00000000      -0.38240540     -36.98995180 </v>
  </varray>
  <energy>
   <i name="e_fr_energy">   -976.04093762 </i>
   <i name="e_wo_entrp">   -976.02988441 </i>
   <i name="e_0_energy">   -976.03541102 </i>
  </energy>
  <time name="totalsc">17558.7017557.70</time>
  <eigenvalues>
   <array>
    <dimension dim="1">band</dimension>
    <dimension dim="2">kpoint</dimension>
    <dimension dim="3">spin</dimension>
    <field>eigene</field>
    <field>occ</field>
    <set>
     <set comment="spin 1">
      <set comment="kpoint 1">
       <r>  -20.1790    1.0000 </r>
       <r>  -19.0108    1.0000 </r>
       <r>  -18.7965    1.0000 </r>
       <r>  -18.7756    1.0000 </r>
       <r>  -18.7078    1.0000 </r>
       <r>  -18.6524    1.0000 </r>
       <r>  -18.4870    1.0000 </r>
       <r>  -18.3758    1.0000 </r>
       <r>  -18.3395    1.0000 </r>
       <r>  -18.2964    1.0000 </r>
       <r>  -18.2577    1.0000 </r>
       <r>  -18.2311    1.0000 </r>
       <r>  -18.1998    1.0000 </r>
       <r>  -18.1525    1.0000 </r>
       <r>  -18.1486    1.0000 </r>
       <r>  -18.0759    1.0000 </r>
       <r>  -18.0692    1.0000 </r>
       <r>  -18.0533    1.0000 </r>
       <r>  -18.0235    1.0000 </r>
       <r>  -18.0129    1.0000 </r>
       <r>  -17.9759    1.0000 </r>
       <r>  -17.9173    1.0000 </r>
       <r>  -17.9124    1.0000 </r>
       <r>  -17.8853    1.0000 </r>
       <r>  -17.8747    1.0000 </r>
       <r>  -17.8607    1.0000 </r>
       <r>  -17.8540    1.0000 </r>
       <r>  -17.8097    1.0000 </r>
       <r>  -17.8044    1.0000 </r>
       <r>  -17.7875    1.0000 </r>
       <r>  -17.7730    1.0000 </r>
       <r>  -17.7719    1.0000 </r>
       <r>  -17.7462    1.0000 </r>
       <r>  -17.7320    1.0000 </r>
       <r>  -17.6992    1.0000 </r>
       <r>  -17.6747    1.0000 </r>
       <r>  -17.6725    1.0000 </r>
       <r>  -17.6483    1.0000 </r>
       <r>  -17.6446    1.0000 </r>
       <r>  -17.6349    1.0000 </r>
       <r>  -17.6235    1.0000 </r>
       <r>  -17.5995    1.0000 </r>
       <r>  -17.5956    1.0000 </r>
       <r>  -17.5874    1.0000 </r>
       <r>  -17.5837    1.0000 </r>
       <r>  -17.5803    1.0000 </r>
       <r>  -17.5095    1.0000 </r>
       <r>  -17.5072    1.0000 </r>
       <r>  -17.4926    1.0000 </r>
       <r>  -17.4768    1.0000 </r>
       <r>  -17.4422    1.0000 </r>
       <r>  -17.4355    1.0000 </r>
       <r>  -17.4274    1.0000 </r>
       <r>  -17.4141    1.0000 </r>
       <r>  -17.4132    1.0000 </r>
       <r>  -17.4047    1.0000 </r>
       <r>  -17.3357    1.0000 </r>
       <r>  -17.3296    1.0000 </r>
       <r>  -17.3187    1.0000 </r>
       <r>  -17.3126    1.0000 </r>
       <r>  -17.3018    1.0000 </r>
       <r>  -17.2705    1.0000 </r>
       <r>  -17.2702    1.0000 </r>
       <r>  -17.2585    1.0000 </r>
       <r>  -17.2526    1.0000 </r>
       <r>  -17.2510    1.0000 </r>
       <r>  -17.2337    1.0000 </r>
       <r>  -17.2302    1.0000 </r>
       <r>  -17.2277    1.0000 </r>
       <r>  -17.2159    1.0000 </r>
       <r>  -17.1446    1.0000 </r>
       <r>  -13.7308    1.0000 </r>
       <r>  -13.6765    1.0000 </r>
       <r>  -13.6197    1.0000 </r>
       <r>  -13.6126    1.0000 </r>
       <r>  -13.6104    1.0000 </r>
       <r>  -13.5961    1.0000 </r>
       <r>  -13.5562    1.0000 </r>
       <r>  -13.5519    1.0000 </r>
       <r>  -13.5092    1.0000 </r>
       <r>  -13.4927    1.0000 </r>
       <r>  -13.4808    1.0000 </r>
       <r>  -13.4601    1.0000 </r>
       <r>  -13.4533    1.0000 </r>
       <r>  -13.4314    1.0000 </r>
       <r>  -13.4179    1.0000 </r>
       <r>  -13.4159    1.0000 </r>
       <r>  -13.4007    1.0000 </r>
       <r>  -13.3984    1.0000 </r>
       <r>  -13.3977    1.0000 </r>
       <r>  -13.3915    1.0000 </r>
       <r>  -13.3886    1.0000 </r>
       <r>  -13.3885    1.0000 </r>
       <r>  -13.3818    1.0000 </r>
       <r>  -13.3754    1.0000 </r>
       <r>  -13.3715    1.0000 </r>
       <r>  -13.3693    1.0000 </r>
       <r>  -13.3672    1.0000 </r>
       <r>  -13.3643    1.0000 </r>
       <r>  -13.3633    1.0000 </r>
       <r>  -13.3620    1.0000 </r>
       <r>  -13.3569    1.0000 </r>
       <r>  -13.3532    1.0000 </r>
       <r>  -13.3511    1.0000 </r>
       <r>  -13.3506    1.0000 </r>
       <r>  -13.3457    1.0000 </r>
       <r>  -13.3431    1.0000 </r>
       <r>  -13.3420    1.0000 </r>
       <r>  -13.3365    1.0000 </r>
       <r>  -13.3324    1.0000 </r>
       <r>  -13.3307    1.0000 </r>
       <r>  -13.3266    1.0000 </r>
       <r>  -13.3216    1.0000 </r>
       <r>  -13.3207    1.0000 </r>
       <r>  -13.3161    1.0000 </r>
       <r>  -13.3136    1.0000 </r>
       <r>  -13.3122    1.0000 </r>
       <r>  -13.3102    1.0000 </r>
       <r>  -13.3058    1.0000 </r>
       <r>  -13.3016    1.0000 </r>
       <r>  -13.2990    1.0000 </r>
       <r>  -13.2981    1.0000 </r>
       <r>  -13.2981    1.0000 </r>
       <r>  -13.2922    1.0000 </r>
       <r>  -13.2883    1.0000 </r>
       <r>  -13.2850    1.0000 </r>
       <r>  -13.2809    1.0000 </r>
       <r>  -13.2782    1.0000 </r>
       <r>  -13.2754    1.0000 </r>
       <r>  -13.2705    1.0000 </r>
       <r>  -13.2682    1.0000 </r>
       <r>  -13.2671    1.0000 </r>
       <r>  -13.2670    1.0000 </r>
       <r>  -13.2654    1.0000 </r>
       <r>  -13.2616    1.0000 </r>
       <r>  -13.2574    1.0000 </r>
       <r>  -13.2563    1.0000 </r>
       <r>  -13.2512    1.0000 </r>
       <r>  -13.2480    1.0000 </r>
       <r>  -13.2451    1.0000 </r>
       <r>  -13.2411    1.0000 </r>
       <r>  -13.2411    1.0000 </r>
       <r>  -13.2363    1.0000 </r>
       <r>  -13.2340    1.0000 </r>
       <r>  -13.2319    1.0000 </r>
       <r>  -13.2218    1.0000 </r>
       <r>  -13.2183    1.0000 </r>
       <r>  -13.2129    1.0000 </r>
       <r>  -13.2126    1.0000 </r>
       <r>  -13.2112    1.0000 </r>
       <r>  -13.2045    1.0000 </r>
       <r>  -13.2007    1.0000 </r>
       <r>  -13.1987    1.0000 </r>
       <r>  -13.1923    1.0000 </r>
       <r>  -13.1873    1.0000 </r>
       <r>  -13.1831    1.0000 </r>
       <r>  -13.1813    1.0000 </r>
       <r>  -13.1781    1.0000 </r>
       <r>  -13.1730    1.0000 </r>
       <r>  -13.1717    1.0000 </r>
       <r>  -13.1705    1.0000 </r>
       <r>  -13.1673    1.0000 </r>
       <r>  -13.1671    1.0000 </r>
       <r>  -13.1605    1.0000 </r>
       <r>  -13.1595    1.0000 </r>
       <r>  -13.1588    1.0000 </r>
       <r>  -13.1553    1.0000 </r>
       <r>  -13.1543    1.0000 </r>
       <r>  -13.1497    1.0000 </r>
       <r>  -13.1482    1.0000 </r>
       <r>  -13.1454    1.0000 </r>
       <r>  -13.1435    1.0000 </r>
       <r>  -13.1415    1.0000 </r>
       <r>  -13.1391    1.0000 </r>
       <r>  -13.1377    1.0000 </r>
       <r>  -13.1341    1.0000 </r>
       <r>  -13.1327    1.0000 </r>
       <r>  -13.1323    1.0000 </r>
       <r>  -13.1294    1.0000 </r>
       <r>  -13.1261    1.0000 </r>
       <r>  -13.1255    1.0000 </r>
       <r>  -13.1219    1.0000 </r>
       <r>  -13.1195    1.0000 </r>
       <r>  -13.1172    1.0000 </r>
       <r>  -13.1160    1.0000 </r>
       <r>  -13.1125    1.0000 </r>
       <r>  -13.1111    1.0000 </r>
       <r>  -13.1094    1.0000 </r>
       <r>  -13.1082    1.0000 </r>
       <r>  -13.1073    1.0000 </r>
       <r>  -13.1026    1.0000 </r>
       <r>  -13.1008    1.0000 </r>
       <r>  -13.0979    1.0000 </r>
       <r>  -13.0932    1.0000 </r>
       <r>  -13.0918    1.0000 </r>
       <r>  -13.0895    1.0000 </r>
       <r>  -13.0883    1.0000 </r>
       <r>  -13.0879    1.0000 </r>
       <r>  -13.0816    1.0000 </r>
       <r>  -13.0786    1.0000 </r>
       <r>  -13.0782    1.0000 </r>
       <r>  -13.0742    1.0000 </r>
       <r>  -13.0723    1.0000 </r>
       <r>  -13.0694    1.0000 </r>
       <r>  -13.0649    1.0000 </r>
       <r>  -13.0623    1.0000 </r>
       <r>  -13.0590    1.0000 </r>
       <r>  -13.0586    1.0000 </r>
       <r>  -13.0571    1.0000 </r>
       <r>  -13.0535    1.0000 </r>
       <r>  -13.0471    1.0000 </r>
       <r>  -13.0455    1.0000 </r>
       <r>  -13.0454    1.0000 </r>
       <r>  -13.0454    1.0000 </r>
       <r>  -13.0439    1.0000 </r>
       <r>  -13.0430    1.0000 </r>
       <r>  -13.0387    1.0000 </r>
       <r>  -13.0375    1.0000 </r>
       <r>  -13.0344    1.0000 </r>
       <r>  -13.0337    1.0000 </r>
       <r>  -13.0319    1.0000 </r>
       <r>  -13.0295    1.0000 </r>
       <r>  -13.0261    1.0000 </r>
       <r>  -13.0247    1.0000 </r>
       <r>  -13.0226    1.0000 </r>
       <r>  -13.0178    1.0000 </r>
       <r>  -13.0168    1.0000 </r>
       <r>  -13.0141    1.0000 </r>
       <r>  -13.0125    1.0000 </r>
       <r>  -13.0103    1.0000 </r>
       <r>  -13.0079    1.0000 </r>
       <r>  -13.0021    1.0000 </r>
       <r>  -13.0018    1.0000 </r>
       <r>  -12.9942    1.0000 </r>
       <r>  -12.9939    1.0000 </r>
       <r>  -12.9912    1.0000 </r>
       <r>  -12.9848    1.0000 </r>
       <r>  -12.9835    1.0000 </r>
       <r>  -12.9833    1.0000 </r>
       <r>  -12.9648    1.0000 </r>
       <r>  -12.9624    1.0000 </r>
       <r>  -12.9569    1.0000 </r>
       <r>  -12.9548    1.0000 </r>
       <r>  -12.9531    1.0000 </r>
       <r>  -12.9442    1.0000 </r>
       <r>  -12.9413    1.0000 </r>
       <r>  -12.9328    1.0000 </r>
       <r>  -12.9276    1.0000 </r>
       <r>  -12.9234    1.0000 </r>
       <r>  -12.9231    1.0000 </r>
       <r>  -12.9115    1.0000 </r>
       <r>  -12.9113    1.0000 </r>
       <r>  -12.9099    1.0000 </r>
       <r>  -12.9032    1.0000 </r>
       <r>  -12.8991    1.0000 </r>
       <r>  -12.8910    1.0000 </r>
       <r>  -12.8873    1.0000 </r>
       <r>  -12.8736    1.0000 </r>
       <r>  -12.8704    1.0000 </r>
       <r>  -12.8646    1.0000 </r>
       <r>  -12.8538    1.0000 </r>
       <r>  -12.8529    1.0000 </r>
[...]
       <r>   -13.6184    45.8318   149.0084 </r>
       <r>   -13.4799   100.1242   162.8773 </r>
       <r>   -13.3414   365.7208   213.5355 </r>
       <r>   -13.2028   655.6225   304.3498 </r>
       <r>   -13.0643   778.0159   412.1176 </r>
       <r>   -12.9258   609.6193   496.5597 </r>
       <r>   -12.7873   268.3906   533.7361 </r>
       <r>   -12.6488   115.2327   549.6977 </r>
       <r>   -12.5103   105.0060   564.2428 </r>
       <r>   -12.3717    98.1781   577.8420 </r>
       <r>   -12.2332   114.2170   593.6629 </r>
       <r>   -12.0947   100.5737   607.5940 </r>
       <r>   -11.9562    30.9558   611.8819 </r>
       <r>   -11.8177     0.8529   612.0000 </r>
       <r>   -11.6792     0.0000   612.0000 </r>
       <r>   -11.5406     0.0000   612.0000 </r>
       <r>   -11.4021     0.0000   612.0000 </r>
       <r>   -11.2636     0.0000   612.0000 </r>
       <r>   -11.1251     0.0000   612.0000 </r>
       <r>   -10.9866     0.0000   612.0000 </r>
       <r>   -10.8481     0.0000   612.0000 </r>
       <r>   -10.7096     0.0000   612.0000 </r>
       <r>   -10.5710     0.0000   612.0000 </r>
       <r>   -10.4325     0.0000   612.0000 </r>
       <r>   -10.2940     0.0000   612.0000 </r>
       <r>   -10.1555     0.0000   612.0000 </r>
       <r>   -10.0170     0.0000   612.0000 </r>
       <r>    -9.8785     0.0000   612.0000 </r>
       <r>    -9.7399     0.0000   612.0000 </r>
       <r>    -9.6014     0.0000   612.0000 </r>
       <r>    -9.4629     0.0000   612.0000 </r>
       <r>    -9.3244     0.0000   612.0000 </r>
       <r>    -9.1859     0.0000   612.0000 </r>
       <r>    -9.0474     0.0000   612.0000 </r>
       <r>    -8.9088     0.0000   612.0000 </r>
       <r>    -8.7703     0.0000   612.0000 </r>
       <r>    -8.6318     0.0000   612.0000 </r>
       <r>    -8.4933     0.0000   612.0000 </r>
       <r>    -8.3548     0.0000   612.0000 </r>
       <r>    -8.2163     0.0000   612.0000 </r>
       <r>    -8.0777     0.0000   612.0000 </r>
       <r>    -7.9392     0.0000   612.0000 </r>
       <r>    -7.8007     0.0000   612.0000 </r>
       <r>    -7.6622     0.0000   612.0000 </r>
       <r>    -7.5237     0.3534   612.0490 </r>
       <r>    -7.3852    12.7856   613.8200 </r>
       <r>    -7.2466     1.2997   614.0000 </r>
       <r>    -7.1081     0.0000   614.0000 </r>
       <r>    -6.9696     0.0000   614.0000 </r>
       <r>    -6.8311     0.0000   614.0000 </r>
       <r>    -6.6926     0.0000   614.0000 </r>
       <r>    -6.5541     0.0000   614.0000 </r>
       <r>    -6.4156     0.0000   614.0000 </r>
       <r>    -6.2770     0.0000   614.0000 </r>
       <r>    -6.1385     0.0000   614.0000 </r>
       <r>    -6.0000     0.0000   614.0000 </r>
       <r>    -5.8615     0.0000   614.0000 </r>
       <r>    -5.7230     0.0000   614.0000 </r>
       <r>    -5.5845     0.0002   614.0000 </r>
       <r>    -5.4459     1.8635   614.2581 </r>
       <r>    -5.3074     9.7720   615.6117 </r>
       <r>    -5.1689    18.6145   618.1901 </r>
       <r>    -5.0304    18.4877   620.7510 </r>
       <r>    -4.8919    34.8031   625.5718 </r>
       <r>    -4.7534    35.5984   630.5027 </r>
       <r>    -4.6148    41.6531   636.2724 </r>
       <r>    -4.4763    44.6183   642.4527 </r>
       <r>    -4.3378    54.0890   649.9449 </r>
       <r>    -4.1993    53.2549   657.3216 </r>
       <r>    -4.0608    36.6763   662.4018 </r>
       <r>    -3.9223    56.7740   670.2659 </r>
       <r>    -3.7837    34.0726   674.9856 </r>
       <r>    -3.6452    38.9939   680.3868 </r>
       <r>    -3.5067    27.1949   684.1538 </r>
       <r>    -3.3682    35.5276   689.0749 </r>
       <r>    -3.2297    35.8574   694.0418 </r>
       <r>    -3.0912    33.5467   698.6885 </r>
       <r>    -2.9526    36.5095   703.7457 </r>
       <r>    -2.8141    38.7302   709.1104 </r>
       <r>    -2.6756    39.4186   714.5705 </r>
       <r>    -2.5371    39.5831   720.0534 </r>
       <r>    -2.3986    44.8085   726.2601 </r>
       <r>    -2.2601    38.3147   731.5674 </r>
       <r>    -2.1215    38.2862   736.8706 </r>
       <r>    -1.9830    62.0902   745.4711 </r>
       <r>    -1.8445    70.4818   755.2340 </r>
       <r>    -1.7060    57.3234   763.1742 </r>
       <r>    -1.5675    58.5285   771.2813 </r>
       <r>    -1.4290    62.4874   779.9368 </r>
       <r>    -1.2905    55.2572   787.5909 </r>
       <r>    -1.1519    53.1570   794.9540 </r>
       <r>    -1.0134    67.1660   804.2575 </r>
       <r>    -0.8749    65.3640   813.3115 </r>
       <r>    -0.7364    72.8305   823.3997 </r>
       <r>    -0.5979    69.6223   833.0435 </r>
       <r>    -0.4594    59.1832   841.2413 </r>
       <r>    -0.3208    75.2818   851.6691 </r>
       <r>    -0.1823    73.1586   861.8027 </r>
       <r>    -0.0438    78.2166   872.6370 </r>
       <r>     0.0947    73.3013   882.7904 </r>
       <r>     0.2332    66.7030   892.0299 </r>
       <r>     0.3717    80.6458   903.2006 </r>
       <r>     0.5103    92.9301   916.0729 </r>
       <r>     0.6488    87.0696   928.1335 </r>
       <r>     0.7873    86.9254   940.1740 </r>
       <r>     0.9258    91.5284   952.8522 </r>
       <r>     1.0643   121.1472   969.6331 </r>
       <r>     1.2028   119.5284   986.1897 </r>
       <r>     1.3414   120.9399  1002.9418 </r>
       <r>     1.4799   109.3272  1018.0854 </r>
       <r>     1.6184    63.3859  1026.8653 </r>
       <r>     1.7569    44.8657  1033.0800 </r>
       <r>     1.8954    34.8736  1037.9105 </r>
       <r>     2.0339     0.6460  1038.0000 </r>
       <r>     2.1725     0.0000  1038.0000 </r>
       <r>     2.3110     0.0000  1038.0000 </r>
       <r>     2.4495     0.0000  1038.0000 </r>
       <r>     2.5880     0.0003  1038.0000 </r>
       <r>     2.7265     1.5212  1038.2107 </r>
       <r>     2.8650    11.8762  1039.8558 </r>
       <r>     3.0035     1.0411  1040.0000 </r>
       <r>     3.1421     0.0000  1040.0000 </r>
       <r>     3.2806     0.0000  1040.0000 </r>
       <r>     3.4191     0.0000  1040.0000 </r>
       <r>     3.5576     0.0000  1040.0000 </r>
       <r>     3.6961     0.0000  1040.0000 </r>
       <r>     3.8346     0.0000  1040.0000 </r>
       <r>     3.9732     0.0000  1040.0000 </r>
       <r>     4.1117     0.0000  1040.0000 </r>
       <r>     4.2502     0.0000  1040.0000 </r>
       <r>     4.3887     0.0000  1040.0000 </r>
       <r>     4.5272     0.0000  1040.0000 </r>
       <r>     4.6657     0.0000  1040.0000 </r>
       <r>     4.8043     0.0000  1040.0000 </r>
       <r>     4.9428     0.0000  1040.0000 </r>
       <r>     5.0813     0.0000  1040.0000 </r>
       <r>     5.2198     0.0000  1040.0000 </r>
       <r>     5.3583     0.0000  1040.0000 </r>
       <r>     5.4968     0.0000  1040.0000 </r>
       <r>     5.6354     0.0000  1040.0000 </r>
       <r>     5.7739     0.0000  1040.0000 </r>
       <r>     5.9124     0.0000  1040.0000 </r>
       <r>     6.0509     0.0000  1040.0000 </r>
       <r>     6.1894     0.0000  1040.0000 </r>
       <r>     6.3279     0.0000  1040.0000 </r>
       <r>     6.4665     0.0000  1040.0000 </r>
       <r>     6.6050     0.6305  1040.0873 </r>
       <r>     6.7435     1.1739  1040.2499 </r>
       <r>     6.8820     0.0004  1040.2500 </r>
       <r>     7.0205     0.0071  1040.2510 </r>
       <r>     7.1590     1.6109  1040.4741 </r>
       <r>     7.2975     0.8093  1040.5862 </r>
       <r>     7.4361     3.6948  1041.0980 </r>
       <r>     7.5746     1.1624  1041.2590 </r>
       <r>     7.7131     2.3387  1041.5830 </r>
       <r>     7.8516     6.3528  1042.4629 </r>
       <r>     7.9901     3.2723  1042.9162 </r>
       <r>     8.1286     2.8464  1043.3105 </r>
       <r>     8.2672     3.5283  1043.7992 </r>
       <r>     8.4057     4.5991  1044.4362 </r>
       <r>     8.5442     6.2774  1045.3058 </r>
       <r>     8.6827     4.9429  1045.9904 </r>
       <r>     8.8212     1.5435  1046.2042 </r>
       <r>     8.9597     5.7952  1047.0070 </r>
       <r>     9.0983     5.5878  1047.7810 </r>
       <r>     9.2368    12.4367  1049.5036 </r>
       <r>     9.3753     8.0371  1050.6169 </r>
       <r>     9.5138    13.2928  1052.4582 </r>
       <r>     9.6523     6.4657  1053.3538 </r>
       <r>     9.7908    10.2151  1054.7687 </r>
       <r>     9.9294    10.6543  1056.2445 </r>
       <r>    10.0679    12.7661  1058.0128 </r>
       <r>    10.2064    13.1083  1059.8286 </r>
       <r>    10.3449    23.0561  1063.0222 </r>
       <r>    10.4834    22.5434  1066.1448 </r>
       <r>    10.6219    28.1539  1070.0446 </r>
       <r>    10.7605    40.8194  1075.6987 </r>
       <r>    10.8990    40.6910  1081.3351 </r>
       <r>    11.0375    29.6486  1085.4419 </r>
       <r>    11.1760    29.1962  1089.4860 </r>
       <r>    11.3145    28.4532  1093.4273 </r>
       <r>    11.4530    34.6556  1098.2276 </r>
       <r>    11.5916    25.2715  1101.7281 </r>
       <r>    11.7301    37.5743  1106.9328 </r>
       <r>    11.8686    24.4218  1110.3156 </r>
       <r>    12.0071    43.2957  1116.3128 </r>
       <r>    12.1456    30.0950  1120.4814 </r>
       <r>    12.2841    37.4868  1125.6739 </r>
       <r>    12.4226    37.1941  1130.8259 </r>
       <r>    12.5612    47.4225  1137.3947 </r>
       <r>    12.6997    35.9304  1142.3717 </r>
       <r>    12.8382    32.3333  1146.8503 </r>
       <r>    12.9767    17.3828  1149.2581 </r>
       <r>    13.1152    35.3562  1154.1555 </r>
       <r>    13.2537    26.9495  1157.8885 </r>
       <r>    13.3923    35.5115  1162.8074 </r>
       <r>    13.5308    32.1046  1167.2544 </r>
       <r>    13.6693    25.8659  1170.8373 </r>
       <r>    13.8078    30.9377  1175.1226 </r>
       <r>    13.9463    27.3282  1178.9080 </r>
       <r>    14.0848    29.5565  1183.0021 </r>
       <r>    14.2234    25.2411  1186.4984 </r>
       <r>    14.3619    24.1887  1189.8489 </r>
       <r>    14.5004    27.8479  1193.7063 </r>
       <r>    14.6389    24.7705  1197.1374 </r>
       <r>    14.7774    28.5921  1201.0979 </r>
       <r>    14.9159    29.5467  1205.1906 </r>
       <r>    15.0545    22.7007  1208.3350 </r>
       <r>    15.1930    21.3603  1211.2937 </r>
       <r>    15.3315    23.5881  1214.5610 </r>
       <r>    15.4700    24.4942  1217.9539 </r>
       <r>    15.6085    22.9706  1221.1357 </r>
       <r>    15.7470    22.1004  1224.1970 </r>
       <r>    15.8856    18.2645  1226.7269 </r>
       <r>    16.0241    20.8889  1229.6203 </r>
       <r>    16.1626    22.9710  1232.8022 </r>
       <r>    16.3011    19.8480  1235.5515 </r>
       <r>    16.4396    18.7617  1238.1503 </r>
       <r>    16.5781    17.1921  1240.5316 </r>
       <r>    16.7166    16.1307  1242.7660 </r>
       <r>    16.8552    13.7804  1244.6748 </r>
       <r>    16.9937     9.8972  1246.0457 </r>
       <r>    17.1322    11.5090  1247.6399 </r>
       <r>    17.2707     4.4154  1248.2515 </r>
       <r>    17.4092     6.8177  1249.1959 </r>
       <r>    17.5477     2.9202  1249.6004 </r>
       <r>    17.6863     2.8732  1249.9984 </r>
       <r>    17.8248     0.0119  1250.0000 </r>
       <r>    17.9633     0.0000  1250.0000 </r>
       <r>    18.1018     0.0000  1250.0000 </r>
       <r>    18.2403     0.0000  1250.0000 </r>
       <r>    18.3788     0.0000  1250.0000 </r>
       <r>    18.5174     0.0000  1250.0000 </r>
       <r>    18.6559     0.0000  1250.0000 </r>
       <r>    18.7944     0.0000  1250.0000 </r>
       <r>    18.9329     0.0000  1250.0000 </r>
       <r>    19.0714     0.0000  1250.0000 </r>
       <r>    19.2099     0.0000  1250.0000 </r>
       <r>    19.3485     0.0000  1250.0000 </r>
       <r>    19.4870     0.0000  1250.0000 </r>
      </set>
     </set>
    </array>
   </total>
  </dos>
 </calculation>
 <structure name="finalpos" >
  <crystal>
   <varray name="basis" >
    <v>       0.00000000      12.28047342       0.00000000 </v>
    <v>       9.14270205       0.00000000       0.00000000 </v>
    <v>       0.00000000      -2.76826177     -11.30069772 </v>
   </varray>
   <i name="volume">   1268.80515525 </i>
   <varray name="rec_basis" >
    <v>       0.00000000       0.08143009      -0.01994742 </v>
    <v>       0.10937686      -0.00000000       0.00000000 </v>
    <v>       0.00000000       0.00000000      -0.08849011 </v>
   </varray>
  </crystal>
  <varray name="positions" >
   <v>       0.65682255       0.00000000       0.15587234 </v>
   <v>       0.66050280       0.00000000       0.65696829 </v>
   <v>       0.65856673       0.33305875       0.15785831 </v>
   <v>       0.66064973       0.33346769       0.65673483 </v>
   <v>       0.65856673       0.66694125       0.15785831 </v>
   <v>       0.66064973       0.66653231       0.65673483 </v>
   <v>       0.83857518       0.16357439       0.34178553 </v>
   <v>       0.84118771       0.16642315       0.84405648 </v>
   <v>       0.84363971       0.50000000       0.34323002 </v>
   <v>       0.84056778       0.50000000       0.84346049 </v>
   <v>       0.83857518       0.83642561       0.34178553 </v>
   <v>       0.84118771       0.83357685       0.84405648 </v>
   <v>       0.59089909       0.16710913       0.39867719 </v>
   <v>       0.59296747       0.16677628       0.89832987 </v>
   <v>       0.59063110       0.50000000       0.39811751 </v>
   <v>       0.59289749       0.50000000       0.89878614 </v>
   <v>       0.59089909       0.83289087       0.39867719 </v>
   <v>       0.59296747       0.83322372       0.89832987 </v>
   <v>       0.90965338       0.00000000       0.10318880 </v>
   <v>       0.90831525       0.00000000       0.60281283 </v>
   <v>       0.90795363       0.33389951       0.10145927 </v>
   <v>       0.91072572       0.33300183       0.60399302 </v>
   <v>       0.90795363       0.66610049       0.10145927 </v>
   <v>       0.91072572       0.66699817       0.60399302 </v>
   <v>       0.15732697       0.17071049       0.15626192 </v>
   <v>       0.15910536       0.17514756       0.66802125 </v>
   <v>       0.15859865       0.50000000       0.15846921 </v>
   <v>       0.16051428       0.50000000       0.65742403 </v>
   <v>       0.15732697       0.82928951       0.15626192 </v>
   <v>       0.15910536       0.82485244       0.66802125 </v>
   <v>       0.34274499       0.00000000       0.34658800 </v>
   <v>       0.34360687       0.00000000       0.84428083 </v>
   <v>       0.34020072       0.33340396       0.34591442 </v>
   <v>       0.34332032       0.33452603       0.84730070 </v>
   <v>       0.34020072       0.66659604       0.34591442 </v>
   <v>       0.34332032       0.66547397       0.84730070 </v>
   <v>       0.09236830       0.00000000       0.90062018 </v>
   <v>       0.09246348       0.32916263       0.39974992 </v>
   <v>       0.09055110       0.33419847       0.90021988 </v>
   <v>       0.09246348       0.67083737       0.39974992 </v>
   <v>       0.09055110       0.66580153       0.90021988 </v>
   <v>       0.40661365       0.16633237       0.10409236 </v>
   <v>       0.41117529       0.16702533       0.60363976 </v>
   <v>       0.40867671       0.50000000       0.10569121 </v>
   <v>       0.40979577       0.50000000       0.60395864 </v>
   <v>       0.40661365       0.83366763       0.10409236 </v>
   <v>       0.41117529       0.83297467       0.60363976 </v>
   <v>       0.99625178       0.16765596       0.12890124 </v>
   <v>       0.99886083       0.16440332       0.62361770 </v>
   <v>       0.99628722       0.50000000       0.12697919 </v>
   <v>       0.99841970       0.50000000       0.62876964 </v>
   <v>       0.99625178       0.83234404       0.12890124 </v>
   <v>       0.99886083       0.83559668       0.62361770 </v>
   <v>       0.50380630       0.00000000       0.37413086 </v>
   <v>       0.50501002       0.00000000       0.87366029 </v>
   <v>       0.50236970       0.33328543       0.37378490 </v>
   <v>       0.50458276       0.33316467       0.87354082 </v>
   <v>       0.50236970       0.66671457       0.37378490 </v>
   <v>       0.50458276       0.66683533       0.87354082 </v>
   <v>       0.67181070       0.16678144       0.28084974 </v>
   <v>       0.67330681       0.16652490       0.78030457 </v>
   <v>       0.67486049       0.50000000       0.28258327 </v>
   <v>       0.67297849       0.50000000       0.78003508 </v>
   <v>       0.67181070       0.83321856       0.28084974 </v>
   <v>       0.67330681       0.83347510       0.78030457 </v>
   <v>       0.82774055       0.00000000       0.22058764 </v>
   <v>       0.82882803       0.00000000       0.72067600 </v>
   <v>       0.83036187       0.33032547       0.22186319 </v>
   <v>       0.82910766       0.33275673       0.72033710 </v>
   <v>       0.83036187       0.66967453       0.22186319 </v>
   <v>       0.82910766       0.66724327       0.72033710 </v>
   <v>       0.83242823       0.00000000       0.44564958 </v>
   <v>       0.83277644       0.00000000       0.94683403 </v>
   <v>       0.84200941       0.32981784       0.44484316 </v>
   <v>       0.83082374       0.33322324       0.94560336 </v>
   <v>       0.84200941       0.67018216       0.44484316 </v>
   <v>       0.83082374       0.66677676       0.94560336 </v>
   <v>       0.66858889       0.16680346       0.05550678 </v>
   <v>       0.67016371       0.16696648       0.55435098 </v>
   <v>       0.66902181       0.50000000       0.05639708 </v>
   <v>       0.67123951       0.50000000       0.55373749 </v>
   <v>       0.66858889       0.83319654       0.05550678 </v>
   <v>       0.67016371       0.83303352       0.55435098 </v>
   <v>       0.49471903       0.00000000       0.12845182 </v>
   <v>       0.49806223       0.00000000       0.62754328 </v>
   <v>       0.49541979       0.33237565       0.12941657 </v>
   <v>       0.49777716       0.33375776       0.62752798 </v>
   <v>       0.49541979       0.66762435       0.12941657 </v>
   <v>       0.49777716       0.66624224       0.62752798 </v>
   <v>       0.01666230       0.14090449       0.37442049 </v>
   <v>       0.00449403       0.16658938       0.87288174 </v>
   <v>       0.00717754       0.50000000       0.37358883 </v>
   <v>       0.00300238       0.50000000       0.87407192 </v>
   <v>       0.01666230       0.85909551       0.37442049 </v>
   <v>       0.00449403       0.83341062       0.87288174 </v>
   <v>       0.16211394       0.00000000       0.29371646 </v>
   <v>       0.17094122       0.00000000       0.77625034 </v>
   <v>       0.17103033       0.33165344       0.28116755 </v>
   <v>       0.17366092       0.33581644       0.78386097 </v>
   <v>       0.17103033       0.66834656       0.28116755 </v>
   <v>       0.17366092       0.66418356       0.78386097 </v>
   <v>       0.32384630       0.16282172       0.22215234 </v>
   <v>       0.32577062       0.16312310       0.71781965 </v>
   <v>       0.32637267       0.50000000       0.22251331 </v>
   <v>       0.32782949       0.50000000       0.72112779 </v>
   <v>       0.32384630       0.83717828       0.22215234 </v>
   <v>       0.32577062       0.83687690       0.71781965 </v>
   <v>       0.33065452       0.16552614       0.44796600 </v>
   <v>       0.33069427       0.16577033       0.94602960 </v>
   <v>       0.32950112       0.50000000       0.44801665 </v>
   <v>       0.33306910       0.50000000       0.94844429 </v>
   <v>       0.33065452       0.83447386       0.44796600 </v>
   <v>       0.33069427       0.83422967       0.94602960 </v>
   <v>       0.16593165       0.00000000       0.06004126 </v>
   <v>       0.16987046       0.33466272       0.05559861 </v>
   <v>       0.16756820       0.33009195       0.55606107 </v>
   <v>       0.16987046       0.66533728       0.05559861 </v>
   <v>       0.16756820       0.66990805       0.55606107 </v>
   <v>       0.10213498       0.00000000       0.40633080 </v>
  </varray>
 </structure>
</modeling>
