       N       E                     dE             d eps       ncg     rms          ort
DAV:   1    -0.734655474646E+03   -0.73466E+03   -0.14195E+04    88   0.709E+02
DAV:   2    -0.922930774065E+03   -0.18828E+03   -0.18719E+03    88   0.502E+02
DAV:   3    -0.935403159978E+03   -0.12472E+02   -0.12367E+02    88   0.153E+02
DAV:   4    -0.935909578401E+03   -0.50642E+00   -0.50578E+00    88   0.325E+01
DAV:   5    -0.880245455601E+03    0.55664E+02   -0.12177E+01    88   0.240E+01
SDA:   6     0.235638844788E+03    0.11159E+04   -0.12177E+01    88   0.735E+03 0.000E+00
CGA:   7     0.905349664925E+02   -0.14510E+03   -0.25939E+03    88   0.234E+03-0.332E+03
CGA:   8     0.646427616669E+02   -0.25892E+02   -0.26103E+02    88   0.133E+03 0.283E+02
CGA:   9     0.187117444918E+02   -0.45931E+02   -0.44136E+02    88   0.815E+02 0.113E+02
CGA:  10     0.942584083635E+00   -0.17769E+02   -0.17877E+02    88   0.421E+02 0.662E+01
CGA:  11    -0.974445118562E+01   -0.10687E+02   -0.10586E+02    88   0.116E+02 0.388E+01
CGA:  12    -0.128848698938E+02   -0.31404E+01   -0.30987E+01    88   0.475E+01 0.104E+01
CGA:  13    -0.141290821503E+02   -0.12442E+01   -0.12368E+01    88   0.158E+01 0.231E+00
CGA:  14    -0.146492966621E+02   -0.52021E+00   -0.51238E+00    88   0.715E+00 0.921E-01
CGA:  15    -0.148895637117E+02   -0.24027E+00   -0.23736E+00    88   0.366E+00 0.329E-01
CGA:  16    -0.150185015215E+02   -0.12894E+00   -0.12834E+00    88   0.163E+00 0.709E-02
CGA:  17    -0.150700940347E+02   -0.51593E-01   -0.51183E-01    88   0.742E-01 0.596E-02
CGA:  18    -0.150941477026E+02   -0.24054E-01   -0.23797E-01    88   0.346E-01 0.320E-02
CGA:  19    -0.151063866510E+02   -0.12239E-01   -0.12104E-01    88   0.190E-01 0.120E-02
CGA:  20    -0.151134213839E+02   -0.70347E-02   -0.69784E-02    88   0.107E-01 0.387E-03
CGA:  21    -0.151172733656E+02   -0.38520E-02   -0.38403E-02    88   0.572E-02 0.864E-04
CGA:  22    -0.151192065961E+02   -0.19332E-02   -0.19320E-02    88   0.267E-02 0.111E-04
CGA:  23    -0.151200982964E+02   -0.89170E-03   -0.89155E-03    88   0.127E-02 0.227E-05
CGA:  24    -0.151205435186E+02   -0.44522E-03   -0.44498E-03    88   0.658E-03 0.277E-05
CGA:  25    -0.151207812530E+02   -0.23773E-03   -0.23751E-03    88   0.371E-03 0.246E-05
CGA:  26    -0.151209119856E+02   -0.13073E-03   -0.13064E-03    88   0.199E-03 0.123E-05
CGA:  27    -0.151209792530E+02   -0.67267E-04   -0.67269E-04    88   0.102E-03-0.225E-07
CGA:  28    -0.151210136218E+02   -0.34369E-04   -0.34409E-04    88   0.499E-04-0.689E-06
CGA:  29    -0.151210314631E+02   -0.17841E-04   -0.17903E-04    88   0.273E-04-0.781E-06
CGA:  30    -0.151210412948E+02   -0.98317E-05   -0.98861E-05    88   0.153E-04-0.648E-06
   1 F= -.15121041E+02 E0= -.15121041E+02  d E =-.505011E-90  mag=     2.0000
