<?xml version="1.0" encoding="ISO-8859-1"?>
<modeling>
 <generator>
  <i name="program" type="string">vasp </i>
  <i name="version" type="string">6.4.2  </i>
  <i name="subversion" type="string">20Jul23 (build Nov 12 2023 22:16:35) complex                          parallel </i>
  <i name="platform" type="string">LinuxNV </i>
  <i name="date" type="string">2025 03 21 </i>
  <i name="time" type="string">23:12:51 </i>
 </generator>
 <incar>
  <i type="int" name="ISTART">     0</i>
  <i type="string" name="PREC">Normal</i>
  <i type="string" name="ALGO">All</i>
  <i type="int" name="ISPIN">     2</i>
  <i type="int" name="ICHARG">     0</i>
  <i type="int" name="NELM">   500</i>
  <i type="int" name="IBRION">    -1</i>
  <i name="EDIFF">      0.00001000</i>
  <i name="EDIFFG">     -0.00500000</i>
  <i type="int" name="NSW">     0</i>
  <i type="int" name="ISIF">     2</i>
  <i name="ENCUT">    450.00000000</i>
  <i type="string" name="LREAL">Auto</i>
  <i type="logical" name="LPLANE"> T  </i>
  <i name="TIME">      0.40000000</i>
  <i type="int" name="ISMEAR">     0</i>
  <i name="SIGMA">      0.01000000</i>
  <i type="logical" name="LWAVE"> T  </i>
  <i type="logical" name="LCHARG"> T  </i>
  <i name="HFSCREEN">      0.20000000</i>
  <i type="logical" name="LHFCALC"> T  </i>
  <i type="int" name="LMAXFOCK">     4</i>
  <i name="AEXX">      0.32000000</i>
  <i type="string" name="PRECFOCK">Fast</i>
 </incar>
 <primitive_cell>
  <structure name="primitive_cell" >
   <crystal>
    <varray name="basis" >
     <v>       7.50000000       0.00000000       0.00000000 </v>
     <v>       0.00000000       8.00000000       0.00000000 </v>
     <v>       0.00000000       0.00000000       8.90000000 </v>
    </varray>
    <i name="volume">    534.00000000 </i>
    <varray name="rec_basis" >
     <v>       0.13333333       0.00000000       0.00000000 </v>
     <v>       0.00000000       0.12500000       0.00000000 </v>
     <v>       0.00000000       0.00000000       0.11235955 </v>
    </varray>
   </crystal>
   <varray name="positions" >
    <v>       0.00000000       0.00000000       0.99812110 </v>
    <v>       0.00000000       0.00000000       0.13671036 </v>
   </varray>
  </structure>
  <varray name="primitive_index" >
   <v type="int" >        1 </v>
   <v type="int" >        2 </v>
  </varray>
 </primitive_cell>
 <kpoints>
  <generation param="Gamma">
   <v type="int" name="divisions">       2        2        2 </v>
   <v name="usershift">      0.00000000       0.00000000       0.00000000 </v>
   <v name="genvec1">      0.50000000       0.00000000       0.00000000 </v>
   <v name="genvec2">      0.00000000       0.50000000       0.00000000 </v>
   <v name="genvec3">      0.00000000       0.00000000       0.50000000 </v>
   <v name="shift">      0.00000000       0.00000000       0.00000000 </v>
  </generation>
  <varray name="kpointlist" >
   <v>       0.00000000       0.00000000       0.00000000 </v>
   <v>       0.50000000       0.00000000       0.00000000 </v>
   <v>       0.00000000       0.50000000       0.00000000 </v>
   <v>       0.50000000       0.50000000       0.00000000 </v>
   <v>       0.00000000       0.00000000       0.50000000 </v>
   <v>       0.50000000       0.00000000       0.50000000 </v>
   <v>       0.00000000       0.50000000       0.50000000 </v>
   <v>       0.50000000       0.50000000       0.50000000 </v>
  </varray>
  <varray name="weights" >
   <v>       0.12500000 </v>
   <v>       0.12500000 </v>
   <v>       0.12500000 </v>
   <v>       0.12500000 </v>
   <v>       0.12500000 </v>
   <v>       0.12500000 </v>
   <v>       0.12500000 </v>
   <v>       0.12500000 </v>
  </varray>
 </kpoints>
 <parameters>
  <separator name="general" >
   <i type="string" name="SYSTEM">unknown system</i>
   <i type="logical" name="LCOMPAT"> F  </i>
  </separator>
  <separator name="electronic" >
   <i type="string" name="PREC">normal</i>
   <i name="ENMAX">    450.00000000</i>
   <i name="ENAUG">    605.39200000</i>
   <i name="EDIFF">      0.00001000</i>
   <i type="int" name="IALGO">    58</i>
   <i type="int" name="IWAVPR">    10</i>
   <i type="int" name="NBANDS">    11</i>
   <i type="int" name="NBANDSLOW">    -1</i>
   <i type="int" name="NBANDSHIGH">    -1</i>
   <i name="NELECT">     12.00000000</i>
   <i type="int" name="TURBO">     0</i>
   <i type="int" name="IRESTART">     0</i>
   <i type="int" name="NREBOOT">     0</i>
   <i type="int" name="NMIN">     0</i>
   <i name="EREF">      0.00000000</i>
   <separator name="electronic smearing" >
    <i type="int" name="ISMEAR">     0</i>
    <i name="SIGMA">      0.01000000</i>
    <i name="KSPACING">      0.50000000</i>
    <i type="logical" name="KGAMMA"> T  </i>
    <i type="logical" name="KBLOWUP"> T  </i>
   </separator>
   <separator name="electronic projectors" >
    <i type="logical" name="LREAL"> T  </i>
    <v name="ROPT">     -0.00050000</v>
    <i type="int" name="LMAXPAW">  -100</i>
    <i type="int" name="LMAXMIX">     2</i>
    <i type="logical" name="NLSPLINE"> F  </i>
   </separator>
   <separator name="electronic startup" >
    <i type="int" name="ISTART">     0</i>
    <i type="int" name="ICHARG">     0</i>
    <i type="int" name="INIWAV">     1</i>
   </separator>
   <separator name="electronic spin" >
    <i type="int" name="ISPIN">     2</i>
    <i type="logical" name="LNONCOLLINEAR"> F  </i>
    <v name="MAGMOM">      1.00000000      1.00000000</v>
    <i name="NUPDOWN">     -1.00000000</i>
    <i type="logical" name="LSORBIT"> F  </i>
    <v name="SAXIS">      0.00000000      0.00000000      1.00000000</v>
    <i type="logical" name="LSPIRAL"> F  </i>
    <v name="QSPIRAL">      0.00000000      0.00000000      0.00000000</v>
    <i type="logical" name="LZEROZ"> F  </i>
   </separator>
   <separator name="electronic exchange-correlation" >
    <i type="logical" name="LASPH"> F  </i>
    <i type="logical" name="LMETAGGA"> F  </i>
   </separator>
   <separator name="electronic convergence" >
    <i type="int" name="NELM">   500</i>
    <i type="int" name="NELMDL">    -5</i>
    <i type="int" name="NELMIN">     2</i>
    <i name="ENINI">    450.00000000</i>
    <separator name="electronic convergence detail" >
     <i type="logical" name="LDIAG"> T  </i>
     <i type="logical" name="LSUBROT"> F  </i>
     <i name="WEIMIN">      0.00000000</i>
     <i name="EBREAK">      0.00000023</i>
     <i name="DEPER">      0.30000000</i>
     <i type="int" name="NRMM">     4</i>
     <i name="TIME">      0.40000000</i>
    </separator>
   </separator>
   <separator name="electronic mixer" >
    <i name="AMIX">      0.40000000</i>
    <i name="BMIX">      1.00000000</i>
    <i name="AMIN">      0.10000000</i>
    <i name="AMIX_MAG">      1.60000000</i>
    <i name="BMIX_MAG">      1.00000000</i>
    <separator name="electronic mixer details" >
     <i type="int" name="IMIX">     4</i>
     <i type="logical" name="MIXFIRST"> F  </i>
     <i type="int" name="MAXMIX">   -45</i>
     <i name="WC">    100.00000000</i>
     <i type="int" name="INIMIX">     1</i>
     <i type="int" name="MIXPRE">     1</i>
     <i type="int" name="MREMOVE">     5</i>
    </separator>
   </separator>
   <separator name="electronic dipolcorrection" >
    <i type="logical" name="LDIPOL"> F  </i>
    <i type="logical" name="LMONO"> F  </i>
    <i type="int" name="IDIPOL">     0</i>
    <i name="EPSILON">      1.00000000</i>
    <v name="DIPOL">   -100.00000000   -100.00000000   -100.00000000</v>
    <i name="EFIELD">      0.00000000</i>
   </separator>
  </separator>
  <separator name="grids" >
   <i type="int" name="NGX">    40</i>
   <i type="int" name="NGY">    42</i>
   <i type="int" name="NGZ">    48</i>
   <i type="int" name="NGXF">    80</i>
   <i type="int" name="NGYF">    84</i>
   <i type="int" name="NGZF">    96</i>
   <i type="logical" name="ADDGRID"> F  </i>
  </separator>
  <separator name="ionic" >
   <i type="int" name="NSW">     0</i>
   <i type="int" name="IBRION">    -1</i>
   <i type="int" name="MDALGO">     0</i>
   <i type="int" name="ISIF">     2</i>
   <i name="PSTRESS">      0.00000000</i>
   <i name="EDIFFG">     -0.00500000</i>
   <i type="int" name="NFREE">     0</i>
   <i name="POTIM">      0.50000000</i>
   <i name="SMASS">     -3.00000000</i>
   <i name="SCALEE">      1.00000000</i>
  </separator>
  <separator name="ionic md" >
   <i name="TEBEG">      0.00010000</i>
   <i name="TEEND">      0.00010000</i>
   <i type="int" name="NBLOCK">     1</i>
   <i type="int" name="KBLOCK">     1</i>
   <i type="int" name="NPACO">   256</i>
   <i name="APACO">     10.00000000</i>
  </separator>
  <separator name="symmetry" >
   <i type="int" name="ISYM">     3</i>
   <i name="SYMPREC">      0.00001000</i>
  </separator>
  <separator name="dos" >
   <i type="int" name="LORBIT">     0</i>
   <v name="RWIGS">     -1.00000000</v>
   <i type="int" name="NEDOS">   301</i>
   <i name="EMIN">     10.00000000</i>
   <i name="EMAX">    -10.00000000</i>
   <i name="EFERMI">      0.00000000</i>
  </separator>
  <separator name="writing" >
   <i type="int" name="NWRITE">     2</i>
   <i type="logical" name="LWAVE"> T  </i>
   <i type="logical" name="LDOWNSAMPLE"> F  </i>
   <i type="logical" name="LCHARG"> T  </i>
   <i type="logical" name="LPARD"> F  </i>
   <i type="logical" name="LVTOT"> F  </i>
   <i type="logical" name="LVHAR"> F  </i>
   <i type="logical" name="LELF"> F  </i>
   <i type="logical" name="LOPTICS"> F  </i>
   <v name="STM">      0.00000000      0.00000000      0.00000000      0.00000000      0.00000000      0.00000000      0.00000000</v>
  </separator>
  <separator name="performance" >
   <i type="int" name="NPAR">     1</i>
   <i type="int" name="NSIM">     4</i>
   <i type="int" name="NBLK">    -1</i>
   <i type="logical" name="LPLANE"> T  </i>
   <i type="logical" name="LSCALAPACK"> T  </i>
   <i type="logical" name="LSCAAWARE"> F  </i>
   <i type="logical" name="LSCALU"> F  </i>
   <i type="logical" name="LASYNC"> F  </i>
   <i type="logical" name="LORBITALREAL"> F  </i>
  </separator>
  <separator name="miscellaneous" >
   <i type="int" name="IDIOT">     3</i>
   <i type="int" name="PHON_NSTRUCT">    -1</i>
   <i type="logical" name="LMUSIC"> F  </i>
   <v name="POMASS">     16.00000000</v>
   <v name="DARWINR">      0.00000000</v>
   <v name="DARWINV">      1.00000000</v>
   <i type="logical" name="LCORR"> T  </i>
  </separator>
  <i type="logical" name="GGA_COMPAT"> T  </i>
  <i type="logical" name="LBERRY"> F  </i>
  <i type="int" name="ICORELEVEL">     0</i>
  <i type="logical" name="LDAU"> F  </i>
  <i type="int" name="I_CONSTRAINED_M">     0</i>
  <separator name="electronic exchange-correlation" >
   <i type="string" name="GGA">--</i>
   <i type="int" name="VOSKOWN">     0</i>
   <i type="logical" name="LHFCALC"> T  </i>
   <i type="string" name="PRECFOCK">fast</i>
   <i type="logical" name="LSYMGRAD"> F  </i>
   <i type="logical" name="LHFONE"> F  </i>
   <i type="logical" name="LRHFCALC"> F  </i>
   <i type="logical" name="LTHOMAS"> F  </i>
   <i type="logical" name="LMODELHF"> F  </i>
   <i type="logical" name="LFOCKACE"> T  </i>
   <i name="ENCUT4O">     -1.00000000</i>
   <i type="int" name="EXXOEP">     0</i>
   <i type="int" name="FOURORBIT">     0</i>
   <i name="AEXX">      0.32000000</i>
   <i name="HFALPHA">     -1.00000000</i>
   <i name="MCALPHA">      0.00000000</i>
   <i name="ALDAX">      0.68000000</i>
   <i name="AGGAX">      0.68000000</i>
   <i name="ALDAC">      1.00000000</i>
   <i name="AGGAC">      1.00000000</i>
   <i type="int" name="NKREDX">     1</i>
   <i type="int" name="NKREDY">     1</i>
   <i type="int" name="NKREDZ">     1</i>
   <i type="logical" name="SHIFTRED"> F  </i>
   <i type="logical" name="ODDONLY"> F  </i>
   <i type="logical" name="EVENONLY"> F  </i>
   <i type="int" name="LMAXFOCK">     4</i>
   <i type="int" name="NMAXFOCKAE">     1</i>
   <i type="logical" name="LFOCKAEDFT"> F  </i>
   <i name="HFSCREEN">      0.20000000</i>
   <i name="HFSCREENC">      0.20000000</i>
   <i type="int" name="NBANDSGWLOW">     1</i>
  </separator>
  <separator name="vdW DFT" >
   <i type="logical" name="LUSE_VDW"> F  </i>
   <i type="int" name="IVDW_NL">     1</i>
   <i type="logical" name="LSPIN_VDW"> F  </i>
   <i name="Zab_VDW">     -0.84910000</i>
   <i name="PARAM1">      0.12340000</i>
   <i name="PARAM2">      1.00000000</i>
   <i name="PARAM3">      0.00000000</i>
  </separator>
  <separator name="model GW" >
   <i type="int" name="MODEL_GW">     0</i>
   <i name="MODEL_EPS0">    160.20000000</i>
   <i name="MODEL_ALPHA">      1.00000000</i>
  </separator>
  <separator name="linear response parameters" >
   <i type="logical" name="LEPSILON"> F  </i>
   <i type="logical" name="LRPA"> F  </i>
   <i type="logical" name="LNABLA"> F  </i>
   <i type="logical" name="LVEL"> F  </i>
   <i name="CSHIFT">      0.10000000</i>
   <i name="OMEGAMAX">     -1.00000000</i>
   <i name="DEG_THRESHOLD">      0.00200000</i>
   <i name="RTIME">     -0.10000000</i>
   <i name="WPLASMAI">      0.00000000</i>
   <v name="DFIELD">      0.00000000      0.00000000      0.00000000</v>
   <v name="WPLASMA">      0.00000000      0.00000000      0.00000000      0.00000000      0.00000000      0.00000000      0.00000000      0.00000000      0.00000000</v>
  </separator>
  <separator name="orbital magnetization" >
   <i type="logical" name="NUCIND"> F  </i>
   <v name="MAGPOS">      0.00000000      0.00000000      0.00000000</v>
   <i type="logical" name="LNICSALL"> T  </i>
   <i type="logical" name="ORBITALMAG"> F  </i>
   <i type="logical" name="LMAGBLOCH"> F  </i>
   <i type="logical" name="LCHIMAG"> F  </i>
   <i type="logical" name="LGAUGE"> T  </i>
   <i type="int" name="MAGATOM">     0</i>
   <v name="MAGDIPOL">      0.00000000      0.00000000      0.00000000</v>
   <v name="AVECCONST">      0.00000000      0.00000000      0.00000000</v>
  </separator>
  <separator name="response functions" >
   <i type="logical" name="LALL_IN_ONE"> F  </i>
   <i type="int" name="IALL_IN_ONE">    -1</i>
   <i type="int" name="NBANDS_WAVE">    -1</i>
   <i type="logical" name="LFINITE_TEMPERATURE"> F  </i>
   <i type="logical" name="LADDER"> F  </i>
   <i type="logical" name="LRPAFORCE"> F  </i>
   <i type="logical" name="LFXC"> F  </i>
   <i type="logical" name="LHARTREE"> T  </i>
   <i type="int" name="IBSE">     0</i>
   <v type="int" name="KPOINT">    -1     0     0     0</v>
   <i type="logical" name="LTCTC"> F  </i>
   <i type="logical" name="LTCTE"> F  </i>
   <i type="logical" name="LTETE"> F  </i>
   <i type="logical" name="LTRIPLET"> F  </i>
   <i type="logical" name="LFXCEPS"> F  </i>
   <i type="logical" name="LFXHEG"> F  </i>
   <i type="int" name="NATURALO">     2</i>
   <i type="logical" name="LHOLEGF"> F  </i>
   <i type="logical" name="L2ORDER"> F  </i>
   <i type="logical" name="LDMP1"> F  </i>
   <i type="logical" name="LMP2LT"> F  </i>
   <i type="logical" name="LSMP2LT"> F  </i>
   <i type="logical" name="LGWLF"> F  </i>
   <i name="ENCUTGW">     -1.60000002</i>
   <i name="ENCUTGWSOFT">     -1.60000002</i>
   <i name="ENCUTLF">     -1.00000000</i>
   <i type="logical" name="LESF_SPLINES"> F  </i>
   <i type="int" name="LMAXMP2">    -1</i>
   <i name="SCISSOR">      0.00000000</i>
   <i type="int" name="NOMEGA">     0</i>
   <i type="int" name="NOMEGAR">     0</i>
   <i type="int" name="NBANDSGW">    -1</i>
   <i type="int" name="NBANDSO">    -1</i>
   <i type="int" name="NBANDSV">    -1</i>
   <i type="int" name="NELMGW">     1</i>
   <i type="int" name="NELMHF">     1</i>
   <i type="int" name="DIM">     3</i>
   <i type="int" name="IESPILON">     4</i>
   <i type="int" name="ANTIRES">     0</i>
   <i name="OMEGAMAX">    -30.00000000</i>
   <i name="OMEGAMIN">    -30.00000000</i>
   <i name="OMEGATL">   -200.00000000</i>
   <i type="int" name="OMEGAGRID">     0</i>
   <i name="CSHIFT">     -0.10000000</i>
   <i type="logical" name="LSELFENERGY"> F  </i>
   <i type="logical" name="LSPECTRAL"> F  </i>
   <i type="logical" name="LSPECTRALGW"> F  </i>
   <i type="logical" name="LSINGLES"> F  </i>
   <i type="logical" name="LFERMIGW"> F  </i>
   <i type="logical" name="ODDONLYGW"> F  </i>
   <i type="logical" name="EVENONLYGW"> F  </i>
   <i type="int" name="NKREDLFX">     1</i>
   <i type="int" name="NKREDLFY">     1</i>
   <i type="int" name="NKREDLFZ">     1</i>
   <i type="int" name="MAXMEM">  2800</i>
   <i type="int" name="TELESCOPE">     0</i>
   <i type="int" name="NTAUPAR">    -1</i>
   <i type="int" name="NOMEGAPAR">    -1</i>
   <i name="DAMP_NEWTON">      0.80000001</i>
   <i name="LAMBDA">      1.00000000</i>
  </separator>
  <separator name="External order field" >
   <i name="OFIELD_KAPPA">      0.00000000</i>
   <v name="OFIELD_K">      0.00000000      0.00000000      0.00000000</v>
   <i name="OFIELD_Q6_NEAR">      0.00000000</i>
   <i name="OFIELD_Q6_FAR">      0.00000000</i>
   <i name="OFIELD_A">      0.00000000</i>
  </separator>
  <separator name="optional k-points parameters" >
   <i type="int" name="KPOINTS_OPT_MODE">     1</i>
   <i type="logical" name="LKPOINTS_OPT"> F  </i>
  </separator>
 </parameters>
 <atominfo>
  <atoms>       2 </atoms>
  <types>       1 </types>
  <array name="atoms" >
   <dimension dim="1">ion</dimension>
   <field type="string">element</field>
   <field type="int">atomtype</field>
   <set>
    <rc><c>O </c><c>   1</c></rc>
    <rc><c>O </c><c>   1</c></rc>
   </set>
  </array>
  <array name="atomtypes" >
   <dimension dim="1">type</dimension>
   <field type="int">atomspertype</field>
   <field type="string">element</field>
   <field>mass</field>
   <field>valence</field>
   <field type="string">pseudopotential</field>
   <set>
    <rc><c>   2</c><c>O </c><c>     16.00000000</c><c>      6.00000000</c><c>  PAW_PBE O 08Apr2002                   </c></rc>
   </set>
  </array>
 </atominfo>
 <structure name="initialpos" >
  <crystal>
   <varray name="basis" >
    <v>       7.50000000       0.00000000       0.00000000 </v>
    <v>       0.00000000       8.00000000       0.00000000 </v>
    <v>       0.00000000       0.00000000       8.90000000 </v>
   </varray>
   <i name="volume">    534.00000000 </i>
   <varray name="rec_basis" >
    <v>       0.13333333       0.00000000       0.00000000 </v>
    <v>       0.00000000       0.12500000       0.00000000 </v>
    <v>       0.00000000       0.00000000       0.11235955 </v>
   </varray>
  </crystal>
  <varray name="positions" >
   <v>       0.00000000       0.00000000       0.99812110 </v>
   <v>       0.00000000       0.00000000       0.13671036 </v>
  </varray>
 </structure>
 <calculation>
  <scstep>
   <time name="total">    0.31    0.33</time>
   <energy>
    <i name="alphaZ">      1.04085735 </i>
    <i name="ewald">     62.39013857 </i>
    <i name="hartreedc">     -2.37317484 </i>
    <i name="XCdc">     14.22229702 </i>
    <i name="pawpsdc">     19.78564630 </i>
    <i name="pawaedc">    -99.07124493 </i>
    <i name="eentropy">     -0.00000000 </i>
    <i name="bandstr">  -1587.87399441 </i>
    <i name="atom">    857.22400030 </i>
    <i name="e_fr_energy">   -734.65547465 </i>
    <i name="e_wo_entrp">   -734.65547465 </i>
    <i name="e_0_energy">   -734.65547465 </i>
   </energy>
  </scstep>
  <scstep>
   <time name="total">    0.09    0.09</time>
   <energy>
    <i name="e_fr_energy">   -922.93077406 </i>
    <i name="e_wo_entrp">   -922.93077406 </i>
    <i name="e_0_energy">   -922.93077406 </i>
   </energy>
  </scstep>
  <scstep>
   <time name="total">    0.66    0.99</time>
   <energy>
    <i name="e_fr_energy">   -935.40315998 </i>
    <i name="e_wo_entrp">   -935.40288427 </i>
    <i name="e_0_energy">   -935.40302212 </i>
   </energy>
  </scstep>
  <scstep>
   <time name="total">    0.09    0.09</time>
   <energy>
    <i name="e_fr_energy">   -935.90957840 </i>
    <i name="e_wo_entrp">   -935.90957736 </i>
    <i name="e_0_energy">   -935.90957788 </i>
   </energy>
  </scstep>
  <scstep>
   <time name="total">    1.65    1.65</time>
   <energy>
    <i name="e_fr_energy">   -880.24545560 </i>
    <i name="e_wo_entrp">   -880.24545560 </i>
    <i name="e_0_energy">   -880.24545560 </i>
   </energy>
  </scstep>
  <scstep>
   <time name="total">    3.03    3.03</time>
   <energy>
    <i name="e_fr_energy">    235.63884479 </i>
    <i name="e_wo_entrp">    235.63884479 </i>
    <i name="e_0_energy">    235.63884479 </i>
   </energy>
  </scstep>
  <scstep>
   <time name="total">    3.10    3.10</time>
   <energy>
    <i name="e_fr_energy">     90.53496649 </i>
    <i name="e_wo_entrp">     90.53496649 </i>
    <i name="e_0_energy">     90.53496649 </i>
   </energy>
  </scstep>
  <scstep>
   <time name="total">    3.30    3.30</time>
   <energy>
    <i name="e_fr_energy">     64.64276167 </i>
    <i name="e_wo_entrp">     64.64276167 </i>
    <i name="e_0_energy">     64.64276167 </i>
   </energy>
  </scstep>
  <scstep>
   <time name="total">    3.08    3.08</time>
   <energy>
    <i name="e_fr_energy">     18.71174449 </i>
    <i name="e_wo_entrp">     18.71174449 </i>
    <i name="e_0_energy">     18.71174449 </i>
   </energy>
  </scstep>
  <scstep>
   <time name="total">    3.13    3.14</time>
   <energy>
    <i name="e_fr_energy">      0.94258408 </i>
    <i name="e_wo_entrp">      0.94258408 </i>
    <i name="e_0_energy">      0.94258408 </i>
   </energy>
  </scstep>
  <scstep>
   <time name="total">    3.11    3.11</time>
   <energy>
    <i name="e_fr_energy">     -9.74445119 </i>
    <i name="e_wo_entrp">     -9.74445119 </i>
    <i name="e_0_energy">     -9.74445119 </i>
   </energy>
  </scstep>
  <scstep>
   <time name="total">    3.09    3.10</time>
   <energy>
    <i name="e_fr_energy">    -12.88486989 </i>
    <i name="e_wo_entrp">    -12.88486989 </i>
    <i name="e_0_energy">    -12.88486989 </i>
   </energy>
  </scstep>
  <scstep>
   <time name="total">    3.09    3.09</time>
   <energy>
    <i name="e_fr_energy">    -14.12908215 </i>
    <i name="e_wo_entrp">    -14.12908215 </i>
    <i name="e_0_energy">    -14.12908215 </i>
   </energy>
  </scstep>
  <scstep>
   <time name="total">    3.06    3.06</time>
   <energy>
    <i name="e_fr_energy">    -14.64929666 </i>
    <i name="e_wo_entrp">    -14.64929666 </i>
    <i name="e_0_energy">    -14.64929666 </i>
   </energy>
  </scstep>
  <scstep>
   <time name="total">    3.06    3.07</time>
   <energy>
    <i name="e_fr_energy">    -14.88956371 </i>
    <i name="e_wo_entrp">    -14.88956371 </i>
    <i name="e_0_energy">    -14.88956371 </i>
   </energy>
  </scstep>
  <scstep>
   <time name="total">    3.11    3.11</time>
   <energy>
    <i name="e_fr_energy">    -15.01850152 </i>
    <i name="e_wo_entrp">    -15.01850152 </i>
    <i name="e_0_energy">    -15.01850152 </i>
   </energy>
  </scstep>
  <scstep>
   <time name="total">    3.06    3.06</time>
   <energy>
    <i name="e_fr_energy">    -15.07009403 </i>
    <i name="e_wo_entrp">    -15.07009403 </i>
    <i name="e_0_energy">    -15.07009403 </i>
   </energy>
  </scstep>
  <scstep>
   <time name="total">    3.08    3.08</time>
   <energy>
    <i name="e_fr_energy">    -15.09414770 </i>
    <i name="e_wo_entrp">    -15.09414770 </i>
    <i name="e_0_energy">    -15.09414770 </i>
   </energy>
  </scstep>
  <scstep>
   <time name="total">    3.08    3.08</time>
   <energy>
    <i name="e_fr_energy">    -15.10638665 </i>
    <i name="e_wo_entrp">    -15.10638665 </i>
    <i name="e_0_energy">    -15.10638665 </i>
   </energy>
  </scstep>
  <scstep>
   <time name="total">    3.11    3.11</time>
   <energy>
    <i name="e_fr_energy">    -15.11342138 </i>
    <i name="e_wo_entrp">    -15.11342138 </i>
    <i name="e_0_energy">    -15.11342138 </i>
   </energy>
  </scstep>
  <scstep>
   <time name="total">    3.08    3.08</time>
   <energy>
    <i name="e_fr_energy">    -15.11727337 </i>
    <i name="e_wo_entrp">    -15.11727337 </i>
    <i name="e_0_energy">    -15.11727337 </i>
   </energy>
  </scstep>
  <scstep>
   <time name="total">    3.07    3.07</time>
   <energy>
    <i name="e_fr_energy">    -15.11920660 </i>
    <i name="e_wo_entrp">    -15.11920660 </i>
    <i name="e_0_energy">    -15.11920660 </i>
   </energy>
  </scstep>
  <scstep>
   <time name="total">    3.03    3.03</time>
   <energy>
    <i name="e_fr_energy">    -15.12009830 </i>
    <i name="e_wo_entrp">    -15.12009830 </i>
    <i name="e_0_energy">    -15.12009830 </i>
   </energy>
  </scstep>
  <scstep>
   <time name="total">    3.07    3.07</time>
   <energy>
    <i name="e_fr_energy">    -15.12054352 </i>
    <i name="e_wo_entrp">    -15.12054352 </i>
    <i name="e_0_energy">    -15.12054352 </i>
   </energy>
  </scstep>
  <scstep>
   <time name="total">    3.09    3.09</time>
   <energy>
    <i name="e_fr_energy">    -15.12078125 </i>
    <i name="e_wo_entrp">    -15.12078125 </i>
    <i name="e_0_energy">    -15.12078125 </i>
   </energy>
  </scstep>
  <scstep>
   <time name="total">    3.08    3.08</time>
   <energy>
    <i name="e_fr_energy">    -15.12091199 </i>
    <i name="e_wo_entrp">    -15.12091199 </i>
    <i name="e_0_energy">    -15.12091199 </i>
   </energy>
  </scstep>
  <scstep>
   <time name="total">    3.10    3.11</time>
   <energy>
    <i name="e_fr_energy">    -15.12097925 </i>
    <i name="e_wo_entrp">    -15.12097925 </i>
    <i name="e_0_energy">    -15.12097925 </i>
   </energy>
  </scstep>
  <scstep>
   <time name="total">    3.07    3.07</time>
   <energy>
    <i name="e_fr_energy">    -15.12101362 </i>
    <i name="e_wo_entrp">    -15.12101362 </i>
    <i name="e_0_energy">    -15.12101362 </i>
   </energy>
  </scstep>
  <scstep>
   <time name="total">    3.05    3.05</time>
   <energy>
    <i name="e_fr_energy">    -15.12103146 </i>
    <i name="e_wo_entrp">    -15.12103146 </i>
    <i name="e_0_energy">    -15.12103146 </i>
   </energy>
  </scstep>
  <scstep>
   <time name="total">    3.20    3.20</time>
   <energy>
    <i name="alphaZ">      1.04085735 </i>
    <i name="ewald">     62.39013857 </i>
    <i name="hartreedc">   -800.41122702 </i>
    <i name="XCdc">     38.82894126 </i>
    <i name="pawpsdc">    917.24214692 </i>
    <i name="pawaedc">   -918.39021489 </i>
    <i name="eentropy">     -0.00000000 </i>
    <i name="bandstr">   -220.36124788 </i>
    <i name="atom">    857.22400030 </i>
    <i name="e_fr_energy">    -15.12104129 </i>
    <i name="e_wo_entrp">    -15.12104129 </i>
    <i name="e_0_energy">    -15.12104129 </i>
   </energy>
  </scstep>
  <structure>
   <crystal>
    <varray name="basis" >
     <v>       7.50000000       0.00000000       0.00000000 </v>
     <v>       0.00000000       8.00000000       0.00000000 </v>
     <v>       0.00000000       0.00000000       8.90000000 </v>
    </varray>
    <i name="volume">    534.00000000 </i>
    <varray name="rec_basis" >
     <v>       0.13333333       0.00000000       0.00000000 </v>
     <v>       0.00000000       0.12500000       0.00000000 </v>
     <v>       0.00000000       0.00000000       0.11235955 </v>
    </varray>
   </crystal>
   <varray name="positions" >
    <v>       0.00000000       0.00000000       0.99812110 </v>
    <v>       0.00000000       0.00000000       0.13671036 </v>
   </varray>
  </structure>
  <varray name="forces" >
   <v>      -0.00000000       0.00000000       2.38048851 </v>
   <v>       0.00000000       0.00000000      -2.38048851 </v>
  </varray>
  <varray name="stress" >
   <v>      -1.22815480       0.00000000       0.00000000 </v>
   <v>       0.00000000      -1.18424460       0.00000000 </v>
   <v>       0.00000000       0.00000000      -9.70052412 </v>
  </varray>
  <energy>
   <i name="e_fr_energy">    -15.12104129 </i>
   <i name="e_wo_entrp">    -15.12104129 </i>
   <i name="e_0_energy">    -15.12104129 </i>
  </energy>
  <time name="totalsc">   84.15   84.76</time>
  <eigenvalues>
   <array>
    <dimension dim="1">band</dimension>
    <dimension dim="2">kpoint</dimension>
    <dimension dim="3">spin</dimension>
    <field>eigene</field>
    <field>occ</field>
    <set>
     <set comment="spin 1">
      <set comment="kpoint 1">
       <r>  -36.4805    1.0000 </r>
       <r>  -24.1051    1.0000 </r>
       <r>  -15.7900    1.0000 </r>
       <r>  -15.7893    1.0000 </r>
       <r>  -15.2538    1.0000 </r>
       <r>   -9.1155    1.0000 </r>
       <r>   -9.1144    1.0000 </r>
       <r>   -0.2138    0.0000 </r>
       <r>    1.3624    0.0000 </r>
       <r>    1.9696    0.0000 </r>
       <r>    2.2753    0.0000 </r>
      </set>
      <set comment="kpoint 2">
       <r>  -36.4807    1.0000 </r>
       <r>  -24.1050    1.0000 </r>
       <r>  -15.7899    1.0000 </r>
       <r>  -15.7898    1.0000 </r>
       <r>  -15.2539    1.0000 </r>
       <r>   -9.1152    1.0000 </r>
       <r>   -9.1146    1.0000 </r>
       <r>    0.3919    0.0000 </r>
       <r>    0.5144    0.0000 </r>
       <r>    1.7538    0.0000 </r>
       <r>    2.4475    0.0000 </r>
      </set>
      <set comment="kpoint 3">
       <r>  -36.4807    1.0000 </r>
       <r>  -24.1049    1.0000 </r>
       <r>  -15.7902    1.0000 </r>
       <r>  -15.7893    1.0000 </r>
       <r>  -15.2538    1.0000 </r>
       <r>   -9.1150    1.0000 </r>
       <r>   -9.1144    1.0000 </r>
       <r>    0.2900    0.0000 </r>
       <r>    0.4604    0.0000 </r>
       <r>    1.6752    0.0000 </r>
       <r>    2.6610    0.0000 </r>
      </set>
      <set comment="kpoint 4">
       <r>  -36.4806    1.0000 </r>
       <r>  -24.1050    1.0000 </r>
       <r>  -15.7900    1.0000 </r>
       <r>  -15.7897    1.0000 </r>
       <r>  -15.2538    1.0000 </r>
       <r>   -9.1150    1.0000 </r>
       <r>   -9.1148    1.0000 </r>
       <r>    0.9512    0.0000 </r>
       <r>    0.9542    0.0000 </r>
       <r>    0.9969    0.0000 </r>
       <r>    2.0091    0.0000 </r>
      </set>
      <set comment="kpoint 5">
       <r>  -36.4806    1.0000 </r>
       <r>  -24.1050    1.0000 </r>
       <r>  -15.7899    1.0000 </r>
       <r>  -15.7894    1.0000 </r>
       <r>  -15.2538    1.0000 </r>
       <r>   -9.1153    1.0000 </r>
       <r>   -9.1148    1.0000 </r>
       <r>    0.1448    0.0000 </r>
       <r>    0.2796    0.0000 </r>
       <r>    2.2738    0.0000 </r>
       <r>    2.5804    0.0000 </r>
      </set>
      <set comment="kpoint 6">
       <r>  -36.4807    1.0000 </r>
       <r>  -24.1049    1.0000 </r>
       <r>  -15.7898    1.0000 </r>
       <r>  -15.7898    1.0000 </r>
       <r>  -15.2538    1.0000 </r>
       <r>   -9.1150    1.0000 </r>
       <r>   -9.1144    1.0000 </r>
       <r>    0.7620    0.0000 </r>
       <r>    0.7769    0.0000 </r>
       <r>    0.8634    0.0000 </r>
       <r>    2.4574    0.0000 </r>
      </set>
      <set comment="kpoint 7">
       <r>  -36.4807    1.0000 </r>
       <r>  -24.1049    1.0000 </r>
       <r>  -15.7901    1.0000 </r>
       <r>  -15.7894    1.0000 </r>
       <r>  -15.2538    1.0000 </r>
       <r>   -9.1151    1.0000 </r>
       <r>   -9.1144    1.0000 </r>
       <r>    0.6526    0.0000 </r>
       <r>    0.6922    0.0000 </r>
       <r>    0.8169    0.0000 </r>
       <r>    1.3221    0.0000 </r>
      </set>
      <set comment="kpoint 8">
       <r>  -36.4807    1.0000 </r>
       <r>  -24.1049    1.0000 </r>
       <r>  -15.7900    1.0000 </r>
       <r>  -15.7897    1.0000 </r>
       <r>  -15.2538    1.0000 </r>
       <r>   -9.1151    1.0000 </r>
       <r>   -9.1145    1.0000 </r>
       <r>    1.1354    0.0000 </r>
       <r>    1.2705    0.0000 </r>
       <r>    1.3217    0.0000 </r>
       <r>    1.3786    0.0000 </r>
      </set>
     </set>
     <set comment="spin 2">
      <set comment="kpoint 1">
       <r>  -34.6294    1.0000 </r>
       <r>  -21.2208    1.0000 </r>
       <r>  -14.1096    1.0000 </r>
       <r>  -12.3782    1.0000 </r>
       <r>  -12.3778    1.0000 </r>
       <r>   -2.9811    0.0000 </r>
       <r>   -2.9798    0.0000 </r>
       <r>   -0.1482    0.0000 </r>
       <r>    1.5510    0.0000 </r>
       <r>    2.0780    0.0000 </r>
       <r>    2.3789    0.0000 </r>
      </set>
      <set comment="kpoint 2">
       <r>  -34.6297    1.0000 </r>
       <r>  -21.2207    1.0000 </r>
       <r>  -14.1096    1.0000 </r>
       <r>  -12.3783    1.0000 </r>
       <r>  -12.3782    1.0000 </r>
       <r>   -2.9828    0.0000 </r>
       <r>   -2.9807    0.0000 </r>
       <r>    0.4792    0.0000 </r>
       <r>    0.5746    0.0000 </r>
       <r>    2.0116    0.0000 </r>
       <r>    2.6008    0.0000 </r>
      </set>
      <set comment="kpoint 3">
       <r>  -34.6297    1.0000 </r>
       <r>  -21.2206    1.0000 </r>
       <r>  -14.1095    1.0000 </r>
       <r>  -12.3784    1.0000 </r>
       <r>  -12.3778    1.0000 </r>
       <r>   -2.9823    0.0000 </r>
       <r>   -2.9797    0.0000 </r>
       <r>    0.3760    0.0000 </r>
       <r>    0.5183    0.0000 </r>
       <r>    1.9251    0.0000 </r>
       <r>    2.7936    0.0000 </r>
      </set>
      <set comment="kpoint 4">
       <r>  -34.6296    1.0000 </r>
       <r>  -21.2207    1.0000 </r>
       <r>  -14.1095    1.0000 </r>
       <r>  -12.3783    1.0000 </r>
       <r>  -12.3782    1.0000 </r>
       <r>   -2.9828    0.0000 </r>
       <r>   -2.9820    0.0000 </r>
       <r>    1.0374    0.0000 </r>
       <r>    1.0703    0.0000 </r>
       <r>    1.0783    0.0000 </r>
       <r>    2.3377    0.0000 </r>
      </set>
      <set comment="kpoint 5">
       <r>  -34.6295    1.0000 </r>
       <r>  -21.2208    1.0000 </r>
       <r>  -14.1096    1.0000 </r>
       <r>  -12.3782    1.0000 </r>
       <r>  -12.3778    1.0000 </r>
       <r>   -2.9816    0.0000 </r>
       <r>   -2.9806    0.0000 </r>
       <r>    0.2011    0.0000 </r>
       <r>    0.3805    0.0000 </r>
       <r>    2.3911    0.0000 </r>
       <r>    2.7100    0.0000 </r>
      </set>
      <set comment="kpoint 6">
       <r>  -34.6297    1.0000 </r>
       <r>  -21.2206    1.0000 </r>
       <r>  -14.1095    1.0000 </r>
       <r>  -12.3783    1.0000 </r>
       <r>  -12.3781    1.0000 </r>
       <r>   -2.9836    0.0000 </r>
       <r>   -2.9811    0.0000 </r>
       <r>    0.8452    0.0000 </r>
       <r>    0.9094    0.0000 </r>
       <r>    0.9200    0.0000 </r>
       <r>    2.8573    0.0000 </r>
      </set>
      <set comment="kpoint 7">
       <r>  -34.6296    1.0000 </r>
       <r>  -21.2207    1.0000 </r>
       <r>  -14.1096    1.0000 </r>
       <r>  -12.3784    1.0000 </r>
       <r>  -12.3778    1.0000 </r>
       <r>   -2.9832    0.0000 </r>
       <r>   -2.9803    0.0000 </r>
       <r>    0.7325    0.0000 </r>
       <r>    0.8234    0.0000 </r>
       <r>    0.8715    0.0000 </r>
       <r>    1.1608    0.0000 </r>
      </set>
      <set comment="kpoint 8">
       <r>  -34.6297    1.0000 </r>
       <r>  -21.2206    1.0000 </r>
       <r>  -14.1095    1.0000 </r>
       <r>  -12.3783    1.0000 </r>
       <r>  -12.3782    1.0000 </r>
       <r>   -2.9834    0.0000 </r>
       <r>   -2.9828    0.0000 </r>
       <r>    1.3061    0.0000 </r>
       <r>    1.3538    0.0000 </r>
       <r>    1.4051    0.0000 </r>
       <r>    1.5103    0.0000 </r>
      </set>
     </set>
    </set>
   </array>
  </eigenvalues>
  <separator name="orbital magnetization" >
   <v name="MAGDIPOLOUT">      0.00000000      0.00000000      0.00000000</v>
  </separator>
  <dos>
   <i name="efermi">     -8.98673710 </i>
   <total>
    <array>
     <dimension dim="1">gridpoints</dimension>
     <dimension dim="2">spin</dimension>
     <field>energy</field>
     <field>total</field>
     <field>integrated</field>
     <set>
      <set comment="spin 1">
       <r>   -38.4476     0.0000     0.0000 </r>
       <r>   -38.3034     0.0000     0.0000 </r>
       <r>   -38.1592     0.0000     0.0000 </r>
       <r>   -38.0149     0.0000     0.0000 </r>
       <r>   -37.8707     0.0000     0.0000 </r>
       <r>   -37.7265     0.0000     0.0000 </r>
       <r>   -37.5822     0.0000     0.0000 </r>
       <r>   -37.4380     0.0000     0.0000 </r>
       <r>   -37.2937     0.0000     0.0000 </r>
       <r>   -37.1495     0.0000     0.0000 </r>
       <r>   -37.0053     0.0000     0.0000 </r>
       <r>   -36.8610     0.0000     0.0000 </r>
       <r>   -36.7168     0.0000     0.0000 </r>
       <r>   -36.5725     0.0000     0.0000 </r>
       <r>   -36.4283     6.9329     1.0000 </r>
       <r>   -36.2841     0.0000     1.0000 </r>
       <r>   -36.1398     0.0000     1.0000 </r>
       <r>   -35.9956     0.0000     1.0000 </r>
       <r>   -35.8513     0.0000     1.0000 </r>
       <r>   -35.7071     0.0000     1.0000 </r>
       <r>   -35.5629     0.0000     1.0000 </r>
       <r>   -35.4186     0.0000     1.0000 </r>
       <r>   -35.2744     0.0000     1.0000 </r>
       <r>   -35.1301     0.0000     1.0000 </r>
       <r>   -34.9859     0.0000     1.0000 </r>
       <r>   -34.8417     0.0000     1.0000 </r>
       <r>   -34.6974     0.0000     1.0000 </r>
       <r>   -34.5532     0.0000     1.0000 </r>
       <r>   -34.4089     0.0000     1.0000 </r>
       <r>   -34.2647     0.0000     1.0000 </r>
       <r>   -34.1205     0.0000     1.0000 </r>
       <r>   -33.9762     0.0000     1.0000 </r>
       <r>   -33.8320     0.0000     1.0000 </r>
       <r>   -33.6877     0.0000     1.0000 </r>
       <r>   -33.5435     0.0000     1.0000 </r>
       <r>   -33.3993     0.0000     1.0000 </r>
       <r>   -33.2550     0.0000     1.0000 </r>
       <r>   -33.1108     0.0000     1.0000 </r>
       <r>   -32.9665     0.0000     1.0000 </r>
       <r>   -32.8223     0.0000     1.0000 </r>
       <r>   -32.6781     0.0000     1.0000 </r>
       <r>   -32.5338     0.0000     1.0000 </r>
       <r>   -32.3896     0.0000     1.0000 </r>
       <r>   -32.2454     0.0000     1.0000 </r>
       <r>   -32.1011     0.0000     1.0000 </r>
       <r>   -31.9569     0.0000     1.0000 </r>
       <r>   -31.8126     0.0000     1.0000 </r>
       <r>   -31.6684     0.0000     1.0000 </r>
       <r>   -31.5242     0.0000     1.0000 </r>
       <r>   -31.3799     0.0000     1.0000 </r>
       <r>   -31.2357     0.0000     1.0000 </r>
       <r>   -31.0914     0.0000     1.0000 </r>
       <r>   -30.9472     0.0000     1.0000 </r>
       <r>   -30.8030     0.0000     1.0000 </r>
       <r>   -30.6587     0.0000     1.0000 </r>
       <r>   -30.5145     0.0000     1.0000 </r>
       <r>   -30.3702     0.0000     1.0000 </r>
       <r>   -30.2260     0.0000     1.0000 </r>
       <r>   -30.0818     0.0000     1.0000 </r>
       <r>   -29.9375     0.0000     1.0000 </r>
       <r>   -29.7933     0.0000     1.0000 </r>
       <r>   -29.6490     0.0000     1.0000 </r>
       <r>   -29.5048     0.0000     1.0000 </r>
       <r>   -29.3606     0.0000     1.0000 </r>
       <r>   -29.2163     0.0000     1.0000 </r>
       <r>   -29.0721     0.0000     1.0000 </r>
       <r>   -28.9278     0.0000     1.0000 </r>
       <r>   -28.7836     0.0000     1.0000 </r>
       <r>   -28.6394     0.0000     1.0000 </r>
       <r>   -28.4951     0.0000     1.0000 </r>
       <r>   -28.3509     0.0000     1.0000 </r>
       <r>   -28.2066     0.0000     1.0000 </r>
       <r>   -28.0624     0.0000     1.0000 </r>
       <r>   -27.9182     0.0000     1.0000 </r>
       <r>   -27.7739     0.0000     1.0000 </r>
       <r>   -27.6297     0.0000     1.0000 </r>
       <r>   -27.4854     0.0000     1.0000 </r>
       <r>   -27.3412     0.0000     1.0000 </r>
       <r>   -27.1970     0.0000     1.0000 </r>
       <r>   -27.0527     0.0000     1.0000 </r>
       <r>   -26.9085     0.0000     1.0000 </r>
       <r>   -26.7643     0.0000     1.0000 </r>
       <r>   -26.6200     0.0000     1.0000 </r>
       <r>   -26.4758     0.0000     1.0000 </r>
       <r>   -26.3315     0.0000     1.0000 </r>
       <r>   -26.1873     0.0000     1.0000 </r>
       <r>   -26.0431     0.0000     1.0000 </r>
       <r>   -25.8988     0.0000     1.0000 </r>
       <r>   -25.7546     0.0000     1.0000 </r>
       <r>   -25.6103     0.0000     1.0000 </r>
       <r>   -25.4661     0.0000     1.0000 </r>
       <r>   -25.3219     0.0000     1.0000 </r>
       <r>   -25.1776     0.0000     1.0000 </r>
       <r>   -25.0334     0.0000     1.0000 </r>
       <r>   -24.8891     0.0000     1.0000 </r>
       <r>   -24.7449     0.0000     1.0000 </r>
       <r>   -24.6007     0.0000     1.0000 </r>
       <r>   -24.4564     0.0000     1.0000 </r>
       <r>   -24.3122     0.0000     1.0000 </r>
       <r>   -24.1679     0.0000     1.0000 </r>
       <r>   -24.0237     0.0000     2.0000 </r>
       <r>   -23.8795     0.0000     2.0000 </r>
       <r>   -23.7352     0.0000     2.0000 </r>
       <r>   -23.5910     0.0000     2.0000 </r>
       <r>   -23.4467     0.0000     2.0000 </r>
       <r>   -23.3025     0.0000     2.0000 </r>
       <r>   -23.1583     0.0000     2.0000 </r>
       <r>   -23.0140     0.0000     2.0000 </r>
       <r>   -22.8698     0.0000     2.0000 </r>
       <r>   -22.7255     0.0000     2.0000 </r>
       <r>   -22.5813     0.0000     2.0000 </r>
       <r>   -22.4371     0.0000     2.0000 </r>
       <r>   -22.2928     0.0000     2.0000 </r>
       <r>   -22.1486     0.0000     2.0000 </r>
       <r>   -22.0043     0.0000     2.0000 </r>
       <r>   -21.8601     0.0000     2.0000 </r>
       <r>   -21.7159     0.0000     2.0000 </r>
       <r>   -21.5716     0.0000     2.0000 </r>
       <r>   -21.4274     0.0000     2.0000 </r>
       <r>   -21.2832     0.0000     2.0000 </r>
       <r>   -21.1389     0.0000     2.0000 </r>
       <r>   -20.9947     0.0000     2.0000 </r>
       <r>   -20.8504     0.0000     2.0000 </r>
       <r>   -20.7062     0.0000     2.0000 </r>
       <r>   -20.5620     0.0000     2.0000 </r>
       <r>   -20.4177     0.0000     2.0000 </r>
       <r>   -20.2735     0.0000     2.0000 </r>
       <r>   -20.1292     0.0000     2.0000 </r>
       <r>   -19.9850     0.0000     2.0000 </r>
       <r>   -19.8408     0.0000     2.0000 </r>
       <r>   -19.6965     0.0000     2.0000 </r>
       <r>   -19.5523     0.0000     2.0000 </r>
       <r>   -19.4080     0.0000     2.0000 </r>
       <r>   -19.2638     0.0000     2.0000 </r>
       <r>   -19.1196     0.0000     2.0000 </r>
       <r>   -18.9753     0.0000     2.0000 </r>
       <r>   -18.8311     0.0000     2.0000 </r>
       <r>   -18.6868     0.0000     2.0000 </r>
       <r>   -18.5426     0.0000     2.0000 </r>
       <r>   -18.3984     0.0000     2.0000 </r>
       <r>   -18.2541     0.0000     2.0000 </r>
       <r>   -18.1099     0.0000     2.0000 </r>
       <r>   -17.9656     0.0000     2.0000 </r>
       <r>   -17.8214     0.0000     2.0000 </r>
       <r>   -17.6772     0.0000     2.0000 </r>
       <r>   -17.5329     0.0000     2.0000 </r>
       <r>   -17.3887     0.0000     2.0000 </r>
       <r>   -17.2444     0.0000     2.0000 </r>
       <r>   -17.1002     0.0000     2.0000 </r>
       <r>   -16.9560     0.0000     2.0000 </r>
       <r>   -16.8117     0.0000     2.0000 </r>
       <r>   -16.6675     0.0000     2.0000 </r>
       <r>   -16.5232     0.0000     2.0000 </r>
       <r>   -16.3790     0.0000     2.0000 </r>
       <r>   -16.2348     0.0000     2.0000 </r>
       <r>   -16.0905     0.0000     2.0000 </r>
       <r>   -15.9463     0.0000     2.0000 </r>
       <r>   -15.8021     0.5730     2.0827 </r>
       <r>   -15.6578     0.0000     4.0000 </r>
       <r>   -15.5136     0.0000     4.0000 </r>
       <r>   -15.3693     0.0000     4.0000 </r>
       <r>   -15.2251     6.9327     5.0000 </r>
       <r>   -15.0809     0.0000     5.0000 </r>
       <r>   -14.9366     0.0000     5.0000 </r>
       <r>   -14.7924     0.0000     5.0000 </r>
       <r>   -14.6481     0.0000     5.0000 </r>
       <r>   -14.5039     0.0000     5.0000 </r>
       <r>   -14.3597     0.0000     5.0000 </r>
       <r>   -14.2154     0.0000     5.0000 </r>
       <r>   -14.0712     0.0000     5.0000 </r>
       <r>   -13.9269     0.0000     5.0000 </r>
       <r>   -13.7827     0.0000     5.0000 </r>
       <r>   -13.6385     0.0000     5.0000 </r>
       <r>   -13.4942     0.0000     5.0000 </r>
       <r>   -13.3500     0.0000     5.0000 </r>
       <r>   -13.2057     0.0000     5.0000 </r>
       <r>   -13.0615     0.0000     5.0000 </r>
       <r>   -12.9173     0.0000     5.0000 </r>
       <r>   -12.7730     0.0000     5.0000 </r>
       <r>   -12.6288     0.0000     5.0000 </r>
       <r>   -12.4845     0.0000     5.0000 </r>
       <r>   -12.3403     0.0000     5.0000 </r>
       <r>   -12.1961     0.0000     5.0000 </r>
       <r>   -12.0518     0.0000     5.0000 </r>
       <r>   -11.9076     0.0000     5.0000 </r>
       <r>   -11.7633     0.0000     5.0000 </r>
       <r>   -11.6191     0.0000     5.0000 </r>
       <r>   -11.4749     0.0000     5.0000 </r>
       <r>   -11.3306     0.0000     5.0000 </r>
       <r>   -11.1864     0.0000     5.0000 </r>
       <r>   -11.0421     0.0000     5.0000 </r>
       <r>   -10.8979     0.0000     5.0000 </r>
       <r>   -10.7537     0.0000     5.0000 </r>
       <r>   -10.6094     0.0000     5.0000 </r>
       <r>   -10.4652     0.0000     5.0000 </r>
       <r>   -10.3210     0.0000     5.0000 </r>
       <r>   -10.1767     0.0000     5.0000 </r>
       <r>   -10.0325     0.0000     5.0000 </r>
       <r>    -9.8882     0.0000     5.0000 </r>
       <r>    -9.7440     0.0000     5.0000 </r>
       <r>    -9.5998     0.0000     5.0000 </r>
       <r>    -9.4555     0.0000     5.0000 </r>
       <r>    -9.3113     0.0000     5.0000 </r>
       <r>    -9.1670     0.0000     5.0000 </r>
       <r>    -9.0228     0.0000     7.0000 </r>
       <r>    -8.8786     0.0000     7.0000 </r>
       <r>    -8.7343     0.0000     7.0000 </r>
       <r>    -8.5901     0.0000     7.0000 </r>
       <r>    -8.4458     0.0000     7.0000 </r>
       <r>    -8.3016     0.0000     7.0000 </r>
       <r>    -8.1574     0.0000     7.0000 </r>
       <r>    -8.0131     0.0000     7.0000 </r>
       <r>    -7.8689     0.0000     7.0000 </r>
       <r>    -7.7246     0.0000     7.0000 </r>
       <r>    -7.5804     0.0000     7.0000 </r>
       <r>    -7.4362     0.0000     7.0000 </r>
       <r>    -7.2919     0.0000     7.0000 </r>
       <r>    -7.1477     0.0000     7.0000 </r>
       <r>    -7.0034     0.0000     7.0000 </r>
       <r>    -6.8592     0.0000     7.0000 </r>
       <r>    -6.7150     0.0000     7.0000 </r>
       <r>    -6.5707     0.0000     7.0000 </r>
       <r>    -6.4265     0.0000     7.0000 </r>
       <r>    -6.2822     0.0000     7.0000 </r>
       <r>    -6.1380     0.0000     7.0000 </r>
       <r>    -5.9938     0.0000     7.0000 </r>
       <r>    -5.8495     0.0000     7.0000 </r>
       <r>    -5.7053     0.0000     7.0000 </r>
       <r>    -5.5610     0.0000     7.0000 </r>
       <r>    -5.4168     0.0000     7.0000 </r>
       <r>    -5.2726     0.0000     7.0000 </r>
       <r>    -5.1283     0.0000     7.0000 </r>
       <r>    -4.9841     0.0000     7.0000 </r>
       <r>    -4.8399     0.0000     7.0000 </r>
       <r>    -4.6956     0.0000     7.0000 </r>
       <r>    -4.5514     0.0000     7.0000 </r>
       <r>    -4.4071     0.0000     7.0000 </r>
       <r>    -4.2629     0.0000     7.0000 </r>
       <r>    -4.1187     0.0000     7.0000 </r>
       <r>    -3.9744     0.0000     7.0000 </r>
       <r>    -3.8302     0.0000     7.0000 </r>
       <r>    -3.6859     0.0000     7.0000 </r>
       <r>    -3.5417     0.0000     7.0000 </r>
       <r>    -3.3975     0.0000     7.0000 </r>
       <r>    -3.2532     0.0000     7.0000 </r>
       <r>    -3.1090     0.0000     7.0000 </r>
       <r>    -2.9647     0.0000     7.0000 </r>
       <r>    -2.8205     0.0000     7.0000 </r>
       <r>    -2.6763     0.0000     7.0000 </r>
       <r>    -2.5320     0.0000     7.0000 </r>
       <r>    -2.3878     0.0000     7.0000 </r>
       <r>    -2.2435     0.0000     7.0000 </r>
       <r>    -2.0993     0.0000     7.0000 </r>
       <r>    -1.9551     0.0000     7.0000 </r>
       <r>    -1.8108     0.0000     7.0000 </r>
       <r>    -1.6666     0.0000     7.0000 </r>
       <r>    -1.5223     0.0000     7.0000 </r>
       <r>    -1.3781     0.0000     7.0000 </r>
       <r>    -1.2339     0.0000     7.0000 </r>
       <r>    -1.0896     0.0000     7.0000 </r>
       <r>    -0.9454     0.0000     7.0000 </r>
       <r>    -0.8011     0.0000     7.0000 </r>
       <r>    -0.6569     0.0000     7.0000 </r>
       <r>    -0.5127     0.0000     7.0000 </r>
       <r>    -0.3684     0.0000     7.0000 </r>
       <r>    -0.2242     0.0621     7.0090 </r>
       <r>    -0.0799     0.0000     7.1250 </r>
       <r>     0.0643     0.0000     7.1250 </r>
       <r>     0.2085     0.8666     7.2500 </r>
       <r>     0.3528     1.7332     7.5000 </r>
       <r>     0.4970     0.8727     7.7509 </r>
       <r>     0.6412     0.0471     7.8818 </r>
       <r>     0.7855     1.6352     8.3609 </r>
       <r>     0.9297     0.8679     8.6252 </r>
       <r>     1.0740     0.8666     9.0000 </r>
       <r>     1.2182     0.0000     9.1250 </r>
       <r>     1.3624     2.1775     9.5641 </r>
       <r>     1.5067     0.0000     9.7500 </r>
       <r>     1.6509     0.0003     9.7500 </r>
       <r>     1.7952     0.8666    10.0000 </r>
       <r>     1.9394     0.0000    10.0000 </r>
       <r>     2.0836     0.8666    10.2500 </r>
       <r>     2.2279     0.0000    10.2500 </r>
       <r>     2.3721     0.0000    10.5000 </r>
       <r>     2.5164     1.7332    10.7500 </r>
       <r>     2.6606     0.4143    10.9348 </r>
       <r>     2.8048     0.0000    11.0000 </r>
       <r>     2.9491     0.0000    11.0000 </r>
       <r>     3.0933     0.0000    11.0000 </r>
       <r>     3.2376     0.0000    11.0000 </r>
       <r>     3.3818     0.0000    11.0000 </r>
       <r>     3.5260     0.0000    11.0000 </r>
       <r>     3.6703     0.0000    11.0000 </r>
       <r>     3.8145     0.0000    11.0000 </r>
       <r>     3.9588     0.0000    11.0000 </r>
       <r>     4.1030     0.0000    11.0000 </r>
       <r>     4.2472     0.0000    11.0000 </r>
       <r>     4.3915     0.0000    11.0000 </r>
       <r>     4.5357     0.0000    11.0000 </r>
       <r>     4.6800     0.0000    11.0000 </r>
       <r>     4.8242     0.0000    11.0000 </r>
      </set>
      <set comment="spin 2">
       <r>   -38.4476     0.0000     0.0000 </r>
       <r>   -38.3034     0.0000     0.0000 </r>
       <r>   -38.1592     0.0000     0.0000 </r>
       <r>   -38.0149     0.0000     0.0000 </r>
       <r>   -37.8707     0.0000     0.0000 </r>
       <r>   -37.7265     0.0000     0.0000 </r>
       <r>   -37.5822     0.0000     0.0000 </r>
       <r>   -37.4380     0.0000     0.0000 </r>
       <r>   -37.2937     0.0000     0.0000 </r>
       <r>   -37.1495     0.0000     0.0000 </r>
       <r>   -37.0053     0.0000     0.0000 </r>
       <r>   -36.8610     0.0000     0.0000 </r>
       <r>   -36.7168     0.0000     0.0000 </r>
       <r>   -36.5725     0.0000     0.0000 </r>
       <r>   -36.4283     0.0000     0.0000 </r>
       <r>   -36.2841     0.0000     0.0000 </r>
       <r>   -36.1398     0.0000     0.0000 </r>
       <r>   -35.9956     0.0000     0.0000 </r>
       <r>   -35.8513     0.0000     0.0000 </r>
       <r>   -35.7071     0.0000     0.0000 </r>
       <r>   -35.5629     0.0000     0.0000 </r>
       <r>   -35.4186     0.0000     0.0000 </r>
       <r>   -35.2744     0.0000     0.0000 </r>
       <r>   -35.1301     0.0000     0.0000 </r>
       <r>   -34.9859     0.0000     0.0000 </r>
       <r>   -34.8417     0.0000     0.0000 </r>
       <r>   -34.6974     0.0000     0.0000 </r>
       <r>   -34.5532     6.9329     1.0000 </r>
       <r>   -34.4089     0.0000     1.0000 </r>
       <r>   -34.2647     0.0000     1.0000 </r>
       <r>   -34.1205     0.0000     1.0000 </r>
       <r>   -33.9762     0.0000     1.0000 </r>
       <r>   -33.8320     0.0000     1.0000 </r>
       <r>   -33.6877     0.0000     1.0000 </r>
       <r>   -33.5435     0.0000     1.0000 </r>
       <r>   -33.3993     0.0000     1.0000 </r>
       <r>   -33.2550     0.0000     1.0000 </r>
       <r>   -33.1108     0.0000     1.0000 </r>
       <r>   -32.9665     0.0000     1.0000 </r>
       <r>   -32.8223     0.0000     1.0000 </r>
       <r>   -32.6781     0.0000     1.0000 </r>
       <r>   -32.5338     0.0000     1.0000 </r>
       <r>   -32.3896     0.0000     1.0000 </r>
       <r>   -32.2454     0.0000     1.0000 </r>
       <r>   -32.1011     0.0000     1.0000 </r>
       <r>   -31.9569     0.0000     1.0000 </r>
       <r>   -31.8126     0.0000     1.0000 </r>
       <r>   -31.6684     0.0000     1.0000 </r>
       <r>   -31.5242     0.0000     1.0000 </r>
       <r>   -31.3799     0.0000     1.0000 </r>
       <r>   -31.2357     0.0000     1.0000 </r>
       <r>   -31.0914     0.0000     1.0000 </r>
       <r>   -30.9472     0.0000     1.0000 </r>
       <r>   -30.8030     0.0000     1.0000 </r>
       <r>   -30.6587     0.0000     1.0000 </r>
       <r>   -30.5145     0.0000     1.0000 </r>
       <r>   -30.3702     0.0000     1.0000 </r>
       <r>   -30.2260     0.0000     1.0000 </r>
       <r>   -30.0818     0.0000     1.0000 </r>
       <r>   -29.9375     0.0000     1.0000 </r>
       <r>   -29.7933     0.0000     1.0000 </r>
       <r>   -29.6490     0.0000     1.0000 </r>
       <r>   -29.5048     0.0000     1.0000 </r>
       <r>   -29.3606     0.0000     1.0000 </r>
       <r>   -29.2163     0.0000     1.0000 </r>
       <r>   -29.0721     0.0000     1.0000 </r>
       <r>   -28.9278     0.0000     1.0000 </r>
       <r>   -28.7836     0.0000     1.0000 </r>
       <r>   -28.6394     0.0000     1.0000 </r>
       <r>   -28.4951     0.0000     1.0000 </r>
       <r>   -28.3509     0.0000     1.0000 </r>
       <r>   -28.2066     0.0000     1.0000 </r>
       <r>   -28.0624     0.0000     1.0000 </r>
       <r>   -27.9182     0.0000     1.0000 </r>
       <r>   -27.7739     0.0000     1.0000 </r>
       <r>   -27.6297     0.0000     1.0000 </r>
       <r>   -27.4854     0.0000     1.0000 </r>
       <r>   -27.3412     0.0000     1.0000 </r>
       <r>   -27.1970     0.0000     1.0000 </r>
       <r>   -27.0527     0.0000     1.0000 </r>
       <r>   -26.9085     0.0000     1.0000 </r>
       <r>   -26.7643     0.0000     1.0000 </r>
       <r>   -26.6200     0.0000     1.0000 </r>
       <r>   -26.4758     0.0000     1.0000 </r>
       <r>   -26.3315     0.0000     1.0000 </r>
       <r>   -26.1873     0.0000     1.0000 </r>
       <r>   -26.0431     0.0000     1.0000 </r>
       <r>   -25.8988     0.0000     1.0000 </r>
       <r>   -25.7546     0.0000     1.0000 </r>
       <r>   -25.6103     0.0000     1.0000 </r>
       <r>   -25.4661     0.0000     1.0000 </r>
       <r>   -25.3219     0.0000     1.0000 </r>
       <r>   -25.1776     0.0000     1.0000 </r>
       <r>   -25.0334     0.0000     1.0000 </r>
       <r>   -24.8891     0.0000     1.0000 </r>
       <r>   -24.7449     0.0000     1.0000 </r>
       <r>   -24.6007     0.0000     1.0000 </r>
       <r>   -24.4564     0.0000     1.0000 </r>
       <r>   -24.3122     0.0000     1.0000 </r>
       <r>   -24.1679     0.0000     1.0000 </r>
       <r>   -24.0237     0.0000     1.0000 </r>
       <r>   -23.8795     0.0000     1.0000 </r>
       <r>   -23.7352     0.0000     1.0000 </r>
       <r>   -23.5910     0.0000     1.0000 </r>
       <r>   -23.4467     0.0000     1.0000 </r>
       <r>   -23.3025     0.0000     1.0000 </r>
       <r>   -23.1583     0.0000     1.0000 </r>
       <r>   -23.0140     0.0000     1.0000 </r>
       <r>   -22.8698     0.0000     1.0000 </r>
       <r>   -22.7255     0.0000     1.0000 </r>
       <r>   -22.5813     0.0000     1.0000 </r>
       <r>   -22.4371     0.0000     1.0000 </r>
       <r>   -22.2928     0.0000     1.0000 </r>
       <r>   -22.1486     0.0000     1.0000 </r>
       <r>   -22.0043     0.0000     1.0000 </r>
       <r>   -21.8601     0.0000     1.0000 </r>
       <r>   -21.7159     0.0000     1.0000 </r>
       <r>   -21.5716     0.0000     1.0000 </r>
       <r>   -21.4274     0.0000     1.0000 </r>
       <r>   -21.2832     0.0000     1.0000 </r>
       <r>   -21.1389     0.0000     2.0000 </r>
       <r>   -20.9947     0.0000     2.0000 </r>
       <r>   -20.8504     0.0000     2.0000 </r>
       <r>   -20.7062     0.0000     2.0000 </r>
       <r>   -20.5620     0.0000     2.0000 </r>
       <r>   -20.4177     0.0000     2.0000 </r>
       <r>   -20.2735     0.0000     2.0000 </r>
       <r>   -20.1292     0.0000     2.0000 </r>
       <r>   -19.9850     0.0000     2.0000 </r>
       <r>   -19.8408     0.0000     2.0000 </r>
       <r>   -19.6965     0.0000     2.0000 </r>
       <r>   -19.5523     0.0000     2.0000 </r>
       <r>   -19.4080     0.0000     2.0000 </r>
       <r>   -19.2638     0.0000     2.0000 </r>
       <r>   -19.1196     0.0000     2.0000 </r>
       <r>   -18.9753     0.0000     2.0000 </r>
       <r>   -18.8311     0.0000     2.0000 </r>
       <r>   -18.6868     0.0000     2.0000 </r>
       <r>   -18.5426     0.0000     2.0000 </r>
       <r>   -18.3984     0.0000     2.0000 </r>
       <r>   -18.2541     0.0000     2.0000 </r>
       <r>   -18.1099     0.0000     2.0000 </r>
       <r>   -17.9656     0.0000     2.0000 </r>
       <r>   -17.8214     0.0000     2.0000 </r>
       <r>   -17.6772     0.0000     2.0000 </r>
       <r>   -17.5329     0.0000     2.0000 </r>
       <r>   -17.3887     0.0000     2.0000 </r>
       <r>   -17.2444     0.0000     2.0000 </r>
       <r>   -17.1002     0.0000     2.0000 </r>
       <r>   -16.9560     0.0000     2.0000 </r>
       <r>   -16.8117     0.0000     2.0000 </r>
       <r>   -16.6675     0.0000     2.0000 </r>
       <r>   -16.5232     0.0000     2.0000 </r>
       <r>   -16.3790     0.0000     2.0000 </r>
       <r>   -16.2348     0.0000     2.0000 </r>
       <r>   -16.0905     0.0000     2.0000 </r>
       <r>   -15.9463     0.0000     2.0000 </r>
       <r>   -15.8021     0.0000     2.0000 </r>
       <r>   -15.6578     0.0000     2.0000 </r>
       <r>   -15.5136     0.0000     2.0000 </r>
       <r>   -15.3693     0.0000     2.0000 </r>
       <r>   -15.2251     0.0000     2.0000 </r>
       <r>   -15.0809     0.0000     2.0000 </r>
       <r>   -14.9366     0.0000     2.0000 </r>
       <r>   -14.7924     0.0000     2.0000 </r>
       <r>   -14.6481     0.0000     2.0000 </r>
       <r>   -14.5039     0.0000     2.0000 </r>
       <r>   -14.3597     0.0000     2.0000 </r>
       <r>   -14.2154     0.0000     2.0000 </r>
       <r>   -14.0712     6.9329     3.0000 </r>
       <r>   -13.9269     0.0000     3.0000 </r>
       <r>   -13.7827     0.0000     3.0000 </r>
       <r>   -13.6385     0.0000     3.0000 </r>
       <r>   -13.4942     0.0000     3.0000 </r>
       <r>   -13.3500     0.0000     3.0000 </r>
       <r>   -13.2057     0.0000     3.0000 </r>
       <r>   -13.0615     0.0000     3.0000 </r>
       <r>   -12.9173     0.0000     3.0000 </r>
       <r>   -12.7730     0.0000     3.0000 </r>
       <r>   -12.6288     0.0000     3.0000 </r>
       <r>   -12.4845     0.0000     3.0000 </r>
       <r>   -12.3403    13.8658     5.0000 </r>
       <r>   -12.1961     0.0000     5.0000 </r>
       <r>   -12.0518     0.0000     5.0000 </r>
       <r>   -11.9076     0.0000     5.0000 </r>
       <r>   -11.7633     0.0000     5.0000 </r>
       <r>   -11.6191     0.0000     5.0000 </r>
       <r>   -11.4749     0.0000     5.0000 </r>
       <r>   -11.3306     0.0000     5.0000 </r>
       <r>   -11.1864     0.0000     5.0000 </r>
       <r>   -11.0421     0.0000     5.0000 </r>
       <r>   -10.8979     0.0000     5.0000 </r>
       <r>   -10.7537     0.0000     5.0000 </r>
       <r>   -10.6094     0.0000     5.0000 </r>
       <r>   -10.4652     0.0000     5.0000 </r>
       <r>   -10.3210     0.0000     5.0000 </r>
       <r>   -10.1767     0.0000     5.0000 </r>
       <r>   -10.0325     0.0000     5.0000 </r>
       <r>    -9.8882     0.0000     5.0000 </r>
       <r>    -9.7440     0.0000     5.0000 </r>
       <r>    -9.5998     0.0000     5.0000 </r>
       <r>    -9.4555     0.0000     5.0000 </r>
       <r>    -9.3113     0.0000     5.0000 </r>
       <r>    -9.1670     0.0000     5.0000 </r>
       <r>    -9.0228     0.0000     5.0000 </r>
       <r>    -8.8786     0.0000     5.0000 </r>
       <r>    -8.7343     0.0000     5.0000 </r>
       <r>    -8.5901     0.0000     5.0000 </r>
       <r>    -8.4458     0.0000     5.0000 </r>
       <r>    -8.3016     0.0000     5.0000 </r>
       <r>    -8.1574     0.0000     5.0000 </r>
       <r>    -8.0131     0.0000     5.0000 </r>
       <r>    -7.8689     0.0000     5.0000 </r>
       <r>    -7.7246     0.0000     5.0000 </r>
       <r>    -7.5804     0.0000     5.0000 </r>
       <r>    -7.4362     0.0000     5.0000 </r>
       <r>    -7.2919     0.0000     5.0000 </r>
       <r>    -7.1477     0.0000     5.0000 </r>
       <r>    -7.0034     0.0000     5.0000 </r>
       <r>    -6.8592     0.0000     5.0000 </r>
       <r>    -6.7150     0.0000     5.0000 </r>
       <r>    -6.5707     0.0000     5.0000 </r>
       <r>    -6.4265     0.0000     5.0000 </r>
       <r>    -6.2822     0.0000     5.0000 </r>
       <r>    -6.1380     0.0000     5.0000 </r>
       <r>    -5.9938     0.0000     5.0000 </r>
       <r>    -5.8495     0.0000     5.0000 </r>
       <r>    -5.7053     0.0000     5.0000 </r>
       <r>    -5.5610     0.0000     5.0000 </r>
       <r>    -5.4168     0.0000     5.0000 </r>
       <r>    -5.2726     0.0000     5.0000 </r>
       <r>    -5.1283     0.0000     5.0000 </r>
       <r>    -4.9841     0.0000     5.0000 </r>
       <r>    -4.8399     0.0000     5.0000 </r>
       <r>    -4.6956     0.0000     5.0000 </r>
       <r>    -4.5514     0.0000     5.0000 </r>
       <r>    -4.4071     0.0000     5.0000 </r>
       <r>    -4.2629     0.0000     5.0000 </r>
       <r>    -4.1187     0.0000     5.0000 </r>
       <r>    -3.9744     0.0000     5.0000 </r>
       <r>    -3.8302     0.0000     5.0000 </r>
       <r>    -3.6859     0.0000     5.0000 </r>
       <r>    -3.5417     0.0000     5.0000 </r>
       <r>    -3.3975     0.0000     5.0000 </r>
       <r>    -3.2532     0.0000     5.0000 </r>
       <r>    -3.1090     0.0000     5.0000 </r>
       <r>    -2.9647    13.7407     6.9819 </r>
       <r>    -2.8205     0.0000     7.0000 </r>
       <r>    -2.6763     0.0000     7.0000 </r>
       <r>    -2.5320     0.0000     7.0000 </r>
       <r>    -2.3878     0.0000     7.0000 </r>
       <r>    -2.2435     0.0000     7.0000 </r>
       <r>    -2.0993     0.0000     7.0000 </r>
       <r>    -1.9551     0.0000     7.0000 </r>
       <r>    -1.8108     0.0000     7.0000 </r>
       <r>    -1.6666     0.0000     7.0000 </r>
       <r>    -1.5223     0.0000     7.0000 </r>
       <r>    -1.3781     0.0000     7.0000 </r>
       <r>    -1.2339     0.0000     7.0000 </r>
       <r>    -1.0896     0.0000     7.0000 </r>
       <r>    -0.9454     0.0000     7.0000 </r>
       <r>    -0.8011     0.0000     7.0000 </r>
       <r>    -0.6569     0.0000     7.0000 </r>
       <r>    -0.5127     0.0000     7.0000 </r>
       <r>    -0.3684     0.0000     7.0000 </r>
       <r>    -0.2242     0.0000     7.0000 </r>
       <r>    -0.0799     0.8666     7.1250 </r>
       <r>     0.0643     0.0000     7.1250 </r>
       <r>     0.2085     0.7389     7.2316 </r>
       <r>     0.3528     0.0005     7.2501 </r>
       <r>     0.4970     0.8626     7.6244 </r>
       <r>     0.6412     0.8666     7.8750 </r>
       <r>     0.7855     0.8666     8.0000 </r>
       <r>     0.9297     2.5254     8.6143 </r>
       <r>     1.0740     1.7018     8.8705 </r>
       <r>     1.2182     0.8666     9.1250 </r>
       <r>     1.3624     1.6376     9.3612 </r>
       <r>     1.5067     0.2645     9.5382 </r>
       <r>     1.6509     0.0000     9.7500 </r>
       <r>     1.7952     0.0000     9.7500 </r>
       <r>     1.9394     0.8479     9.8723 </r>
       <r>     2.0836     1.5483    10.0983 </r>
       <r>     2.2279     0.0000    10.1250 </r>
       <r>     2.3721     1.0165    10.2716 </r>
       <r>     2.5164     0.0000    10.5000 </r>
       <r>     2.6606     0.8666    10.6250 </r>
       <r>     2.8048     0.8174    10.8679 </r>
       <r>     2.9491     0.0000    11.0000 </r>
       <r>     3.0933     0.0000    11.0000 </r>
       <r>     3.2376     0.0000    11.0000 </r>
       <r>     3.3818     0.0000    11.0000 </r>
       <r>     3.5260     0.0000    11.0000 </r>
       <r>     3.6703     0.0000    11.0000 </r>
       <r>     3.8145     0.0000    11.0000 </r>
       <r>     3.9588     0.0000    11.0000 </r>
       <r>     4.1030     0.0000    11.0000 </r>
       <r>     4.2472     0.0000    11.0000 </r>
       <r>     4.3915     0.0000    11.0000 </r>
       <r>     4.5357     0.0000    11.0000 </r>
       <r>     4.6800     0.0000    11.0000 </r>
       <r>     4.8242     0.0000    11.0000 </r>
      </set>
     </set>
    </array>
   </total>
  </dos>
 </calculation>
 <structure name="finalpos" >
  <crystal>
   <varray name="basis" >
    <v>       7.50000000       0.00000000       0.00000000 </v>
    <v>       0.00000000       8.00000000       0.00000000 </v>
    <v>       0.00000000       0.00000000       8.90000000 </v>
   </varray>
   <i name="volume">    534.00000000 </i>
   <varray name="rec_basis" >
    <v>       0.13333333       0.00000000       0.00000000 </v>
    <v>       0.00000000       0.12500000       0.00000000 </v>
    <v>       0.00000000       0.00000000       0.11235955 </v>
   </varray>
  </crystal>
  <varray name="positions" >
   <v>       0.00000000       0.00000000       0.99812110 </v>
   <v>       0.00000000       0.00000000       0.13671036 </v>
  </varray>
 </structure>
</modeling>
